 Gaussian 16, Revision A.03,
 Gaussian 16:  ES64L-G16RevA.03 25-Dec-2016

 -------------------------------------
 # td=(NStates=1) CAM-B3LYP/6-31G(d,p)
 -------------------------------------

 --
 TD
 --
 Symbolic Z-matrix:
 Charge =  0 Multiplicity = 1

                         Standard orientation:
 ---------------------------------------------------------------------
 Center     Atomic      Atomic             Coordinates (Angstroms)
 Number     Number       Type             X           Y           Z
 ---------------------------------------------------------------------
      1          8           0      -11.730652    0.206752   -1.555118
      2          8           0      -13.148008   -2.436729    1.385010
      3          8           0       10.690639   -0.928525   -2.168071
      4          8           0       14.469468   -1.035580   -0.130238
      5          6           0      -11.106163   -0.153790   -0.308681
      6          6           0      -11.662510   -1.189687   -1.250341
      7          6           0      -11.848332    0.383250    0.910447
      8          6           0      -13.066814   -1.733466   -0.997280
      9          6           0      -13.279230   -0.082290    0.865046
     10          6           0      -13.521325   -1.499113    0.416632
     11          6           0      -10.713394   -1.904541   -2.247515
     12          6           0       -9.611262    0.133770   -0.337297
     13          6           0      -11.134627   -0.212450    2.187252
     14          6           0      -11.572065    1.812598    0.843984
     15          6           0       -8.690069   -0.720770    0.054922
     16          6           0       -7.257438   -0.550499    0.125504
     17          6           0       -6.448697   -1.730018    0.480605
     18          6           0       -6.662267    0.665094   -0.107771
     19          6           0       -5.208808    0.948374   -0.022451
     20          6           0       12.012824   -0.120603    1.360858
     21          6           0       11.641131   -0.482395   -1.209802
     22          6           0       12.641254   -1.443477    1.416032
     23          6           0       13.377663   -1.839845    0.158679
     24          6           0       12.378721   -1.797805   -1.012136
     25          6           0       11.091490   -0.018654    0.050442
     26          6           0       11.123175   -0.029968    2.525571
     27          6           0       12.957441    1.124868    1.428662
     28          6           0       12.658847    0.417123   -1.899540
     29          6           0       -4.693388    2.267857   -0.324759
     30          6           0        9.843263    0.584381    0.052531
     31          6           0       -3.383622    2.553058   -0.317926
     32          6           0        8.667000    0.923722   -0.323998
     33          6           0       -3.026544    4.007536   -0.664747
     34          6           0       -2.286096    1.659128   -0.106249
     35          6           0        7.402830    0.194990   -0.053757
     36          6           0        7.579836   -1.187819    0.046920
     37          6           0        6.217979    0.733857   -0.173353
     38          6           0       -0.927817    1.940462   -0.154316
     39          6           0        4.876841    0.101986    0.024520
     40          6           0        0.020544    0.919028    0.068696
     41          6           0        3.755648    0.916982   -0.087988
     42          6           0        1.344993    1.221049   -0.002236
     43          6           0        2.436886    0.390786    0.100148
     44          6           0        2.311478   -1.072869    0.455849
     45          1           0      -12.999421   -2.924308   -0.836984
     46          1           0      -13.812678   -1.503672   -1.759071
     47          1           0      -13.619976   -0.116316    1.935480
     48          1           0      -13.821638    0.566695    0.123253
     49          1           0      -14.561115   -1.658857    0.352542
     50          1           0      -10.410178   -2.879496   -1.622068
     51          1           0      -11.186676   -2.313948   -3.129464
     52          1           0       -9.792291   -1.287643   -2.633797
     53          1           0       -9.356930    1.164535   -0.577922
     54          1           0      -10.048330    0.030993    2.506710
     55          1           0      -11.712059    0.014676    2.914760
     56          1           0      -11.262605   -1.304283    2.354493
     57          1           0      -11.910971    2.028158   -0.194662
     58          1           0      -12.158992    2.335680    1.576297
     59          1           0      -10.657434    2.190969    0.730342
     60          1           0      -12.405003   -2.733049    0.858987
     61          1           0       -9.119791   -1.800998    0.336385
     62          1           0       -6.049853   -2.109041   -0.488339
     63          1           0       -5.799161   -1.732040    1.237720
     64          1           0       -7.099733   -2.504373    0.781994
     65          1           0       -7.390519    1.551411   -0.316952
     66          1           0       -4.478129    0.172592    0.292355
     67          1           0       13.337832   -1.410245    2.215749
     68          1           0       11.984983   -2.214379    1.665087
     69          1           0       13.669841   -2.892320    0.327861
     70          1           0       12.909844   -2.249707   -2.009228
     71          1           0       11.446077   -2.612894   -0.938455
     72          1           0       11.544957    0.121005    3.547027
     73          1           0       10.480936    0.972192    2.359114
     74          1           0       10.330312   -0.891369    2.533233
     75          1           0       13.872819    1.093269    0.732712
     76          1           0       12.384387    2.001886    1.352117
     77          1           0       13.494244    1.232590    2.456295
     78          1           0       13.053589    0.145394   -2.728652
     79          1           0       12.077246    1.347532   -2.193077
     80          1           0       13.570578    0.842768   -1.351568
     81          1           0       -5.331342    3.008684   -0.559633
     82          1           0       10.199649   -0.217976   -2.358106
     83          1           0       15.527582   -1.164937    0.197421
     84          1           0        8.512516    1.949375   -0.496959
     85          1           0       -2.683172    4.592523    0.147302
     86          1           0       -1.988482    3.976461   -1.374458
     87          1           0       -3.784393    4.567550   -1.435461
     88          1           0       -2.747227    0.673974    0.147093
     89          1           0        6.814398   -1.743636    0.051230
     90          1           0        8.147634   -1.685836   -0.732324
     91          1           0        7.894870   -1.316324    0.982767
     92          1           0        6.402800    1.806357   -0.197504
     93          1           0       -0.580106    2.882823   -0.435239
     94          1           0        5.039756   -1.002813    0.112023
     95          1           0       -0.210269   -0.165019    0.180660
     96          1           0        3.953953    2.035776   -0.057808
     97          1           0        1.617103    2.287658    0.008118
     98          1           0        1.264480   -1.159943    0.798735
     99          1           0        2.382016   -1.825843   -0.592988
    100          1           0        3.376242   -1.398652    1.125285
 ---------------------------------------------------------------------

 SCF Done:  E(RCAM-B3LYP) =  -1857.24228196     A.U. after   15 cycles

 Excitation energies and oscillator strengths:

 Excited State   1:      Singlet-A      2.0117 eV  616.33 nm  f=2.6632  <S**2>=0.000
     163 ->166         0.11017
     164 ->165         0.70594
     164 <-165        -0.12612
 This state for optimization and/or second-order correction.
 Total Energy, E(TD-HF/TD-DFT) =  -1857.16835464
 Copying the excited state density for this state as the 1-particle RhoCI density.

 The electronic state is 1-A.
 Alpha  occ. eigenvalues --  -19.22309 -19.21940 -19.21705 -19.19996 -10.32806
 Alpha  occ. eigenvalues --  -10.31802 -10.30883 -10.30479 -10.29935 -10.28871
 Alpha  occ. eigenvalues --  -10.28268 -10.27983 -10.27523 -10.27465 -10.27465
 Alpha  occ. eigenvalues --  -10.27445 -10.27383 -10.27306 -10.27259 -10.27145
 Alpha  occ. eigenvalues --  -10.27132 -10.27079 -10.27063 -10.27041 -10.27023
 Alpha  occ. eigenvalues --  -10.26802 -10.26743 -10.26437 -10.26093 -10.26046
 Alpha  occ. eigenvalues --  -10.26011 -10.25788 -10.25540 -10.25509 -10.25344
 Alpha  occ. eigenvalues --  -10.25283 -10.24732 -10.24650 -10.24373 -10.23150
 Alpha  occ. eigenvalues --  -10.22922 -10.22769 -10.22615 -10.20853  -1.15224
 Alpha  occ. eigenvalues --   -1.12741  -1.11471  -1.08099  -0.93366  -0.92596
 Alpha  occ. eigenvalues --   -0.92443  -0.92124  -0.91444  -0.90652  -0.87545
 Alpha  occ. eigenvalues --   -0.87312  -0.86325  -0.85228  -0.84599  -0.82983
 Alpha  occ. eigenvalues --   -0.81702  -0.81058  -0.80763  -0.78646  -0.78145
 Alpha  occ. eigenvalues --   -0.77325  -0.76447  -0.76380  -0.75809  -0.75022
 Alpha  occ. eigenvalues --   -0.74253  -0.73978  -0.72859  -0.71091  -0.69859
 Alpha  occ. eigenvalues --   -0.68795  -0.67640  -0.65320  -0.64781  -0.64572
 Alpha  occ. eigenvalues --   -0.63876  -0.62119  -0.60726  -0.59988  -0.59637
 Alpha  occ. eigenvalues --   -0.59142  -0.58743  -0.57798  -0.57396  -0.57281
 Alpha  occ. eigenvalues --   -0.56277  -0.55859  -0.55203  -0.54757  -0.54520
 Alpha  occ. eigenvalues --   -0.53868  -0.53256  -0.52590  -0.52312  -0.52224
 Alpha  occ. eigenvalues --   -0.52070  -0.51567  -0.51253  -0.50922  -0.50708
 Alpha  occ. eigenvalues --   -0.49175  -0.49126  -0.48922  -0.48373  -0.48151
 Alpha  occ. eigenvalues --   -0.47818  -0.47650  -0.47329  -0.46855  -0.46621
 Alpha  occ. eigenvalues --   -0.46432  -0.45963  -0.45712  -0.45633  -0.45607
 Alpha  occ. eigenvalues --   -0.45255  -0.44836  -0.44472  -0.44257  -0.43846
 Alpha  occ. eigenvalues --   -0.43777  -0.43479  -0.43209  -0.42488  -0.42455
 Alpha  occ. eigenvalues --   -0.42184  -0.41562  -0.41305  -0.40992  -0.40745
 Alpha  occ. eigenvalues --   -0.40597  -0.40154  -0.39783  -0.39590  -0.39150
 Alpha  occ. eigenvalues --   -0.39066  -0.38965  -0.38776  -0.38407  -0.38308
 Alpha  occ. eigenvalues --   -0.38118  -0.37699  -0.37347  -0.37064  -0.36332
 Alpha  occ. eigenvalues --   -0.36226  -0.35531  -0.34725  -0.34486  -0.34086
 Alpha  occ. eigenvalues --   -0.33058  -0.32964  -0.31793  -0.31350  -0.31226
 Alpha  occ. eigenvalues --   -0.28570  -0.28270  -0.25185  -0.19137
 Alpha virt. eigenvalues --   -0.06658   0.00036   0.03591   0.05467   0.06553
 Alpha virt. eigenvalues --    0.07186   0.09308   0.09794   0.11386   0.12210
 Alpha virt. eigenvalues --    0.12483   0.13068   0.13481   0.13799   0.14364

 Mulliken charges:
               1
     1  O   -0.509668
     2  O   -0.513226
     3  O   -0.539984
     4  O   -0.579876
     5  C    0.179984
     6  C    0.231928
     7  C    0.055827
     8  C   -0.246637
     9  C   -0.193440
    10  C    0.146162
    11  C   -0.316405
    12  C   -0.093854
    13  C   -0.323770
    14  C   -0.319582
    15  C   -0.070828
    16  C    0.090695
    17  C   -0.377854
    18  C   -0.122610
    19  C   -0.099715
    20  C    0.029691
    21  C    0.235314
    22  C   -0.153633
    23  C    0.172106
    24  C   -0.176066
    25  C   -0.003716
    26  C   -0.300787
    27  C   -0.297799
    28  C   -0.281619
    29  C   -0.093753
    30  C    0.090095
    31  C    0.099068
    32  C   -0.267086
    33  C   -0.376287
    34  C   -0.092221
    35  C    0.101045
    36  C   -0.359029
    37  C   -0.120408
    38  C   -0.089418
    39  C   -0.103423
    40  C   -0.077867
    41  C   -0.109464
    42  C   -0.106736
    43  C    0.105739
    44  C   -0.334698
    45  H    0.075295
    46  H    0.138917
    47  H    0.103997
    48  H    0.105382
    49  H    0.098711
    50  H    0.073596
    51  H    0.118080
    52  H    0.128559
    53  H    0.097061
    54  H    0.099562
    55  H    0.108926
    56  H    0.094768
    57  H    0.115752
    58  H    0.100805
    59  H    0.114531
    60  H    0.297994
    61  H    0.068848
    62  H    0.127802
    63  H    0.131972
    64  H    0.109510
    65  H    0.076660
    66  H    0.098807
    67  H    0.085311
    68  H    0.101597
    69  H    0.070470
    70  H    0.087803
    71  H    0.085257
    72  H    0.099923
    73  H    0.081745
    74  H    0.091178
    75  H    0.118743
    76  H    0.111964
    77  H    0.072915
    78  H    0.119597
    79  H    0.058233
    80  H    0.119016
    81  H    0.080949
    82  H    0.283481
    83  H    0.327343
    84  H    0.099076
    85  H    0.139059
    86  H    0.078544
    87  H    0.096936
    88  H    0.063490
    89  H    0.095717
    90  H    0.131696
    91  H    0.125884
    92  H    0.056817
    93  H    0.093617
    94  H    0.101141
    95  H    0.088151
    96  H    0.096286
    97  H    0.076120
    98  H    0.108493
    99  H    0.082613
   100  H    0.099103
 Sum of Mulliken charges =  -0.00000

 Dipole moment (field-independent basis, Debye):
    X=              2.1880    Y=             -0.9091    Z=              1.0553  Tot=              2.5937
 Quadrupole moment (field-independent basis, Debye-Ang):
   XX=           -233.2660   YY=           -258.6632   ZZ=           -279.6983
   XY=              1.3373   XZ=             29.0153   YZ=             -0.9747

 Normal termination of Gaussian 16 at Tue Jul 30 14:02:50 2019.
