 Gaussian 16, Revision A.03,
 Gaussian 16:  ES64L-G16RevA.03 25-Dec-2016

 -------------------------------------
 # td=(NStates=1) CAM-B3LYP/6-31G(d,p)
 -------------------------------------

 --
 TD
 --
 Symbolic Z-matrix:
 Charge =  0 Multiplicity = 1

                         Standard orientation:
 ---------------------------------------------------------------------
 Center     Atomic      Atomic             Coordinates (Angstroms)
 Number     Number       Type             X           Y           Z
 ---------------------------------------------------------------------
      1          8           0      -11.733090    0.571051   -1.252639
      2          8           0      -12.822203   -2.668278    0.897209
      3          8           0       10.605435   -0.722494   -2.093795
      4          8           0       14.461458   -0.984009   -0.058729
      5          6           0      -11.085288   -0.136621   -0.143737
      6          6           0      -11.809713   -0.828837   -1.341218
      7          6           0      -11.765380    0.106179    1.256170
      8          6           0      -13.068195   -1.474445   -1.089907
      9          6           0      -13.247605   -0.344379    1.125928
     10          6           0      -13.541501   -1.672029    0.340889
     11          6           0      -10.817982   -1.319519   -2.444888
     12          6           0       -9.640384    0.191769   -0.233800
     13          6           0      -11.010968   -0.762479    2.302349
     14          6           0      -11.692394    1.608667    1.608196
     15          6           0       -8.600846   -0.723757   -0.074785
     16          6           0       -7.145627   -0.541400   -0.057003
     17          6           0       -6.318388   -1.707791   -0.015708
     18          6           0       -6.547786    0.700623   -0.002449
     19          6           0       -5.163603    0.979830   -0.003294
     20          6           0       11.815558   -0.134287    1.394003
     21          6           0       11.681042   -0.450383   -1.221647
     22          6           0       12.558597   -1.477787    1.479406
     23          6           0       13.325404   -1.850808    0.192651
     24          6           0       12.447090   -1.775749   -1.030913
     25          6           0       11.034888    0.001979    0.036787
     26          6           0       10.844287   -0.192721    2.641284
     27          6           0       12.954542    0.985734    1.588969
     28          6           0       12.452469    0.729866   -2.008285
     29          6           0       -4.682131    2.291204   -0.176708
     30          6           0        9.824903    0.544515   -0.010336
     31          6           0       -3.260248    2.615785   -0.254137
     32          6           0        8.632555    1.020431    0.021722
     33          6           0       -2.974515    4.024950   -0.300806
     34          6           0       -2.388258    1.612797   -0.441928
     35          6           0        7.461256    0.055650    0.056550
     36          6           0        7.609908   -1.394596    0.089844
     37          6           0        6.220188    0.771638    0.103014
     38          6           0       -0.960114    1.939503   -0.375678
     39          6           0        4.979402    0.151451   -0.075909
     40          6           0        0.065848    0.972435   -0.450229
     41          6           0        3.794037    0.820130   -0.157939
     42          6           0        1.413262    1.195052   -0.273479
     43          6           0        2.500551    0.291324   -0.241087
     44          6           0        2.251582   -1.198169   -0.125948
     45          1           0      -12.945247   -2.489321   -1.661079
     46          1           0      -13.651659   -0.987612   -1.896946
     47          1           0      -13.563129   -0.188006    2.176395
     48          1           0      -13.914745    0.392803    0.763846
     49          1           0      -14.514518   -1.923007    0.521795
     50          1           0      -10.395846   -2.209491   -1.993528
     51          1           0      -11.412918   -1.743981   -3.393464
     52          1           0      -10.069719   -0.423999   -2.746479
     53          1           0       -9.372565    1.296552   -0.339379
     54          1           0       -9.869549   -0.480391    2.312152
     55          1           0      -11.761259   -0.642291    3.169028
     56          1           0      -10.931907   -1.735494    2.029641
     57          1           0      -11.893918    2.264016    0.663348
     58          1           0      -12.408744    1.761439    2.454764
     59          1           0      -10.782220    1.832348    1.938485
     60          1           0      -11.918268   -2.489695    0.748251
     61          1           0       -8.850898   -1.871144    0.012320
     62          1           0       -5.710534   -1.846793   -0.891579
     63          1           0       -5.664413   -1.644942    0.907479
     64          1           0       -6.981616   -2.681198    0.021918
     65          1           0       -7.336945    1.439252   -0.116043
     66          1           0       -4.443922    0.173479    0.063143
     67          1           0       13.180954   -1.352822    2.227271
     68          1           0       11.924592   -2.317930    1.642773
     69          1           0       13.735403   -2.928835    0.243207
     70          1           0       13.008676   -2.038044   -2.023926
     71          1           0       11.536603   -2.504319   -0.987138
     72          1           0       11.445086   -0.405191    3.531079
     73          1           0       10.264672    0.770829    2.906602
     74          1           0       10.205178   -0.995862    2.449316
     75          1           0       13.605935    1.094487    0.761625
     76          1           0       12.347021    1.879936    1.668497
     77          1           0       13.433603    0.820543    2.506247
     78          1           0       12.783625    0.121738   -2.871950
     79          1           0       11.880117    1.670653   -2.373055
     80          1           0       13.245048    0.995257   -1.162438
     81          1           0       -5.292247    3.017372   -0.302565
     82          1           0       10.217507    0.176132   -2.375942
     83          1           0       14.939836   -0.633028    0.915260
     84          1           0        8.468433    2.053573   -0.220004
     85          1           0       -2.085271    4.105838    0.438616
     86          1           0       -2.477294    4.305497   -1.178958
     87          1           0       -3.842465    4.622411    0.036871
     88          1           0       -2.541626    0.585359   -0.248000
     89          1           0        6.657273   -2.001098   -0.099647
     90          1           0        8.272610   -1.584155   -0.653281
     91          1           0        7.886548   -1.729220    1.111853
     92          1           0        6.136797    1.860074    0.162081
     93          1           0       -0.697794    2.886727   -0.078407
     94          1           0        5.000307   -1.000576   -0.103095
     95          1           0       -0.203762   -0.078268   -0.430745
     96          1           0        3.951249    1.919075    0.035700
     97          1           0        1.695101    2.427999   -0.320174
     98          1           0        1.187134   -1.576312   -0.249008
     99          1           0        3.071398   -1.768952   -0.722260
    100          1           0        2.482832   -1.526106    0.967491
 ---------------------------------------------------------------------

 SCF Done:  E(RCAM-B3LYP) =  -1857.36530019     A.U. after   15 cycles

 Excitation energies and oscillator strengths:

 Excited State   1:      Singlet-A      2.2047 eV  562.36 nm  f=3.0138  <S**2>=0.000
     163 ->166         0.14630
     164 ->165         0.68835
 This state for optimization and/or second-order correction.
 Total Energy, E(TD-HF/TD-DFT) =  -1857.28427840
 Copying the excited state density for this state as the 1-particle RhoCI density.

 The electronic state is 1-A.
 Alpha  occ. eigenvalues --  -19.22812 -19.21249 -19.20916 -19.20574 -10.32477
 Alpha  occ. eigenvalues --  -10.31822 -10.31709 -10.31224 -10.30971 -10.28812
 Alpha  occ. eigenvalues --  -10.28498 -10.27948 -10.27839 -10.27678 -10.27443
 Alpha  occ. eigenvalues --  -10.27372 -10.27205 -10.27087 -10.26981 -10.26694
 Alpha  occ. eigenvalues --  -10.26690 -10.26684 -10.26616 -10.26562 -10.26472
 Alpha  occ. eigenvalues --  -10.26324 -10.26213 -10.25942 -10.25891 -10.25878
 Alpha  occ. eigenvalues --  -10.25873 -10.25826 -10.25736 -10.25644 -10.25566
 Alpha  occ. eigenvalues --  -10.25389 -10.25282 -10.25234 -10.25231 -10.25115
 Alpha  occ. eigenvalues --  -10.24678 -10.24508 -10.24488 -10.24448  -1.14489
 Alpha  occ. eigenvalues --   -1.13101  -1.09483  -1.06827  -0.92731  -0.92330
 Alpha  occ. eigenvalues --   -0.91466  -0.91175  -0.90143  -0.89951  -0.87287
 Alpha  occ. eigenvalues --   -0.86898  -0.85316  -0.85074  -0.84352  -0.82813
 Alpha  occ. eigenvalues --   -0.82165  -0.80585  -0.80420  -0.78612  -0.77518
 Alpha  occ. eigenvalues --   -0.76596  -0.76524  -0.76395  -0.76287  -0.75839
 Alpha  occ. eigenvalues --   -0.75529  -0.73921  -0.72557  -0.71780  -0.69655
 Alpha  occ. eigenvalues --   -0.68578  -0.67474  -0.65283  -0.64760  -0.63417
 Alpha  occ. eigenvalues --   -0.63159  -0.61425  -0.60761  -0.60497  -0.60028
 Alpha  occ. eigenvalues --   -0.58882  -0.57844  -0.57596  -0.56976  -0.56220
 Alpha  occ. eigenvalues --   -0.55714  -0.55698  -0.55198  -0.54433  -0.53810
 Alpha  occ. eigenvalues --   -0.53367  -0.53011  -0.52629  -0.52480  -0.51854
 Alpha  occ. eigenvalues --   -0.51465  -0.51174  -0.50670  -0.50413  -0.49722
 Alpha  occ. eigenvalues --   -0.49639  -0.49461  -0.49372  -0.49255  -0.49066
 Alpha  occ. eigenvalues --   -0.48536  -0.48223  -0.47686  -0.47087  -0.46716
 Alpha  occ. eigenvalues --   -0.46617  -0.46440  -0.45941  -0.45643  -0.45453
 Alpha  occ. eigenvalues --   -0.45249  -0.45119  -0.44910  -0.44593  -0.44067
 Alpha  occ. eigenvalues --   -0.43855  -0.43514  -0.43355  -0.43033  -0.42630
 Alpha  occ. eigenvalues --   -0.42310  -0.42293  -0.41956  -0.41821  -0.41470
 Alpha  occ. eigenvalues --   -0.41120  -0.40862  -0.40665  -0.40128  -0.39885
 Alpha  occ. eigenvalues --   -0.39564  -0.39138  -0.38841  -0.38773  -0.38738
 Alpha  occ. eigenvalues --   -0.38444  -0.38028  -0.37784  -0.37582  -0.37267
 Alpha  occ. eigenvalues --   -0.36522  -0.36291  -0.34932  -0.33885  -0.33420
 Alpha  occ. eigenvalues --   -0.32531  -0.31799  -0.31367  -0.31103  -0.30528
 Alpha  occ. eigenvalues --   -0.28890  -0.27491  -0.23677  -0.19279
 Alpha virt. eigenvalues --   -0.05407  -0.00990   0.03692   0.06393   0.07004
 Alpha virt. eigenvalues --    0.07707   0.10386   0.10695   0.11868   0.11896
 Alpha virt. eigenvalues --    0.12301   0.12581   0.12771   0.13562   0.13899

 Mulliken charges:
               1
     1  O   -0.512171
     2  O   -0.513371
     3  O   -0.568631
     4  O   -0.564764
     5  C    0.136786
     6  C    0.261876
     7  C    0.004270
     8  C   -0.217619
     9  C   -0.198780
    10  C    0.161554
    11  C   -0.314669
    12  C   -0.108838
    13  C   -0.289268
    14  C   -0.306284
    15  C   -0.094888
    16  C    0.100248
    17  C   -0.389628
    18  C   -0.096633
    19  C   -0.075655
    20  C    0.002240
    21  C    0.235510
    22  C   -0.174079
    23  C    0.167179
    24  C   -0.192607
    25  C   -0.061228
    26  C   -0.305477
    27  C   -0.330814
    28  C   -0.300002
    29  C   -0.090594
    30  C    0.183655
    31  C    0.101367
    32  C   -0.299193
    33  C   -0.382299
    34  C   -0.101323
    35  C    0.072491
    36  C   -0.368062
    37  C   -0.102309
    38  C   -0.102366
    39  C   -0.070720
    40  C   -0.086259
    41  C   -0.125161
    42  C   -0.122200
    43  C    0.123618
    44  C   -0.374544
    45  H    0.098585
    46  H    0.124135
    47  H    0.081592
    48  H    0.106124
    49  H    0.104539
    50  H    0.113562
    51  H    0.082628
    52  H    0.132060
    53  H    0.105756
    54  H    0.106144
    55  H    0.100652
    56  H    0.096567
    57  H    0.120094
    58  H    0.092300
    59  H    0.116192
    60  H    0.300703
    61  H    0.062443
    62  H    0.134007
    63  H    0.123765
    64  H    0.086882
    65  H    0.067622
    66  H    0.087346
    67  H    0.088529
    68  H    0.102480
    69  H    0.076616
    70  H    0.108293
    71  H    0.117573
    72  H    0.092796
    73  H    0.099312
    74  H    0.116777
    75  H    0.124435
    76  H    0.108934
    77  H    0.099061
    78  H    0.120310
    79  H    0.088032
    80  H    0.106553
    81  H    0.062686
    82  H    0.311230
    83  H    0.304348
    84  H    0.111757
    85  H    0.114329
    86  H    0.147306
    87  H    0.115411
    88  H    0.088503
    89  H    0.105524
    90  H    0.152202
    91  H    0.128077
    92  H    0.077002
    93  H    0.071738
    94  H    0.064379
    95  H    0.066867
    96  H    0.078567
    97  H    0.052750
    98  H    0.114420
    99  H    0.111990
   100  H    0.117160
 Sum of Mulliken charges =  -0.00000

 Dipole moment (field-independent basis, Debye):
    X=              2.5893    Y=              0.1339    Z=              2.1440  Tot=              3.3644
 Quadrupole moment (field-independent basis, Debye-Ang):
   XX=           -266.1920   YY=           -261.0408   ZZ=           -275.0921
   XY=              1.1204   XZ=             30.7706   YZ=              0.5305

 Normal termination of Gaussian 16 at Wed Jul 31 12:31:54 2019.
