 Gaussian 16, Revision A.03,
 Gaussian 16:  ES64L-G16RevA.03 25-Dec-2016

 -------------------------------------
 # td=(NStates=1) CAM-B3LYP/6-31G(d,p)
 -------------------------------------

 --
 TD
 --
 Symbolic Z-matrix:
 Charge =  0 Multiplicity = 1

                         Standard orientation:
 ---------------------------------------------------------------------
 Center     Atomic      Atomic             Coordinates (Angstroms)
 Number     Number       Type             X           Y           Z
 ---------------------------------------------------------------------
      1          8           0      -11.812914    0.281562   -1.383092
      2          8           0      -13.076600   -2.456543    1.344295
      3          8           0       10.669246   -1.169814   -2.082434
      4          8           0       14.497781   -1.029671    0.040290
      5          6           0      -11.098806   -0.067607   -0.152690
      6          6           0      -11.566136   -1.080818   -1.260611
      7          6           0      -11.947495    0.338470    1.003496
      8          6           0      -12.924257   -1.856148   -0.959053
      9          6           0      -13.359256   -0.118383    0.844755
     10          6           0      -13.629230   -1.563348    0.383895
     11          6           0      -10.760524   -1.896383   -2.232147
     12          6           0       -9.562802    0.122526   -0.230562
     13          6           0      -11.278880   -0.165172    2.304684
     14          6           0      -11.829381    1.812241    1.091260
     15          6           0       -8.694315   -0.694707    0.198484
     16          6           0       -7.219287   -0.631868    0.133995
     17          6           0       -6.315878   -1.855412    0.411895
     18          6           0       -6.603097    0.610593   -0.091676
     19          6           0       -5.222483    0.781686   -0.136582
     20          6           0       11.949056    0.079623    1.331809
     21          6           0       11.638457   -0.666861   -1.190834
     22          6           0       12.633765   -1.376208    1.565138
     23          6           0       13.369256   -1.796756    0.353129
     24          6           0       12.523532   -1.976467   -0.813293
     25          6           0       11.134882    0.000615    0.093736
     26          6           0       10.993221    0.259441    2.480090
     27          6           0       12.942002    1.289887    1.339422
     28          6           0       12.600144    0.293275   -2.059918
     29          6           0       -4.688183    2.130318   -0.494398
     30          6           0        9.959326    0.548948   -0.096693
     31          6           0       -3.281377    2.518079   -0.469453
     32          6           0        8.714581    0.929514   -0.249944
     33          6           0       -3.062785    4.037400   -0.649019
     34          6           0       -2.293565    1.578342   -0.439831
     35          6           0        7.470146    0.174220    0.049314
     36          6           0        7.696265   -1.208145    0.374864
     37          6           0        6.246911    0.765395   -0.241761
     38          6           0       -0.931792    1.920287   -0.371406
     39          6           0        4.949192    0.206936   -0.211343
     40          6           0        0.038253    0.970304   -0.195435
     41          6           0        3.794360    0.917820   -0.186516
     42          6           0        1.391265    1.353191   -0.184149
     43          6           0        2.528498    0.439514   -0.082275
     44          6           0        2.217924   -1.059885    0.188553
     45          1           0      -12.931490   -2.995928   -1.079053
     46          1           0      -13.671845   -1.340718   -1.801928
     47          1           0      -13.871410   -0.085631    1.799983
     48          1           0      -14.041994    0.592396    0.229249
     49          1           0      -14.564076   -1.663484    0.374348
     50          1           0      -10.363951   -2.748662   -2.082046
     51          1           0      -11.404860   -2.123729   -3.002219
     52          1           0       -9.842450   -1.188085   -2.799685
     53          1           0       -9.216164    1.009846   -0.876427
     54          1           0      -10.354271    0.632743    2.418729
     55          1           0      -12.080766   -0.116583    3.173707
     56          1           0      -11.205503   -1.275107    2.336546
     57          1           0      -12.269113    2.481274    0.197602
     58          1           0      -12.217929    2.069029    2.100885
     59          1           0      -10.748871    2.287071    1.308395
     60          1           0      -12.143648   -2.628463    1.115093
     61          1           0       -8.946289   -1.554937    0.763692
     62          1           0       -5.970521   -2.013840   -0.676790
     63          1           0       -5.581538   -1.608787    1.261374
     64          1           0       -7.182451   -2.509391    0.514251
     65          1           0       -7.152621    1.403403   -0.300001
     66          1           0       -4.514218    0.043895    0.112678
     67          1           0       13.413500   -1.074791    2.441622
     68          1           0       11.990389   -2.159776    1.795116
     69          1           0       13.791377   -2.763494    0.717923
     70          1           0       13.138522   -2.462684   -1.689968
     71          1           0       11.625483   -2.689994   -0.589651
     72          1           0       11.550413    0.559443    3.485687
     73          1           0       10.457074    1.195341    2.568391
     74          1           0       10.218140   -0.622618    2.488575
     75          1           0       13.927892    1.099430    0.750122
     76          1           0       12.359259    2.295376    0.962200
     77          1           0       13.312580    1.310771    2.485582
     78          1           0       12.799371   -0.304388   -2.915255
     79          1           0       12.185681    1.280670   -2.306251
     80          1           0       13.529942    0.504139   -1.413368
     81          1           0       -5.521512    2.745468   -0.576363
     82          1           0       10.073203   -0.566732   -2.160805
     83          1           0       15.159796   -1.090219    0.743120
     84          1           0        8.544922    2.008331   -0.748674
     85          1           0       -2.766920    4.662810    0.504140
     86          1           0       -2.247341    4.008305   -1.281603
     87          1           0       -3.900491    4.625633   -1.121446
     88          1           0       -2.409603    0.484318   -0.316505
     89          1           0        6.728020   -1.805895    0.648365
     90          1           0        8.399511   -1.732677   -0.270041
     91          1           0        8.327322   -1.328498    1.276247
     92          1           0        6.216150    1.859534   -0.479602
     93          1           0       -0.660025    2.932337   -0.313386
     94          1           0        4.852801   -0.841372    0.168401
     95          1           0       -0.181948   -0.116019   -0.347980
     96          1           0        3.755206    2.043897   -0.488118
     97          1           0        1.537431    2.305426   -0.346102
     98          1           0        1.168912   -1.276075    0.479226
     99          1           0        2.506726   -1.685855   -0.670415
    100          1           0        3.045034   -1.457471    1.186373
 ---------------------------------------------------------------------

 SCF Done:  E(RCAM-B3LYP) =  -1857.24493423     A.U. after   15 cycles

 Excitation energies and oscillator strengths:

 Excited State   1:      Singlet-A      2.0895 eV  593.37 nm  f=3.0760  <S**2>=0.000
     163 ->166        -0.13668
     164 ->165         0.69578
 This state for optimization and/or second-order correction.
 Total Energy, E(TD-HF/TD-DFT) =  -1857.16814638
 Copying the excited state density for this state as the 1-particle RhoCI density.

 The electronic state is 1-A.
 Alpha  occ. eigenvalues --  -19.22944 -19.21844 -19.21125 -19.20222 -10.33520
 Alpha  occ. eigenvalues --  -10.32398 -10.32325 -10.30291 -10.29472 -10.28438
 Alpha  occ. eigenvalues --  -10.28354 -10.28259 -10.28047 -10.27859 -10.27818
 Alpha  occ. eigenvalues --  -10.27784 -10.27770 -10.27672 -10.27594 -10.27455
 Alpha  occ. eigenvalues --  -10.27310 -10.27113 -10.26841 -10.26797 -10.26702
 Alpha  occ. eigenvalues --  -10.26667 -10.26645 -10.26477 -10.26445 -10.26426
 Alpha  occ. eigenvalues --  -10.26346 -10.26298 -10.26285 -10.26272 -10.26075
 Alpha  occ. eigenvalues --  -10.26024 -10.25861 -10.25855 -10.25718 -10.25682
 Alpha  occ. eigenvalues --  -10.25482 -10.25063 -10.24722 -10.23509  -1.15665
 Alpha  occ. eigenvalues --   -1.12563  -1.11049  -1.09622  -0.93420  -0.92455
 Alpha  occ. eigenvalues --   -0.92231  -0.91549  -0.91064  -0.89990  -0.87634
 Alpha  occ. eigenvalues --   -0.86409  -0.86043  -0.85793  -0.84877  -0.83157
 Alpha  occ. eigenvalues --   -0.82580  -0.81607  -0.80220  -0.78284  -0.76378
 Alpha  occ. eigenvalues --   -0.76003  -0.75831  -0.75786  -0.75096  -0.74548
 Alpha  occ. eigenvalues --   -0.74208  -0.74066  -0.72830  -0.70904  -0.69860
 Alpha  occ. eigenvalues --   -0.68799  -0.67539  -0.65799  -0.65430  -0.64686
 Alpha  occ. eigenvalues --   -0.63918  -0.62644  -0.61720  -0.60340  -0.59596
 Alpha  occ. eigenvalues --   -0.59539  -0.59284  -0.58593  -0.57640  -0.56771
 Alpha  occ. eigenvalues --   -0.55959  -0.55563  -0.54786  -0.54387  -0.54202
 Alpha  occ. eigenvalues --   -0.54029  -0.53028  -0.52747  -0.52580  -0.51786
 Alpha  occ. eigenvalues --   -0.51147  -0.50999  -0.50418  -0.50036  -0.49737
 Alpha  occ. eigenvalues --   -0.49526  -0.49229  -0.48823  -0.48368  -0.48168
 Alpha  occ. eigenvalues --   -0.47531  -0.47330  -0.47256  -0.46808  -0.46689
 Alpha  occ. eigenvalues --   -0.46515  -0.46048  -0.45780  -0.45727  -0.45204
 Alpha  occ. eigenvalues --   -0.45085  -0.44874  -0.44593  -0.44119  -0.43800
 Alpha  occ. eigenvalues --   -0.43365  -0.43023  -0.42769  -0.42652  -0.42169
 Alpha  occ. eigenvalues --   -0.41740  -0.41703  -0.41511  -0.41193  -0.41100
 Alpha  occ. eigenvalues --   -0.40914  -0.40480  -0.40198  -0.39944  -0.39844
 Alpha  occ. eigenvalues --   -0.39669  -0.39599  -0.39096  -0.38692  -0.38430
 Alpha  occ. eigenvalues --   -0.38297  -0.38265  -0.37991  -0.37301  -0.37060
 Alpha  occ. eigenvalues --   -0.36563  -0.36442  -0.35408  -0.34534  -0.33358
 Alpha  occ. eigenvalues --   -0.32764  -0.32488  -0.32102  -0.31419  -0.30509
 Alpha  occ. eigenvalues --   -0.28946  -0.28273  -0.23961  -0.19276
 Alpha virt. eigenvalues --   -0.06255  -0.01047   0.03847   0.05776   0.07040
 Alpha virt. eigenvalues --    0.09336   0.09808   0.10447   0.10771   0.11805
 Alpha virt. eigenvalues --    0.12035   0.12543   0.13082   0.13418   0.13626

 Mulliken charges:
               1
     1  O   -0.502264
     2  O   -0.557549
     3  O   -0.520804
     4  O   -0.543131
     5  C    0.186074
     6  C    0.283097
     7  C    0.042336
     8  C   -0.237212
     9  C   -0.193250
    10  C    0.197145
    11  C   -0.332383
    12  C   -0.139934
    13  C   -0.295423
    14  C   -0.316097
    15  C   -0.018084
    16  C   -0.004329
    17  C   -0.348974
    18  C   -0.065300
    19  C   -0.069148
    20  C    0.023871
    21  C    0.222523
    22  C   -0.173513
    23  C    0.170238
    24  C   -0.190248
    25  C   -0.044208
    26  C   -0.295365
    27  C   -0.297269
    28  C   -0.309674
    29  C   -0.139419
    30  C    0.152137
    31  C    0.074245
    32  C   -0.314800
    33  C   -0.341288
    34  C   -0.103918
    35  C    0.161598
    36  C   -0.399963
    37  C   -0.116901
    38  C   -0.079903
    39  C   -0.106154
    40  C   -0.091877
    41  C   -0.095492
    42  C   -0.108552
    43  C    0.112556
    44  C   -0.352777
    45  H    0.095990
    46  H    0.084171
    47  H    0.101920
    48  H    0.092102
    49  H    0.095332
    50  H    0.126648
    51  H    0.127533
    52  H    0.080824
    53  H    0.100721
    54  H    0.101769
    55  H    0.094973
    56  H    0.091207
    57  H    0.110078
    58  H    0.106866
    59  H    0.087112
    60  H    0.307796
    61  H    0.071092
    62  H    0.134909
    63  H    0.137643
    64  H    0.106021
    65  H    0.065912
    66  H    0.078866
    67  H    0.065852
    68  H    0.111293
    69  H    0.068166
    70  H    0.106255
    71  H    0.102426
    72  H    0.072750
    73  H    0.113488
    74  H    0.095717
    75  H    0.123846
    76  H    0.100237
    77  H    0.076657
    78  H    0.118503
    79  H    0.087727
    80  H    0.119543
    81  H    0.079914
    82  H    0.278682
    83  H    0.308460
    84  H    0.094268
    85  H    0.076590
    86  H    0.133625
    87  H    0.121366
    88  H    0.088390
    89  H    0.099123
    90  H    0.138382
    91  H    0.115681
    92  H    0.078509
    93  H    0.089366
    94  H    0.077896
    95  H    0.084848
    96  H    0.073683
    97  H    0.068927
    98  H    0.115268
    99  H    0.130960
   100  H    0.063500
 Sum of Mulliken charges =  -0.00000

 Dipole moment (field-independent basis, Debye):
    X=              0.9031    Y=             -0.5635    Z=              1.5811  Tot=              1.9061
 Quadrupole moment (field-independent basis, Debye-Ang):
   XX=           -268.1608   YY=           -259.7219   ZZ=           -279.8942
   XY=              0.6522   XZ=             36.0676   YZ=             -1.3115

 Normal termination of Gaussian 16 at Tue Jul 30 16:09:00 2019.
