 Gaussian 16, Revision A.03,
 Gaussian 16:  ES64L-G16RevA.03 25-Dec-2016

 -------------------------------------
 # td=(NStates=1) CAM-B3LYP/6-31G(d,p)
 -------------------------------------

 --
 TD
 --
 Symbolic Z-matrix:
 Charge =  0 Multiplicity = 1

                         Standard orientation:
 ---------------------------------------------------------------------
 Center     Atomic      Atomic             Coordinates (Angstroms)
 Number     Number       Type             X           Y           Z
 ---------------------------------------------------------------------
      1          8           0      -11.682559    0.266537   -1.563657
      2          8           0      -13.146845   -2.420509    1.415339
      3          8           0       10.703746   -1.054753   -2.140184
      4          8           0       14.560216   -0.803684   -0.249225
      5          6           0      -11.092230   -0.079065   -0.430368
      6          6           0      -11.699675   -1.108509   -1.255697
      7          6           0      -11.811478    0.401062    0.849189
      8          6           0      -13.026980   -1.818610   -1.029699
      9          6           0      -13.267990   -0.052558    0.834998
     10          6           0      -13.521119   -1.523874    0.342175
     11          6           0      -10.729746   -1.914549   -2.122761
     12          6           0       -9.622973    0.197267   -0.401680
     13          6           0      -11.139626   -0.051004    2.154832
     14          6           0      -11.764917    1.913588    0.923131
     15          6           0       -8.641578   -0.574220    0.146295
     16          6           0       -7.270296   -0.434521    0.206651
     17          6           0       -6.474978   -1.681746    0.636930
     18          6           0       -6.607647    0.650704   -0.193687
     19          6           0       -5.235368    0.952509   -0.209768
     20          6           0       11.920837    0.110976    1.359934
     21          6           0       11.699636   -0.518109   -1.301951
     22          6           0       12.731541   -1.277226    1.405234
     23          6           0       13.507616   -1.689285    0.129393
     24          6           0       12.462023   -1.747543   -1.098971
     25          6           0       11.090155    0.032022    0.034626
     26          6           0       11.041386    0.133424    2.627917
     27          6           0       12.856924    1.350236    1.284419
     28          6           0       12.385204    0.641211   -2.004179
     29          6           0       -4.708642    2.180889   -0.397240
     30          6           0        9.850830    0.437669    0.047673
     31          6           0       -3.321425    2.469431   -0.441383
     32          6           0        8.666428    0.801159   -0.217912
     33          6           0       -2.939229    3.879397   -0.674933
     34          6           0       -2.263675    1.565545   -0.243798
     35          6           0        7.435287    0.048548   -0.016822
     36          6           0        7.590396   -1.612559    0.187345
     37          6           0        6.178841    0.620274    0.078350
     38          6           0       -0.893376    1.825109   -0.258402
     39          6           0        4.945098    0.044550    0.159812
     40          6           0        0.023575    0.743342   -0.137614
     41          6           0        3.740543    0.739788    0.115165
     42          6           0        1.330780    1.040645   -0.053913
     43          6           0        2.447525    0.100469    0.129870
     44          6           0        2.268893   -1.374281    0.458740
     45          1           0      -12.954137   -2.801054   -1.148120
     46          1           0      -13.981407   -1.434364   -1.722987
     47          1           0      -13.621921   -0.044670    1.864866
     48          1           0      -13.989746    0.588045    0.214955
     49          1           0      -14.698241   -1.433442    0.675806
     50          1           0      -10.181184   -2.854451   -1.750592
     51          1           0      -11.318407   -2.201794   -2.941592
     52          1           0       -9.934152   -1.222805   -2.327795
     53          1           0       -9.422777    1.017596   -0.925414
     54          1           0      -10.166750    0.297497    2.240773
     55          1           0      -11.405590    0.284797    3.256902
     56          1           0      -10.980263   -1.116215    2.079426
     57          1           0      -11.940724    2.498142   -0.026031
     58          1           0      -12.398630    2.117205    1.764003
     59          1           0      -10.690003    2.147820    1.038384
     60          1           0      -12.300401   -2.509097    1.301250
     61          1           0       -8.875807   -1.474401    0.632285
     62          1           0       -5.929618   -2.252863   -0.317969
     63          1           0       -5.688830   -1.413596    1.277160
     64          1           0       -7.061170   -2.353123    1.119654
     65          1           0       -7.209105    1.457752   -0.424357
     66          1           0       -4.550061    0.087914   -0.065379
     67          1           0       13.475959   -1.270968    2.368441
     68          1           0       12.166678   -1.990831    1.676853
     69          1           0       13.925447   -2.594520    0.377718
     70          1           0       13.276881   -1.966455   -1.944564
     71          1           0       11.837421   -2.465973   -0.894518
     72          1           0       11.403203   -0.141255    3.715815
     73          1           0       10.391630    1.122408    2.758240
     74          1           0       10.392847   -0.704899    2.490391
     75          1           0       13.756374    1.260889    0.599071
     76          1           0       12.125340    2.164722    1.094096
     77          1           0       13.197991    1.459855    2.372518
     78          1           0       12.745183    0.370381   -3.132535
     79          1           0       11.864371    1.763549   -1.977770
     80          1           0       13.382860    0.978679   -1.548605
     81          1           0       -5.369854    3.050834   -0.680190
     82          1           0       10.109640   -0.381879   -2.149103
     83          1           0       15.272430   -0.659408    0.473872
     84          1           0        8.393331    1.893315   -0.329047
     85          1           0       -2.135190    4.231954    0.041594
     86          1           0       -2.532246    4.087489   -1.631901
     87          1           0       -3.680600    4.794591   -0.423452
     88          1           0       -2.396866    0.534139   -0.361422
     89          1           0        6.644246   -2.025888    0.342607
     90          1           0        8.288434   -1.993203   -0.710080
     91          1           0        8.113573   -1.655380    1.236016
     92          1           0        6.253189    1.818638   -0.174015
     93          1           0       -0.487827    2.750596   -0.410330
     94          1           0        4.780317   -1.030250    0.233482
     95          1           0       -0.542275   -0.169200   -0.041761
     96          1           0        3.976317    1.785918    0.200819
     97          1           0        1.594199    2.029821   -0.322853
     98          1           0        1.135660   -1.352689    0.375011
     99          1           0        2.909465   -1.826465   -0.303649
    100          1           0        2.710933   -1.687073    1.434428
 ---------------------------------------------------------------------

 SCF Done:  E(RCAM-B3LYP) =  -1857.28968508     A.U. after   16 cycles

 Excitation energies and oscillator strengths:

 Excited State   1:      Singlet-A      1.9831 eV  625.22 nm  f=3.2006  <S**2>=0.000
     163 ->166        -0.12429
     164 ->165         0.70098
     164 <-165        -0.11220
 This state for optimization and/or second-order correction.
 Total Energy, E(TD-HF/TD-DFT) =  -1857.21680906
 Copying the excited state density for this state as the 1-particle RhoCI density.

 The electronic state is 1-A.
 Alpha  occ. eigenvalues --  -19.23477 -19.22215 -19.20585 -19.19957 -10.32440
 Alpha  occ. eigenvalues --  -10.32346 -10.31522 -10.31160 -10.30728 -10.29151
 Alpha  occ. eigenvalues --  -10.28742 -10.28577 -10.27605 -10.27405 -10.27255
 Alpha  occ. eigenvalues --  -10.27251 -10.27238 -10.27194 -10.27109 -10.26786
 Alpha  occ. eigenvalues --  -10.26686 -10.26598 -10.26497 -10.26476 -10.26454
 Alpha  occ. eigenvalues --  -10.26434 -10.26362 -10.26360 -10.26217 -10.26116
 Alpha  occ. eigenvalues --  -10.26084 -10.25990 -10.25963 -10.25812 -10.25755
 Alpha  occ. eigenvalues --  -10.25524 -10.25435 -10.25424 -10.25049 -10.24948
 Alpha  occ. eigenvalues --  -10.24795 -10.24539 -10.24359 -10.23908  -1.20897
 Alpha  occ. eigenvalues --   -1.12638  -1.11294  -1.08657  -0.93072  -0.92612
 Alpha  occ. eigenvalues --   -0.92288  -0.91282  -0.90761  -0.89933  -0.88252
 Alpha  occ. eigenvalues --   -0.87873  -0.86303  -0.85970  -0.84927  -0.83098
 Alpha  occ. eigenvalues --   -0.82494  -0.81039  -0.80166  -0.79183  -0.77099
 Alpha  occ. eigenvalues --   -0.76785  -0.76588  -0.75867  -0.75864  -0.75503
 Alpha  occ. eigenvalues --   -0.75310  -0.74975  -0.72664  -0.71254  -0.70247
 Alpha  occ. eigenvalues --   -0.69292  -0.67197  -0.66365  -0.65577  -0.64788
 Alpha  occ. eigenvalues --   -0.63991  -0.63104  -0.61613  -0.60516  -0.60308
 Alpha  occ. eigenvalues --   -0.59496  -0.59257  -0.58675  -0.58174  -0.57437
 Alpha  occ. eigenvalues --   -0.56530  -0.56306  -0.55569  -0.54821  -0.54595
 Alpha  occ. eigenvalues --   -0.54137  -0.53413  -0.52695  -0.52593  -0.52105
 Alpha  occ. eigenvalues --   -0.51344  -0.51114  -0.50423  -0.50083  -0.49795
 Alpha  occ. eigenvalues --   -0.49229  -0.49127  -0.48917  -0.48499  -0.48211
 Alpha  occ. eigenvalues --   -0.48113  -0.47892  -0.47508  -0.47366  -0.46974
 Alpha  occ. eigenvalues --   -0.46776  -0.46483  -0.46298  -0.45751  -0.45689
 Alpha  occ. eigenvalues --   -0.45322  -0.44731  -0.44586  -0.44247  -0.43769
 Alpha  occ. eigenvalues --   -0.43681  -0.43442  -0.43258  -0.42754  -0.42426
 Alpha  occ. eigenvalues --   -0.42239  -0.42051  -0.41981  -0.41797  -0.41645
 Alpha  occ. eigenvalues --   -0.40719  -0.40558  -0.40481  -0.40201  -0.39908
 Alpha  occ. eigenvalues --   -0.39783  -0.39668  -0.39423  -0.39118  -0.38868
 Alpha  occ. eigenvalues --   -0.38812  -0.38381  -0.37919  -0.37753  -0.37103
 Alpha  occ. eigenvalues --   -0.36424  -0.36133  -0.35584  -0.34884  -0.34103
 Alpha  occ. eigenvalues --   -0.33173  -0.32890  -0.32426  -0.31795  -0.30416
 Alpha  occ. eigenvalues --   -0.29947  -0.27932  -0.24687  -0.19058
 Alpha virt. eigenvalues --   -0.06824  -0.01067   0.02819   0.05954   0.07123
 Alpha virt. eigenvalues --    0.09801   0.10188   0.10566   0.12287   0.12467
 Alpha virt. eigenvalues --    0.12567   0.13090   0.13447   0.13932   0.14145

 Mulliken charges:
               1
     1  O   -0.471029
     2  O   -0.519479
     3  O   -0.529303
     4  O   -0.560199
     5  C    0.225392
     6  C    0.203583
     7  C    0.022087
     8  C   -0.194489
     9  C   -0.190604
    10  C    0.110166
    11  C   -0.329602
    12  C   -0.125252
    13  C   -0.310423
    14  C   -0.302201
    15  C   -0.051870
    16  C    0.086259
    17  C   -0.362668
    18  C   -0.108042
    19  C   -0.065934
    20  C    0.022126
    21  C    0.268971
    22  C   -0.187094
    23  C    0.152173
    24  C   -0.165302
    25  C   -0.077805
    26  C   -0.317464
    27  C   -0.297445
    28  C   -0.318797
    29  C   -0.113686
    30  C    0.193549
    31  C    0.103977
    32  C   -0.323971
    33  C   -0.397913
    34  C   -0.131814
    35  C    0.093813
    36  C   -0.355118
    37  C   -0.126729
    38  C   -0.069103
    39  C   -0.080930
    40  C   -0.074072
    41  C   -0.092040
    42  C   -0.119925
    43  C    0.039522
    44  C   -0.349633
    45  H    0.124287
    46  H    0.116463
    47  H    0.113082
    48  H    0.091102
    49  H    0.081259
    50  H    0.097623
    51  H    0.114791
    52  H    0.125774
    53  H    0.096779
    54  H    0.117563
    55  H    0.099006
    56  H    0.074816
    57  H    0.103337
    58  H    0.107236
    59  H    0.092352
    60  H    0.279515
    61  H    0.061115
    62  H    0.094450
    63  H    0.128213
    64  H    0.112125
    65  H    0.068645
    66  H    0.082415
    67  H    0.046788
    68  H    0.105501
    69  H    0.086123
    70  H    0.111499
    71  H    0.120173
    72  H    0.095170
    73  H    0.094669
    74  H    0.116565
    75  H    0.120121
    76  H    0.102405
    77  H    0.089296
    78  H    0.096424
    79  H    0.080303
    80  H    0.131660
    81  H    0.090374
    82  H    0.287683
    83  H    0.311891
    84  H    0.102344
    85  H    0.115338
    86  H    0.135430
    87  H    0.090795
    88  H    0.078535
    89  H    0.117080
    90  H    0.126429
    91  H    0.110346
    92  H    0.060800
    93  H    0.078334
    94  H    0.070300
    95  H    0.090638
    96  H    0.083336
    97  H    0.092310
    98  H    0.113839
    99  H    0.132518
   100  H    0.131354
 Sum of Mulliken charges =  -0.00000

 Dipole moment (field-independent basis, Debye):
    X=              3.6277    Y=             -0.2820    Z=              1.8108  Tot=              4.0643
 Quadrupole moment (field-independent basis, Debye-Ang):
   XX=           -283.4227   YY=           -260.6371   ZZ=           -279.0588
   XY=             -1.7992   XZ=             37.6544   YZ=             -2.6652

 Normal termination of Gaussian 16 at Tue Jul 30 16:58:47 2019.
