 Gaussian 16, Revision A.03,
 Gaussian 16:  ES64L-G16RevA.03 25-Dec-2016

 -------------------------------------
 # td=(NStates=1) CAM-B3LYP/6-31G(d,p)
 -------------------------------------

 --
 TD
 --
 Symbolic Z-matrix:
 Charge =  0 Multiplicity = 1

                         Standard orientation:
 ---------------------------------------------------------------------
 Center     Atomic      Atomic             Coordinates (Angstroms)
 Number     Number       Type             X           Y           Z
 ---------------------------------------------------------------------
      1          8           0      -11.744282    0.449849   -1.499387
      2          8           0      -13.036953   -2.510039    1.244100
      3          8           0       10.601870   -1.070153   -1.993115
      4          8           0       14.605609   -0.933099   -0.157330
      5          6           0      -11.029824   -0.192943   -0.253149
      6          6           0      -11.630247   -1.086227   -1.394526
      7          6           0      -11.744939    0.299389    0.955096
      8          6           0      -12.972290   -1.731824   -0.999247
      9          6           0      -13.213033   -0.083333    0.885661
     10          6           0      -13.557859   -1.518912    0.344734
     11          6           0      -10.720769   -1.713124   -2.311906
     12          6           0       -9.527026    0.013697   -0.324439
     13          6           0      -11.189609   -0.256502    2.298800
     14          6           0      -11.749240    1.839250    0.930997
     15          6           0       -8.691098   -0.842525    0.200226
     16          6           0       -7.240346   -0.545249    0.279322
     17          6           0       -6.402680   -1.735283    0.698663
     18          6           0       -6.621227    0.691834    0.007681
     19          6           0       -5.152072    0.848897   -0.168823
     20          6           0       12.001089   -0.063760    1.426695
     21          6           0       11.649415   -0.579405   -1.290162
     22          6           0       12.695985   -1.353330    1.497787
     23          6           0       13.452524   -1.750049    0.059112
     24          6           0       12.519211   -1.872287   -1.011563
     25          6           0       11.061261   -0.002667    0.078653
     26          6           0       11.041800    0.079801    2.540549
     27          6           0       12.935098    1.161026    1.458249
     28          6           0       12.513371    0.604385   -1.980045
     29          6           0       -4.752566    2.087753   -0.315018
     30          6           0        9.883829    0.559387    0.073259
     31          6           0       -3.423817    2.491298   -0.498249
     32          6           0        8.653259    0.896363   -0.184874
     33          6           0       -3.158220    3.951096   -0.647864
     34          6           0       -2.278145    1.639729   -0.208359
     35          6           0        7.482743    0.151203   -0.040681
     36          6           0        7.621245   -1.382174    0.057482
     37          6           0        6.179627    0.710206   -0.138499
     38          6           0       -0.958965    1.965618   -0.214436
     39          6           0        4.980259    0.059909   -0.158411
     40          6           0        0.129791    0.985359   -0.097634
     41          6           0        3.792607    0.841397   -0.071583
     42          6           0        1.407125    1.313369    0.033318
     43          6           0        2.453674    0.325732   -0.030359
     44          6           0        2.151176   -1.094765    0.045737
     45          1           0      -12.713526   -2.873643   -1.206317
     46          1           0      -13.635951   -1.367795   -1.725477
     47          1           0      -13.940802    0.260616    1.862360
     48          1           0      -13.869089    0.430889   -0.015127
     49          1           0      -14.590032   -1.797837    0.257030
     50          1           0      -10.279143   -2.737749   -1.844874
     51          1           0      -11.115149   -2.012602   -3.376752
     52          1           0       -9.854809   -1.155646   -2.479313
     53          1           0       -9.428023    0.927675   -1.155636
     54          1           0      -10.143413    0.139998    2.442490
     55          1           0      -11.895506    0.114482    3.034003
     56          1           0      -11.259156   -1.322262    2.333157
     57          1           0      -12.257100    2.109886   -0.040433
     58          1           0      -12.354607    2.204773    1.730402
     59          1           0      -10.807091    2.391407    1.057637
     60          1           0      -12.047155   -2.740771    1.333507
     61          1           0       -8.899659   -1.894195    0.669570
     62          1           0       -5.779070   -2.438621   -0.117428
     63          1           0       -5.667804   -1.458038    1.606833
     64          1           0       -7.280434   -2.442256    1.302812
     65          1           0       -7.353819    1.536090   -0.099920
     66          1           0       -4.665654   -0.145328    0.023325
     67          1           0       13.430023   -1.305477    2.559431
     68          1           0       12.091640   -2.225168    1.477821
     69          1           0       13.765686   -2.673897    0.250932
     70          1           0       13.032086   -2.070167   -1.822143
     71          1           0       11.769113   -2.649194   -0.922208
     72          1           0       11.473371   -0.083239    3.473612
     73          1           0       10.543553    1.094102    2.845856
     74          1           0       10.147736   -0.539082    2.402942
     75          1           0       13.990438    1.129155    0.772929
     76          1           0       12.370400    2.049060    1.224913
     77          1           0       13.156115    1.366791    2.509795
     78          1           0       12.779501    0.269823   -3.021680
     79          1           0       11.911627    1.445399   -2.052544
     80          1           0       13.307851    0.610038   -1.651893
     81          1           0       -5.578542    2.680666   -0.588441
     82          1           0       10.150950    0.004759   -2.127364
     83          1           0       15.018812   -0.744741    0.869390
     84          1           0        8.368949    2.035183   -0.395789
     85          1           0       -2.574564    4.477354    0.180002
     86          1           0       -2.694715    4.287557   -1.554557
     87          1           0       -4.139751    4.442001   -0.605217
     88          1           0       -2.356719    0.535454   -0.102209
     89          1           0        6.650636   -1.833601    0.110840
     90          1           0        8.390519   -1.956739   -0.607148
     91          1           0        7.951073   -1.571336    1.219427
     92          1           0        6.369016    1.893521   -0.145393
     93          1           0       -0.553242    2.928941   -0.206860
     94          1           0        4.797776   -1.000365    0.001134
     95          1           0       -0.492541    0.111858    0.340417
     96          1           0        3.843767    1.905744   -0.205801
     97          1           0        1.795877    2.408586   -0.080689
     98          1           0        0.978423   -1.373707    0.124142
     99          1           0        2.515832   -1.761259   -0.797407
    100          1           0        2.669664   -1.383591    0.984590
 ---------------------------------------------------------------------

 SCF Done:  E(RCAM-B3LYP) =  -1857.15043389     A.U. after   16 cycles

 Excitation energies and oscillator strengths:

 Excited State   1:      Singlet-A      1.7779 eV  697.35 nm  f=3.1086  <S**2>=0.000
     163 ->166         0.11390
     164 ->165         0.70825
     164 <-165        -0.14241
 This state for optimization and/or second-order correction.
 Total Energy, E(TD-HF/TD-DFT) =  -1857.08509578
 Copying the excited state density for this state as the 1-particle RhoCI density.

 The electronic state is 1-A.
 Alpha  occ. eigenvalues --  -19.22939 -19.22938 -19.20981 -19.19797 -10.32736
 Alpha  occ. eigenvalues --  -10.32386 -10.31723 -10.31014 -10.30109 -10.29563
 Alpha  occ. eigenvalues --  -10.28384 -10.28239 -10.27881 -10.27856 -10.27838
 Alpha  occ. eigenvalues --  -10.27833 -10.27703 -10.27677 -10.27636 -10.27545
 Alpha  occ. eigenvalues --  -10.27537 -10.27474 -10.27297 -10.27221 -10.27213
 Alpha  occ. eigenvalues --  -10.27161 -10.26993 -10.26976 -10.26924 -10.26847
 Alpha  occ. eigenvalues --  -10.26813 -10.26636 -10.26469 -10.26456 -10.25992
 Alpha  occ. eigenvalues --  -10.25957 -10.25873 -10.25607 -10.25315 -10.24709
 Alpha  occ. eigenvalues --  -10.24195 -10.24068 -10.23855 -10.22407  -1.10730
 Alpha  occ. eigenvalues --   -1.08162  -1.07845  -1.06681  -0.92784  -0.92527
 Alpha  occ. eigenvalues --   -0.92073  -0.91110  -0.90828  -0.89750  -0.88049
 Alpha  occ. eigenvalues --   -0.87107  -0.86903  -0.86183  -0.84665  -0.83176
 Alpha  occ. eigenvalues --   -0.82535  -0.81221  -0.80753  -0.79234  -0.76949
 Alpha  occ. eigenvalues --   -0.76651  -0.76243  -0.75809  -0.75548  -0.75037
 Alpha  occ. eigenvalues --   -0.74963  -0.73893  -0.72333  -0.70439  -0.69936
 Alpha  occ. eigenvalues --   -0.68870  -0.66665  -0.64540  -0.63970  -0.63783
 Alpha  occ. eigenvalues --   -0.63383  -0.61889  -0.61475  -0.60295  -0.59216
 Alpha  occ. eigenvalues --   -0.58741  -0.57382  -0.57032  -0.56295  -0.56117
 Alpha  occ. eigenvalues --   -0.55735  -0.55206  -0.55043  -0.54529  -0.54303
 Alpha  occ. eigenvalues --   -0.53775  -0.53131  -0.52230  -0.51809  -0.51525
 Alpha  occ. eigenvalues --   -0.51313  -0.51014  -0.50974  -0.50603  -0.49675
 Alpha  occ. eigenvalues --   -0.49463  -0.49194  -0.48909  -0.48735  -0.47989
 Alpha  occ. eigenvalues --   -0.47912  -0.47478  -0.46957  -0.46669  -0.46614
 Alpha  occ. eigenvalues --   -0.46149  -0.46083  -0.45712  -0.45600  -0.45119
 Alpha  occ. eigenvalues --   -0.44867  -0.44620  -0.44223  -0.43880  -0.43728
 Alpha  occ. eigenvalues --   -0.43385  -0.43325  -0.42848  -0.42466  -0.42355
 Alpha  occ. eigenvalues --   -0.42188  -0.41658  -0.41449  -0.41330  -0.41185
 Alpha  occ. eigenvalues --   -0.41103  -0.40730  -0.40540  -0.40154  -0.39890
 Alpha  occ. eigenvalues --   -0.39625  -0.39157  -0.38939  -0.38512  -0.38336
 Alpha  occ. eigenvalues --   -0.38076  -0.37737  -0.37366  -0.37294  -0.36741
 Alpha  occ. eigenvalues --   -0.36481  -0.36058  -0.35125  -0.34882  -0.33024
 Alpha  occ. eigenvalues --   -0.32422  -0.31661  -0.31349  -0.30922  -0.30035
 Alpha  occ. eigenvalues --   -0.30005  -0.27545  -0.24597  -0.18394
 Alpha virt. eigenvalues --   -0.07606  -0.01013   0.02263   0.05811   0.06477
 Alpha virt. eigenvalues --    0.08044   0.08802   0.09189   0.09407   0.09883
 Alpha virt. eigenvalues --    0.11428   0.11619   0.12142   0.12412   0.12539

 Mulliken charges:
               1
     1  O   -0.542468
     2  O   -0.588403
     3  O   -0.532703
     4  O   -0.566417
     5  C    0.139243
     6  C    0.287175
     7  C    0.024345
     8  C   -0.204120
     9  C   -0.173717
    10  C    0.184303
    11  C   -0.342051
    12  C   -0.133159
    13  C   -0.286282
    14  C   -0.308103
    15  C   -0.057621
    16  C    0.074331
    17  C   -0.361335
    18  C   -0.129860
    19  C   -0.047804
    20  C    0.076049
    21  C    0.213299
    22  C   -0.211686
    23  C    0.181976
    24  C   -0.213065
    25  C   -0.077845
    26  C   -0.323409
    27  C   -0.314749
    28  C   -0.278012
    29  C   -0.102887
    30  C    0.139900
    31  C    0.078254
    32  C   -0.296183
    33  C   -0.382558
    34  C   -0.117707
    35  C    0.145908
    36  C   -0.368814
    37  C   -0.104047
    38  C   -0.072059
    39  C   -0.102608
    40  C   -0.100453
    41  C   -0.114848
    42  C   -0.124359
    43  C    0.125813
    44  C   -0.385854
    45  H    0.092662
    46  H    0.120881
    47  H    0.074771
    48  H    0.082793
    49  H    0.112806
    50  H    0.089862
    51  H    0.109999
    52  H    0.141975
    53  H    0.134389
    54  H    0.107227
    55  H    0.111215
    56  H    0.079379
    57  H    0.136862
    58  H    0.101444
    59  H    0.094847
    60  H    0.306943
    61  H    0.085411
    62  H    0.105775
    63  H    0.111958
    64  H    0.063674
    65  H    0.083019
    66  H    0.100435
    67  H    0.049672
    68  H    0.107133
    69  H    0.092488
    70  H    0.123948
    71  H    0.127775
    72  H    0.098755
    73  H    0.090598
    74  H    0.114006
    75  H    0.095204
    76  H    0.117141
    77  H    0.095442
    78  H    0.091563
    79  H    0.097024
    80  H    0.121253
    81  H    0.096868
    82  H    0.299752
    83  H    0.318599
    84  H    0.084419
    85  H    0.115957
    86  H    0.126574
    87  H    0.105191
    88  H    0.070933
    89  H    0.107126
    90  H    0.140783
    91  H    0.087536
    92  H    0.073743
    93  H    0.075556
    94  H    0.102009
    95  H    0.091207
    96  H    0.082876
    97  H    0.088108
    98  H    0.105289
    99  H    0.124065
   100  H    0.127675
 Sum of Mulliken charges =  -0.00000

 Dipole moment (field-independent basis, Debye):
    X=              3.1003    Y=             -0.6120    Z=              1.6264  Tot=              3.5541
 Quadrupole moment (field-independent basis, Debye-Ang):
   XX=           -292.0415   YY=           -260.1504   ZZ=           -276.6886
   XY=              5.7687   XZ=             28.2605   YZ=              0.4974

 Normal termination of Gaussian 16 at Tue Jul 30 08:35:03 2019.
