 Gaussian 16, Revision A.03,
 Gaussian 16:  ES64L-G16RevA.03 25-Dec-2016

 -------------------------------------
 # td=(NStates=1) CAM-B3LYP/6-31G(d,p)
 -------------------------------------

 --
 TD
 --
 Symbolic Z-matrix:
 Charge =  0 Multiplicity = 1

                         Standard orientation:
 ---------------------------------------------------------------------
 Center     Atomic      Atomic             Coordinates (Angstroms)
 Number     Number       Type             X           Y           Z
 ---------------------------------------------------------------------
      1          8           0      -11.778534    0.356858   -1.349965
      2          8           0      -13.032997   -2.599499    1.320989
      3          8           0       10.688532   -0.868307   -2.088390
      4          8           0       14.535587   -0.980344   -0.250243
      5          6           0      -11.001396   -0.114180   -0.250387
      6          6           0      -11.618232   -1.059106   -1.181334
      7          6           0      -11.624584    0.274799    1.084083
      8          6           0      -13.011182   -1.692785   -0.874778
      9          6           0      -13.225745   -0.230394    1.178973
     10          6           0      -13.540377   -1.590411    0.552069
     11          6           0      -10.856319   -1.629025   -2.358192
     12          6           0       -9.543661    0.213987   -0.277455
     13          6           0      -11.007191   -0.500222    2.253267
     14          6           0      -11.670578    1.765980    1.432297
     15          6           0       -8.618549   -0.699542   -0.060676
     16          6           0       -7.133751   -0.625029   -0.246110
     17          6           0       -6.348107   -1.870611   -0.038853
     18          6           0       -6.614564    0.625502   -0.312708
     19          6           0       -5.187754    0.970919   -0.336297
     20          6           0       11.881610   -0.073387    1.404932
     21          6           0       11.733959   -0.542167   -1.251513
     22          6           0       12.730910   -1.448140    1.575606
     23          6           0       13.388123   -1.763956    0.164673
     24          6           0       12.367443   -1.847959   -0.973067
     25          6           0       11.039510    0.038163    0.137864
     26          6           0       11.082125   -0.063508    2.692788
     27          6           0       12.906068    1.188410    1.559158
     28          6           0       12.586904    0.474039   -1.943759
     29          6           0       -4.681909    2.278664   -0.414703
     30          6           0        9.768257    0.392577    0.106899
     31          6           0       -3.339472    2.692092   -0.283707
     32          6           0        8.559105    0.990829    0.025088
     33          6           0       -2.991308    4.111817   -0.577966
     34          6           0       -2.356414    1.687779   -0.096756
     35          6           0        7.349840    0.179994    0.179980
     36          6           0        7.565917   -1.321486    0.179306
     37          6           0        6.137695    0.683778   -0.072403
     38          6           0       -1.035852    1.950230   -0.258433
     39          6           0        4.910401    0.130582   -0.061549
     40          6           0        0.045762    0.964250   -0.251668
     41          6           0        3.719616    0.838368   -0.197488
     42          6           0        1.364373    1.226869   -0.263743
     43          6           0        2.454967    0.369824   -0.194562
     44          6           0        2.277508   -1.156110   -0.042708
     45          1           0      -12.977217   -2.700477   -1.307696
     46          1           0      -13.829340   -1.135482   -1.518612
     47          1           0      -13.736085   -0.137832    2.066120
     48          1           0      -13.809465    0.286540    0.427583
     49          1           0      -14.759218   -1.529876    0.646370
     50          1           0      -10.532146   -2.726100   -2.251900
     51          1           0      -11.631328   -1.598128   -3.275417
     52          1           0       -9.866260   -1.115170   -2.573809
     53          1           0       -9.410726    1.173022   -0.707940
     54          1           0       -9.873116   -0.246691    2.700291
     55          1           0      -11.482303   -0.465201    3.322097
     56          1           0      -11.067466   -1.543326    2.266702
     57          1           0      -11.953978    2.195530    0.375139
     58          1           0      -12.600302    1.912099    2.171843
     59          1           0      -10.631491    2.079180    1.733746
     60          1           0      -12.093995   -2.568349    1.126860
     61          1           0       -9.004291   -1.873337   -0.139850
     62          1           0       -5.725742   -1.869285   -0.939498
     63          1           0       -5.606392   -1.563553    0.922790
     64          1           0       -6.915678   -2.825963   -0.173360
     65          1           0       -7.352584    1.479865   -0.387535
     66          1           0       -4.468318    0.247159   -0.240751
     67          1           0       13.485852   -1.236867    2.350460
     68          1           0       12.017271   -2.164469    1.747929
     69          1           0       13.714643   -2.819937    0.285639
     70          1           0       12.781310   -2.418828   -1.869980
     71          1           0       11.704573   -2.508219   -0.527126
     72          1           0       11.921944   -0.403567    3.347848
     73          1           0       10.606231    0.878214    2.763694
     74          1           0       10.164832   -0.759265    2.504131
     75          1           0       13.655523    1.243496    0.743092
     76          1           0       12.248927    2.051450    1.341402
     77          1           0       13.221612    1.380245    2.499420
     78          1           0       12.804126    0.242601   -2.865639
     79          1           0       12.048291    1.359401   -2.082691
     80          1           0       13.483028    0.537461   -1.471483
     81          1           0       -5.384490    3.099898   -0.244036
     82          1           0        9.989272   -0.187712   -2.325003
     83          1           0       15.129427   -1.144871    0.468242
     84          1           0        8.599910    2.027392   -0.322731
     85          1           0       -2.236887    4.517118    0.117528
     86          1           0       -2.775297    4.592488   -1.654889
     87          1           0       -4.004373    4.884872   -0.291424
     88          1           0       -2.764840    0.683476    0.299473
     89          1           0        6.532100   -1.777564    0.532230
     90          1           0        7.915391   -1.982574   -0.821679
     91          1           0        8.351802   -1.439991    1.056865
     92          1           0        6.280877    1.819841   -0.061565
     93          1           0       -0.675597    3.025499   -0.552665
     94          1           0        4.722594   -1.104875   -0.094120
     95          1           0       -0.289293   -0.077886   -0.086245
     96          1           0        3.845355    1.989576   -0.213443
     97          1           0        1.476629    2.396818   -0.363118
     98          1           0        1.235994   -1.490696   -0.425072
     99          1           0        3.306191   -1.612346   -0.583025
    100          1           0        2.134914   -1.273083    1.258659
 ---------------------------------------------------------------------

 SCF Done:  E(RCAM-B3LYP) =  -1857.24258816     A.U. after   16 cycles

 Excitation energies and oscillator strengths:

 Excited State   1:      Singlet-A      1.8291 eV  677.86 nm  f=3.0055  <S**2>=0.000
     163 ->166        -0.11501
     164 ->165         0.70614
     164 <-165        -0.13700
 This state for optimization and/or second-order correction.
 Total Energy, E(TD-HF/TD-DFT) =  -1857.17537138
 Copying the excited state density for this state as the 1-particle RhoCI density.

 The electronic state is 1-A.
 Alpha  occ. eigenvalues --  -19.22159 -19.22138 -19.20715 -19.19703 -10.32876
 Alpha  occ. eigenvalues --  -10.32271 -10.31512 -10.31411 -10.31158 -10.29904
 Alpha  occ. eigenvalues --  -10.28818 -10.28490 -10.28252 -10.28214 -10.28054
 Alpha  occ. eigenvalues --  -10.27975 -10.27959 -10.27876 -10.27866 -10.27748
 Alpha  occ. eigenvalues --  -10.27670 -10.27629 -10.27571 -10.27441 -10.27408
 Alpha  occ. eigenvalues --  -10.27361 -10.27233 -10.27095 -10.26925 -10.26897
 Alpha  occ. eigenvalues --  -10.26893 -10.26824 -10.26754 -10.26652 -10.26604
 Alpha  occ. eigenvalues --  -10.26249 -10.26139 -10.25803 -10.25717 -10.24622
 Alpha  occ. eigenvalues --  -10.24607 -10.24077 -10.23960 -10.20513  -1.16057
 Alpha  occ. eigenvalues --   -1.11671  -1.10236  -1.09247  -0.93044  -0.92448
 Alpha  occ. eigenvalues --   -0.91952  -0.91429  -0.90806  -0.89606  -0.87485
 Alpha  occ. eigenvalues --   -0.86496  -0.86168  -0.85387  -0.84692  -0.83103
 Alpha  occ. eigenvalues --   -0.82095  -0.80947  -0.80573  -0.78785  -0.77025
 Alpha  occ. eigenvalues --   -0.76472  -0.76074  -0.75997  -0.75391  -0.75242
 Alpha  occ. eigenvalues --   -0.74685  -0.74086  -0.72613  -0.70421  -0.69707
 Alpha  occ. eigenvalues --   -0.68542  -0.67247  -0.65165  -0.64783  -0.64421
 Alpha  occ. eigenvalues --   -0.63260  -0.62310  -0.60324  -0.59948  -0.58958
 Alpha  occ. eigenvalues --   -0.58445  -0.58352  -0.57922  -0.57505  -0.56602
 Alpha  occ. eigenvalues --   -0.56054  -0.55226  -0.54739  -0.54551  -0.54386
 Alpha  occ. eigenvalues --   -0.53938  -0.52923  -0.52772  -0.52374  -0.52042
 Alpha  occ. eigenvalues --   -0.51876  -0.51370  -0.49834  -0.49749  -0.49559
 Alpha  occ. eigenvalues --   -0.48913  -0.48751  -0.48578  -0.48257  -0.48111
 Alpha  occ. eigenvalues --   -0.48102  -0.47537  -0.46872  -0.46870  -0.46743
 Alpha  occ. eigenvalues --   -0.46461  -0.46298  -0.45978  -0.45585  -0.45453
 Alpha  occ. eigenvalues --   -0.45208  -0.44461  -0.44150  -0.44119  -0.43891
 Alpha  occ. eigenvalues --   -0.43516  -0.43107  -0.42658  -0.42604  -0.42401
 Alpha  occ. eigenvalues --   -0.42171  -0.41989  -0.41723  -0.41364  -0.41071
 Alpha  occ. eigenvalues --   -0.40920  -0.40558  -0.40043  -0.39872  -0.39813
 Alpha  occ. eigenvalues --   -0.39300  -0.39134  -0.38983  -0.38704  -0.38621
 Alpha  occ. eigenvalues --   -0.38416  -0.38132  -0.37387  -0.36940  -0.36781
 Alpha  occ. eigenvalues --   -0.36097  -0.35675  -0.35293  -0.34236  -0.33810
 Alpha  occ. eigenvalues --   -0.32481  -0.32134  -0.31907  -0.31272  -0.30417
 Alpha  occ. eigenvalues --   -0.29428  -0.28317  -0.25193  -0.18917
 Alpha virt. eigenvalues --   -0.07777  -0.01104   0.02513   0.05981   0.06659
 Alpha virt. eigenvalues --    0.08751   0.09588   0.10126   0.10623   0.10954
 Alpha virt. eigenvalues --    0.11822   0.12161   0.12362   0.12521   0.12937

 Mulliken charges:
               1
     1  O   -0.498682
     2  O   -0.517012
     3  O   -0.585520
     4  O   -0.535912
     5  C    0.202081
     6  C    0.225671
     7  C    0.028157
     8  C   -0.214868
     9  C   -0.197347
    10  C    0.135019
    11  C   -0.331962
    12  C   -0.099379
    13  C   -0.309203
    14  C   -0.299492
    15  C   -0.075358
    16  C    0.075977
    17  C   -0.366303
    18  C   -0.104214
    19  C   -0.079582
    20  C   -0.005403
    21  C    0.289569
    22  C   -0.196027
    23  C    0.113073
    24  C   -0.175617
    25  C   -0.104368
    26  C   -0.282455
    27  C   -0.326619
    28  C   -0.302760
    29  C   -0.115480
    30  C    0.106477
    31  C    0.102352
    32  C   -0.221462
    33  C   -0.367158
    34  C   -0.094477
    35  C    0.066241
    36  C   -0.339263
    37  C   -0.075235
    38  C   -0.108166
    39  C   -0.100489
    40  C   -0.088900
    41  C   -0.096936
    42  C   -0.105221
    43  C    0.109609
    44  C   -0.335066
    45  H    0.107035
    46  H    0.109577
    47  H    0.111828
    48  H    0.099846
    49  H    0.073889
    50  H    0.093840
    51  H    0.109420
    52  H    0.128354
    53  H    0.119949
    54  H    0.072305
    55  H    0.094613
    56  H    0.095136
    57  H    0.110524
    58  H    0.106942
    59  H    0.106307
    60  H    0.303652
    61  H    0.055450
    62  H    0.132710
    63  H    0.118479
    64  H    0.117367
    65  H    0.086846
    66  H    0.072263
    67  H    0.096124
    68  H    0.117258
    69  H    0.073015
    70  H    0.113285
    71  H    0.113080
    72  H    0.096059
    73  H    0.109706
    74  H    0.088454
    75  H    0.122483
    76  H    0.097691
    77  H    0.107026
    78  H    0.115136
    79  H    0.086156
    80  H    0.137044
    81  H    0.081225
    82  H    0.305904
    83  H    0.305831
    84  H    0.118603
    85  H    0.128097
    86  H    0.123397
    87  H    0.065359
    88  H    0.095125
    89  H    0.091040
    90  H    0.116641
    91  H    0.102228
    92  H    0.072905
    93  H    0.088450
    94  H    0.072135
    95  H    0.070781
    96  H    0.079334
    97  H    0.070845
    98  H    0.113651
    99  H    0.105803
   100  H    0.095507
 Sum of Mulliken charges =  -0.00000

 Dipole moment (field-independent basis, Debye):
    X=              2.8498    Y=             -0.2230    Z=              0.7882  Tot=              2.9652
 Quadrupole moment (field-independent basis, Debye-Ang):
   XX=           -284.8983   YY=           -262.5886   ZZ=           -278.3081
   XY=             -3.0642   XZ=             27.9274   YZ=              0.5361

 Normal termination of Gaussian 16 at Tue Jul 30 00:24:39 2019.
