 Gaussian 16, Revision A.03,
 Gaussian 16:  ES64L-G16RevA.03 25-Dec-2016

 -------------------------------------
 # td=(NStates=1) CAM-B3LYP/6-31G(d,p)
 -------------------------------------

 --
 TD
 --
 Symbolic Z-matrix:
 Charge =  0 Multiplicity = 1

                         Standard orientation:
 ---------------------------------------------------------------------
 Center     Atomic      Atomic             Coordinates (Angstroms)
 Number     Number       Type             X           Y           Z
 ---------------------------------------------------------------------
      1          8           0      -11.726777    0.295295   -1.557190
      2          8           0      -13.007984   -2.515555    1.488544
      3          8           0       10.678207   -1.044422   -2.066373
      4          8           0       14.524716   -0.843230   -0.019709
      5          6           0      -11.180564   -0.112852   -0.375066
      6          6           0      -11.717972   -1.073695   -1.188295
      7          6           0      -11.738282    0.414123    0.973473
      8          6           0      -13.064400   -1.693138   -0.907531
      9          6           0      -13.212765   -0.010839    1.016180
     10          6           0      -13.470644   -1.486794    0.675878
     11          6           0      -10.908219   -1.866066   -2.206572
     12          6           0       -9.598171    0.079301   -0.393698
     13          6           0      -10.975998   -0.045051    2.215483
     14          6           0      -11.755050    1.958551    0.901483
     15          6           0       -8.698653   -0.912821    0.052095
     16          6           0       -7.291763   -0.729209   -0.029292
     17          6           0       -6.354540   -1.841774    0.266856
     18          6           0       -6.599827    0.557078   -0.114811
     19          6           0       -5.286680    0.823999   -0.077384
     20          6           0       11.877895    0.078905    1.364153
     21          6           0       11.757934   -0.615294   -1.231620
     22          6           0       12.685935   -1.240778    1.559219
     23          6           0       13.481134   -1.771977    0.325034
     24          6           0       12.486644   -1.916492   -0.744818
     25          6           0       10.958163    0.021140    0.062050
     26          6           0       10.875810    0.003663    2.587310
     27          6           0       12.762627    1.377870    1.311967
     28          6           0       12.762383    0.291299   -2.021088
     29          6           0       -4.753416    2.119747   -0.374864
     30          6           0        9.909948    0.681187   -0.019415
     31          6           0       -3.363619    2.480001   -0.429717
     32          6           0        8.632168    0.936767   -0.241743
     33          6           0       -3.124337    3.949431   -0.472470
     34          6           0       -2.281727    1.537785   -0.347710
     35          6           0        7.438451    0.134603   -0.040316
     36          6           0        7.594524   -1.375445    0.254845
     37          6           0        6.247382    0.785292   -0.211975
     38          6           0       -0.982096    1.865035   -0.266732
     39          6           0        5.024907    0.194494   -0.048253
     40          6           0        0.109692    0.879872   -0.097305
     41          6           0        3.856579    0.897478   -0.155919
     42          6           0        1.355909    1.214212   -0.198338
     43          6           0        2.452757    0.357654   -0.160073
     44          6           0        2.291131   -1.120772    0.024485
     45          1           0      -12.864235   -2.792710   -0.973461
     46          1           0      -13.801584   -1.342435   -1.644153
     47          1           0      -13.664073   -0.047292    1.930248
     48          1           0      -13.830395    0.705041    0.107367
     49          1           0      -14.465451   -1.539455    0.656381
     50          1           0      -10.717991   -2.771178   -1.734648
     51          1           0      -11.315993   -1.792302   -3.165047
     52          1           0       -9.788017   -1.362730   -2.326057
     53          1           0       -9.320313    0.932320   -0.880445
     54          1           0       -9.948716    0.441358    2.297012
     55          1           0      -11.448295    0.483922    3.133329
     56          1           0      -10.668753   -1.153897    2.459552
     57          1           0      -12.234525    2.199209   -0.058450
     58          1           0      -12.468883    2.325360    1.545741
     59          1           0      -10.763069    2.553889    1.185368
     60          1           0      -11.917055   -2.621084    1.812580
     61          1           0       -9.095226   -1.865550    0.520311
     62          1           0       -5.231725   -1.705875   -0.369672
     63          1           0       -6.116718   -1.716795    1.505945
     64          1           0       -6.797477   -3.146475   -0.012759
     65          1           0       -7.090303    1.571070   -0.293556
     66          1           0       -4.666433   -0.029462    0.115004
     67          1           0       13.430417   -1.208821    2.244493
     68          1           0       11.931199   -2.076000    1.864330
     69          1           0       13.748696   -2.765041    0.644218
     70          1           0       12.752788   -2.340303   -1.647672
     71          1           0       11.754394   -2.661069   -0.800489
     72          1           0       11.437468    0.336652    3.669111
     73          1           0       10.212654    0.934707    2.402390
     74          1           0       10.320644   -0.859666    2.847642
     75          1           0       13.402324    1.313631    0.574228
     76          1           0       11.987093    2.344836    1.084184
     77          1           0       13.064253    1.676922    2.378237
     78          1           0       13.115684   -0.089824   -2.912853
     79          1           0       12.184959    1.281126   -2.042166
     80          1           0       13.695100    0.275559   -1.313390
     81          1           0       -5.513592    2.775670   -0.685781
     82          1           0        9.971536   -0.194763   -2.187262
     83          1           0       15.308400   -1.154392    0.575878
     84          1           0        8.287309    1.931044   -0.720059
     85          1           0       -2.095556    4.107968    0.305271
     86          1           0       -2.451914    4.091534   -1.518173
     87          1           0       -3.899063    4.493060   -0.406493
     88          1           0       -2.588717    0.500883   -0.359612
     89          1           0        6.639127   -1.955079    0.240632
     90          1           0        8.139940   -1.870880   -0.432340
     91          1           0        7.882528   -1.429846    1.205799
     92          1           0        6.440517    1.841869   -0.489845
     93          1           0       -0.676677    2.875236   -0.241298
     94          1           0        4.868238   -0.999728    0.238943
     95          1           0       -0.410550   -0.124014    0.061541
     96          1           0        3.836152    1.978841   -0.609750
     97          1           0        1.660288    2.282664   -0.183003
     98          1           0        1.315098   -1.538637   -0.771412
     99          1           0        3.432479   -1.758864   -0.369877
    100          1           0        2.067222   -1.435850    1.368780
 ---------------------------------------------------------------------

 SCF Done:  E(RCAM-B3LYP) =  -1857.03285437     A.U. after   18 cycles

 Excitation energies and oscillator strengths:

 Excited State   1:      Singlet-A      1.6009 eV  774.46 nm  f=2.6788  <S**2>=0.000
     163 ->166         0.10351
     164 ->165         0.71688
     164 <-165        -0.16890
 This state for optimization and/or second-order correction.
 Total Energy, E(TD-HF/TD-DFT) =  -1856.97402191
 Copying the excited state density for this state as the 1-particle RhoCI density.

 The electronic state is 1-A.
 Alpha  occ. eigenvalues --  -19.24233 -19.23220 -19.22160 -19.20513 -10.32093
 Alpha  occ. eigenvalues --  -10.31721 -10.31716 -10.31595 -10.31290 -10.30632
 Alpha  occ. eigenvalues --  -10.30342 -10.28998 -10.28586 -10.28469 -10.28161
 Alpha  occ. eigenvalues --  -10.28108 -10.27700 -10.27607 -10.27438 -10.27426
 Alpha  occ. eigenvalues --  -10.27389 -10.27165 -10.27048 -10.26917 -10.26859
 Alpha  occ. eigenvalues --  -10.26582 -10.26581 -10.26432 -10.26367 -10.26203
 Alpha  occ. eigenvalues --  -10.26097 -10.25964 -10.25740 -10.25714 -10.25608
 Alpha  occ. eigenvalues --  -10.25467 -10.25456 -10.25265 -10.25126 -10.25104
 Alpha  occ. eigenvalues --  -10.24677 -10.23777 -10.23549 -10.23364  -1.18923
 Alpha  occ. eigenvalues --   -1.10413  -1.08168  -1.06212  -0.92332  -0.92047
 Alpha  occ. eigenvalues --   -0.91485  -0.91112  -0.90693  -0.89771  -0.87334
 Alpha  occ. eigenvalues --   -0.86399  -0.85792  -0.85293  -0.83995  -0.82652
 Alpha  occ. eigenvalues --   -0.81821  -0.80321  -0.80056  -0.78809  -0.77265
 Alpha  occ. eigenvalues --   -0.76495  -0.75729  -0.75694  -0.75081  -0.74954
 Alpha  occ. eigenvalues --   -0.74094  -0.73926  -0.71189  -0.70425  -0.69258
 Alpha  occ. eigenvalues --   -0.67920  -0.66810  -0.66103  -0.64944  -0.64219
 Alpha  occ. eigenvalues --   -0.62856  -0.62665  -0.61378  -0.59592  -0.58996
 Alpha  occ. eigenvalues --   -0.58920  -0.58862  -0.57309  -0.56436  -0.56068
 Alpha  occ. eigenvalues --   -0.55762  -0.54846  -0.54674  -0.54433  -0.53872
 Alpha  occ. eigenvalues --   -0.52844  -0.52585  -0.51793  -0.51496  -0.51474
 Alpha  occ. eigenvalues --   -0.51285  -0.50938  -0.50839  -0.50643  -0.50288
 Alpha  occ. eigenvalues --   -0.49490  -0.49131  -0.48523  -0.48307  -0.48054
 Alpha  occ. eigenvalues --   -0.47910  -0.47398  -0.47319  -0.46913  -0.46608
 Alpha  occ. eigenvalues --   -0.46256  -0.45641  -0.45470  -0.45427  -0.45167
 Alpha  occ. eigenvalues --   -0.44862  -0.44668  -0.44237  -0.43859  -0.43491
 Alpha  occ. eigenvalues --   -0.43189  -0.43124  -0.42964  -0.42545  -0.41990
 Alpha  occ. eigenvalues --   -0.41506  -0.41228  -0.40970  -0.40868  -0.40503
 Alpha  occ. eigenvalues --   -0.40314  -0.39832  -0.39592  -0.39199  -0.38719
 Alpha  occ. eigenvalues --   -0.38676  -0.38627  -0.38548  -0.38458  -0.38179
 Alpha  occ. eigenvalues --   -0.38066  -0.37844  -0.37614  -0.37064  -0.36894
 Alpha  occ. eigenvalues --   -0.36549  -0.35484  -0.34434  -0.34259  -0.33906
 Alpha  occ. eigenvalues --   -0.32429  -0.31766  -0.31578  -0.31190  -0.30947
 Alpha  occ. eigenvalues --   -0.29931  -0.26591  -0.23888  -0.17741
 Alpha virt. eigenvalues --   -0.07926  -0.01105   0.02225   0.05515   0.06337
 Alpha virt. eigenvalues --    0.06559   0.08583   0.08996   0.09351   0.10212
 Alpha virt. eigenvalues --    0.10821   0.11604   0.11937   0.11987   0.12153

 Mulliken charges:
               1
     1  O   -0.489577
     2  O   -0.568782
     3  O   -0.591719
     4  O   -0.544638
     5  C    0.230623
     6  C    0.212147
     7  C    0.042568
     8  C   -0.232510
     9  C   -0.189057
    10  C    0.183643
    11  C   -0.313329
    12  C   -0.096542
    13  C   -0.317765
    14  C   -0.321176
    15  C   -0.089870
    16  C    0.090586
    17  C   -0.332056
    18  C   -0.109548
    19  C   -0.029642
    20  C    0.006020
    21  C    0.238949
    22  C   -0.145066
    23  C    0.123145
    24  C   -0.195019
    25  C   -0.025533
    26  C   -0.302859
    27  C   -0.282427
    28  C   -0.310639
    29  C   -0.163950
    30  C    0.073085
    31  C    0.103471
    32  C   -0.260911
    33  C   -0.330747
    34  C   -0.098678
    35  C    0.130656
    36  C   -0.359869
    37  C   -0.106785
    38  C   -0.084436
    39  C   -0.092885
    40  C   -0.084971
    41  C   -0.115494
    42  C   -0.099275
    43  C    0.101685
    44  C   -0.305925
    45  H    0.099844
    46  H    0.113511
    47  H    0.106052
    48  H    0.075382
    49  H    0.112283
    50  H    0.106756
    51  H    0.127509
    52  H    0.091971
    53  H    0.110908
    54  H    0.115926
    55  H    0.103471
    56  H    0.067944
    57  H    0.127411
    58  H    0.116693
    59  H    0.089980
    60  H    0.317292
    61  H    0.080446
    62  H    0.098661
    63  H    0.108085
    64  H    0.059199
    65  H    0.069625
    66  H    0.071593
    67  H    0.081848
    68  H    0.083153
    69  H    0.096080
    70  H    0.101499
    71  H    0.118132
    72  H    0.052292
    73  H    0.100802
    74  H    0.119738
    75  H    0.137478
    76  H    0.067735
    77  H    0.100115
    78  H    0.121694
    79  H    0.083009
    80  H    0.140562
    81  H    0.085769
    82  H    0.307961
    83  H    0.322342
    84  H    0.085300
    85  H    0.095085
    86  H    0.100905
    87  H    0.110310
    88  H    0.077349
    89  H    0.092876
    90  H    0.144197
    91  H    0.134698
    92  H    0.086208
    93  H    0.072931
    94  H    0.086128
    95  H    0.089459
    96  H    0.076707
    97  H    0.085905
    98  H    0.086318
    99  H    0.065737
   100  H    0.074240
 Sum of Mulliken charges =  -0.00000

 Dipole moment (field-independent basis, Debye):
    X=              1.5970    Y=             -0.9415    Z=              2.6196  Tot=              3.2092
 Quadrupole moment (field-independent basis, Debye-Ang):
   XX=           -236.3079   YY=           -261.4524   ZZ=           -278.6683
   XY=            -21.2310   XZ=             13.8750   YZ=             -5.0624

 Normal termination of Gaussian 16 at Tue Jul 30 15:15:08 2019.
