 Gaussian 16, Revision A.03,
 Gaussian 16:  ES64L-G16RevA.03 25-Dec-2016

 -------------------------------------
 # td=(NStates=1) CAM-B3LYP/6-31G(d,p)
 -------------------------------------

 --
 TD
 --
 Symbolic Z-matrix:
 Charge =  0 Multiplicity = 1

                         Standard orientation:
 ---------------------------------------------------------------------
 Center     Atomic      Atomic             Coordinates (Angstroms)
 Number     Number       Type             X           Y           Z
 ---------------------------------------------------------------------
      1          8           0      -11.608947    0.249149   -1.570488
      2          8           0      -12.782208   -2.512496    1.471630
      3          8           0       10.558282   -0.853374   -2.093635
      4          8           0       14.493424   -1.052464    0.003586
      5          6           0      -10.965037   -0.128766   -0.282030
      6          6           0      -11.564606   -1.198866   -1.259716
      7          6           0      -11.862909    0.309023    0.941471
      8          6           0      -12.934550   -1.845539   -0.869184
      9          6           0      -13.300327   -0.167635    0.879299
     10          6           0      -13.491475   -1.611774    0.514803
     11          6           0      -10.610022   -1.936046   -2.208307
     12          6           0       -9.493886    0.113304   -0.274361
     13          6           0      -11.038107   -0.112677    2.284034
     14          6           0      -11.770604    1.904374    0.951125
     15          6           0       -8.591878   -0.794291    0.083057
     16          6           0       -7.121940   -0.664021    0.231373
     17          6           0       -6.311510   -1.798309    0.319220
     18          6           0       -6.572424    0.640195    0.048388
     19          6           0       -5.219240    0.904785   -0.201973
     20          6           0       11.850142   -0.084117    1.454712
     21          6           0       11.608753   -0.533643   -1.191743
     22          6           0       12.494367   -1.472038    1.536563
     23          6           0       13.255803   -1.891382    0.235021
     24          6           0       12.367461   -1.797227   -1.040117
     25          6           0       11.091309    0.059241    0.069880
     26          6           0       10.939815    0.164157    2.629054
     27          6           0       12.981303    1.164865    1.472504
     28          6           0       12.441846    0.437865   -1.907713
     29          6           0       -4.732606    2.196138   -0.194912
     30          6           0        9.844818    0.531829    0.080436
     31          6           0       -3.441342    2.604470   -0.421413
     32          6           0        8.607414    0.935852   -0.172369
     33          6           0       -3.131157    4.041703   -0.517860
     34          6           0       -2.265727    1.716764   -0.422430
     35          6           0        7.427795    0.131433    0.042179
     36          6           0        7.568678   -1.423183    0.044925
     37          6           0        6.172081    0.774696   -0.157042
     38          6           0       -0.943721    2.090212   -0.347923
     39          6           0        4.916060    0.214568   -0.145602
     40          6           0        0.059638    1.067278   -0.111252
     41          6           0        3.730554    0.958397   -0.261657
     42          6           0        1.321660    1.268498   -0.257814
     43          6           0        2.467498    0.350958   -0.245095
     44          6           0        2.225309   -1.084708    0.006811
     45          1           0      -12.851114   -2.866153   -1.131643
     46          1           0      -13.696588   -1.612678   -1.529988
     47          1           0      -13.705817    0.027326    1.895305
     48          1           0      -13.777559    0.603979    0.134594
     49          1           0      -14.526977   -1.743248    0.580700
     50          1           0      -10.536960   -3.106154   -1.664366
     51          1           0      -11.296225   -2.006936   -3.272935
     52          1           0       -9.709638   -1.446583   -2.498582
     53          1           0       -9.117030    0.943186   -0.575421
     54          1           0      -10.124009    0.432352    2.392145
     55          1           0      -11.430491    0.180977    3.153668
     56          1           0      -10.876499   -1.243707    2.279014
     57          1           0      -11.877764    2.316144   -0.116828
     58          1           0      -12.716519    1.980929    1.617590
     59          1           0      -10.854236    2.261814    1.467659
     60          1           0      -11.822757   -2.257741    1.375409
     61          1           0       -8.932936   -1.755654    0.271813
     62          1           0       -5.785763   -2.088149   -0.728105
     63          1           0       -5.299420   -1.752765    0.992306
     64          1           0       -6.810703   -2.599540    0.555348
     65          1           0       -7.393616    1.531179    0.248283
     66          1           0       -4.553868    0.054869   -0.649890
     67          1           0       13.015593   -1.791901    2.470519
     68          1           0       11.614180   -2.249671    1.497995
     69          1           0       13.535118   -2.975574    0.536591
     70          1           0       13.096897   -2.239909   -1.863466
     71          1           0       11.597138   -2.562644   -0.879503
     72          1           0       11.411587   -0.251755    3.600075
     73          1           0       10.683390    1.152921    2.838234
     74          1           0        9.808040   -0.465185    2.592583
     75          1           0       13.749607    1.060208    0.609478
     76          1           0       12.263073    1.980367    1.420835
     77          1           0       13.474354    0.926179    2.429325
     78          1           0       12.955887    0.083521   -2.826970
     79          1           0       11.944750    1.408337   -2.132950
     80          1           0       13.300133    0.704373   -1.252608
     81          1           0       -5.494362    2.891883   -0.200590
     82          1           0       10.164030    0.033032   -2.083289
     83          1           0       15.208826   -1.180562    0.684582
     84          1           0        8.571554    2.011274   -0.301360
     85          1           0       -2.759498    4.591375    0.350095
     86          1           0       -2.388983    4.167846   -1.297683
     87          1           0       -4.170034    4.600988   -0.948441
     88          1           0       -2.426876    0.678853   -0.100486
     89          1           0        6.528220   -1.872844   -0.167751
     90          1           0        8.303655   -1.777125   -0.616211
     91          1           0        7.809811   -1.776361    1.068820
     92          1           0        6.342587    1.828418   -0.168353
     93          1           0       -0.548041    3.087829   -0.331171
     94          1           0        5.113309   -0.716656    0.092022
     95          1           0       -0.642219    0.052495    0.006672
     96          1           0        3.878982    1.970635   -0.369765
     97          1           0        1.633538    2.289802   -0.291729
     98          1           0        1.250881   -1.418910   -0.072865
     99          1           0        2.989778   -1.648125   -0.623430
    100          1           0        2.541773   -1.311393    1.039933
 ---------------------------------------------------------------------

 SCF Done:  E(RCAM-B3LYP) =  -1857.29349434     A.U. after   19 cycles

 Excitation energies and oscillator strengths:

 Excited State   1:      Singlet-A      1.5311 eV  809.80 nm  f=2.8263  <S**2>=0.000
     163 ->166         0.10259
     164 ->165         0.72296
     164 <-165        -0.19512
 This state for optimization and/or second-order correction.
 Total Energy, E(TD-HF/TD-DFT) =  -1857.23722920
 Copying the excited state density for this state as the 1-particle RhoCI density.

 The electronic state is 1-A.
 Alpha  occ. eigenvalues --  -19.21853 -19.21364 -19.20951 -19.20557 -10.32810
 Alpha  occ. eigenvalues --  -10.32796 -10.31941 -10.31172 -10.30758 -10.29140
 Alpha  occ. eigenvalues --  -10.28754 -10.28655 -10.28401 -10.28328 -10.27626
 Alpha  occ. eigenvalues --  -10.27620 -10.27563 -10.27506 -10.27427 -10.27353
 Alpha  occ. eigenvalues --  -10.27280 -10.27151 -10.27138 -10.26951 -10.26840
 Alpha  occ. eigenvalues --  -10.26636 -10.26601 -10.26480 -10.26473 -10.26187
 Alpha  occ. eigenvalues --  -10.26110 -10.26040 -10.25940 -10.25936 -10.25918
 Alpha  occ. eigenvalues --  -10.25909 -10.25680 -10.25677 -10.25667 -10.25422
 Alpha  occ. eigenvalues --  -10.25164 -10.24662 -10.24494 -10.23637  -1.11086
 Alpha  occ. eigenvalues --   -1.10857  -1.07016  -1.06673  -0.92926  -0.92571
 Alpha  occ. eigenvalues --   -0.92225  -0.91315  -0.90534  -0.89871  -0.88306
 Alpha  occ. eigenvalues --   -0.86718  -0.86409  -0.85950  -0.85023  -0.83662
 Alpha  occ. eigenvalues --   -0.82900  -0.80655  -0.80608  -0.79699  -0.77208
 Alpha  occ. eigenvalues --   -0.77036  -0.76648  -0.76264  -0.76020  -0.75381
 Alpha  occ. eigenvalues --   -0.74499  -0.73603  -0.72476  -0.70615  -0.69793
 Alpha  occ. eigenvalues --   -0.68656  -0.67125  -0.65879  -0.64248  -0.64078
 Alpha  occ. eigenvalues --   -0.63094  -0.62563  -0.61776  -0.60905  -0.59161
 Alpha  occ. eigenvalues --   -0.58610  -0.58430  -0.57831  -0.56950  -0.56830
 Alpha  occ. eigenvalues --   -0.56196  -0.55555  -0.54414  -0.54331  -0.54047
 Alpha  occ. eigenvalues --   -0.53511  -0.53134  -0.52766  -0.52363  -0.52189
 Alpha  occ. eigenvalues --   -0.51910  -0.50156  -0.49764  -0.49740  -0.49556
 Alpha  occ. eigenvalues --   -0.49451  -0.49052  -0.48561  -0.48354  -0.48263
 Alpha  occ. eigenvalues --   -0.47946  -0.47759  -0.47606  -0.47085  -0.46896
 Alpha  occ. eigenvalues --   -0.46595  -0.46435  -0.45738  -0.45538  -0.45133
 Alpha  occ. eigenvalues --   -0.44962  -0.44926  -0.44716  -0.44622  -0.44175
 Alpha  occ. eigenvalues --   -0.43912  -0.43878  -0.43763  -0.43115  -0.42863
 Alpha  occ. eigenvalues --   -0.42612  -0.41961  -0.41879  -0.41760  -0.41222
 Alpha  occ. eigenvalues --   -0.40964  -0.40459  -0.40360  -0.40084  -0.40006
 Alpha  occ. eigenvalues --   -0.39927  -0.39902  -0.39242  -0.38888  -0.38679
 Alpha  occ. eigenvalues --   -0.38489  -0.38019  -0.37693  -0.37492  -0.37334
 Alpha  occ. eigenvalues --   -0.36527  -0.35987  -0.35047  -0.34402  -0.33279
 Alpha  occ. eigenvalues --   -0.32475  -0.32461  -0.32128  -0.31594  -0.30486
 Alpha  occ. eigenvalues --   -0.29749  -0.27854  -0.24544  -0.17582
 Alpha virt. eigenvalues --   -0.08627  -0.01193   0.02803   0.06351   0.06646
 Alpha virt. eigenvalues --    0.09344   0.09977   0.10171   0.11060   0.11662
 Alpha virt. eigenvalues --    0.12356   0.12469   0.12760   0.13263   0.13480

 Mulliken charges:
               1
     1  O   -0.528129
     2  O   -0.565042
     3  O   -0.550569
     4  O   -0.572275
     5  C    0.191020
     6  C    0.231683
     7  C    0.009380
     8  C   -0.200670
     9  C   -0.194397
    10  C    0.132115
    11  C   -0.292858
    12  C   -0.074228
    13  C   -0.308200
    14  C   -0.313000
    15  C   -0.070282
    16  C    0.110557
    17  C   -0.373919
    18  C   -0.133282
    19  C   -0.082995
    20  C    0.027128
    21  C    0.247240
    22  C   -0.199716
    23  C    0.141134
    24  C   -0.190280
    25  C   -0.055260
    26  C   -0.293774
    27  C   -0.305354
    28  C   -0.298903
    29  C   -0.097934
    30  C    0.106528
    31  C    0.090266
    32  C   -0.263497
    33  C   -0.369719
    34  C   -0.132919
    35  C    0.083088
    36  C   -0.375164
    37  C   -0.105847
    38  C   -0.066444
    39  C   -0.046516
    40  C   -0.077133
    41  C   -0.111644
    42  C   -0.126219
    43  C    0.108849
    44  C   -0.367694
    45  H    0.112973
    46  H    0.120200
    47  H    0.107928
    48  H    0.112260
    49  H    0.113591
    50  H    0.073723
    51  H    0.082359
    52  H    0.143127
    53  H    0.078337
    54  H    0.112336
    55  H    0.113341
    56  H    0.072104
    57  H    0.125702
    58  H    0.093129
    59  H    0.103846
    60  H    0.310047
    61  H    0.058868
    62  H    0.102292
    63  H    0.105222
    64  H    0.118066
    65  H    0.078159
    66  H    0.096811
    67  H    0.093915
    68  H    0.087626
    69  H    0.079087
    70  H    0.117855
    71  H    0.117024
    72  H    0.089544
    73  H    0.118751
    74  H    0.070258
    75  H    0.132143
    76  H    0.107821
    77  H    0.094433
    78  H    0.111313
    79  H    0.080064
    80  H    0.118238
    81  H    0.085514
    82  H    0.298153
    83  H    0.309448
    84  H    0.114930
    85  H    0.131018
    86  H    0.125248
    87  H    0.073186
    88  H    0.081749
    89  H    0.099719
    90  H    0.153746
    91  H    0.118353
    92  H    0.067228
    93  H    0.089392
    94  H    0.059234
    95  H    0.068413
    96  H    0.090069
    97  H    0.081803
    98  H    0.123520
    99  H    0.112334
   100  H    0.129327
 Sum of Mulliken charges =  -0.00000

 Dipole moment (field-independent basis, Debye):
    X=              3.9511    Y=             -0.0649    Z=              2.5927  Tot=              4.7262
 Quadrupole moment (field-independent basis, Debye-Ang):
   XX=           -267.0362   YY=           -261.7051   ZZ=           -280.4901
   XY=            -10.8272   XZ=             31.5492   YZ=              0.1884

 Normal termination of Gaussian 16 at Tue Jul 30 11:13:34 2019.
