 Gaussian 16, Revision A.03,
 Gaussian 16:  ES64L-G16RevA.03 25-Dec-2016

 -------------------------------------
 # td=(NStates=1) CAM-B3LYP/6-31G(d,p)
 -------------------------------------

 --
 TD
 --
 Symbolic Z-matrix:
 Charge =  0 Multiplicity = 1

                         Standard orientation:
 ---------------------------------------------------------------------
 Center     Atomic      Atomic             Coordinates (Angstroms)
 Number     Number       Type             X           Y           Z
 ---------------------------------------------------------------------
      1          8           0      -11.895478    0.163694   -1.603724
      2          8           0      -12.950473   -2.348438    1.501675
      3          8           0       10.662511   -1.095554   -2.141674
      4          8           0       14.439800   -1.006441    0.039686
      5          6           0      -11.166887   -0.218083   -0.430879
      6          6           0      -11.778186   -1.166870   -1.195795
      7          6           0      -11.763892    0.431524    0.765008
      8          6           0      -13.099786   -1.781500   -0.817536
      9          6           0      -13.289838   -0.021205    0.959119
     10          6           0      -13.537835   -1.396929    0.595874
     11          6           0      -10.897973   -2.075867   -2.065718
     12          6           0       -9.615293    0.000668   -0.612022
     13          6           0      -11.176073   -0.080218    2.072902
     14          6           0      -11.664926    1.978155    0.784445
     15          6           0       -8.644650   -0.738715    0.016505
     16          6           0       -7.259986   -0.572848    0.032738
     17          6           0       -6.438634   -1.766630    0.529231
     18          6           0       -6.682347    0.694748   -0.104431
     19          6           0       -5.265997    0.948556   -0.144884
     20          6           0       11.911966    0.152754    1.319135
     21          6           0       11.678632   -0.719266   -1.248978
     22          6           0       12.632541   -1.252084    1.537256
     23          6           0       13.290955   -1.844599    0.325422
     24          6           0       12.386261   -1.954798   -0.796985
     25          6           0       11.130656    0.054343   -0.023616
     26          6           0       10.923814    0.310933    2.452027
     27          6           0       12.974467    1.205963    1.234073
     28          6           0       12.598483    0.264897   -2.102421
     29          6           0       -4.770855    2.198352   -0.316495
     30          6           0        9.966213    0.543278   -0.183780
     31          6           0       -3.395473    2.499720   -0.325898
     32          6           0        8.694083    0.972938   -0.340310
     33          6           0       -2.891959    3.888678   -0.756295
     34          6           0       -2.316428    1.527549    0.101207
     35          6           0        7.562261    0.208296   -0.115958
     36          6           0        7.711750   -1.259398    0.428568
     37          6           0        6.369218    0.783490   -0.257723
     38          6           0       -0.969204    1.807690   -0.158583
     39          6           0        5.017328    0.151833   -0.085336
     40          6           0        0.123586    0.892244    0.078990
     41          6           0        3.837414    0.871660   -0.144605
     42          6           0        1.442532    1.193726   -0.152341
     43          6           0        2.575656    0.320527    0.007098
     44          6           0        2.351682   -1.106517    0.404217
     45          1           0      -13.163111   -2.834916   -0.848208
     46          1           0      -13.877391   -1.374492   -1.512817
     47          1           0      -13.424356    0.367667    2.000968
     48          1           0      -13.828100    0.671590    0.277402
     49          1           0      -14.523809   -1.639445    0.615014
     50          1           0      -10.678637   -3.100930   -1.541996
     51          1           0      -11.449838   -2.312308   -3.214667
     52          1           0       -9.739433   -1.683028   -2.304379
     53          1           0       -9.425432    0.868482   -1.173680
     54          1           0      -10.028081   -0.018980    2.050114
     55          1           0      -11.757822    0.412514    2.909974
     56          1           0      -11.274250   -1.148196    2.320958
     57          1           0      -12.054192    2.292900   -0.250849
     58          1           0      -12.384230    2.383176    1.566020
     59          1           0      -10.726403    2.369108    0.955665
     60          1           0      -12.054383   -2.565756    1.260330
     61          1           0       -8.978992   -1.661546    0.485632
     62          1           0       -5.624350   -2.022689   -0.287154
     63          1           0       -5.757823   -1.472016    1.312151
     64          1           0       -7.044363   -2.718450    0.741384
     65          1           0       -7.294849    1.618940   -0.341691
     66          1           0       -4.504244    0.158415    0.248907
     67          1           0       13.315252   -1.219764    2.468062
     68          1           0       11.703467   -2.007563    1.710614
     69          1           0       13.775221   -2.738297    0.761860
     70          1           0       12.952190   -2.537479   -1.617679
     71          1           0       11.671560   -2.661426   -0.494944
     72          1           0       11.438855    0.129977    3.381025
     73          1           0       10.624026    1.445187    2.338953
     74          1           0        9.913085   -0.402291    2.541998
     75          1           0       13.789150    0.966818    0.443708
     76          1           0       12.331865    2.133316    0.928218
     77          1           0       13.278198    1.479339    2.422419
     78          1           0       12.884401   -0.326039   -3.068796
     79          1           0       12.030184    1.157912   -2.509531
     80          1           0       13.450398    0.516993   -1.355308
     81          1           0       -5.643581    2.882584   -0.588613
     82          1           0        9.784273   -0.505245   -2.411224
     83          1           0       14.932927   -0.781116    0.774706
     84          1           0        8.579055    2.104135   -0.552836
     85          1           0       -2.073927    4.236027    0.063949
     86          1           0       -2.476036    4.107320   -1.622398
     87          1           0       -3.753317    4.633217   -0.680984
     88          1           0       -2.506310    0.547826    0.436227
     89          1           0        6.832768   -1.947854    0.437930
     90          1           0        8.453943   -1.748966   -0.487717
     91          1           0        8.139010   -1.013218    1.432605
     92          1           0        6.305627    1.765505   -0.735041
     93          1           0       -0.675490    2.775250   -0.783643
     94          1           0        4.984972   -0.900956    0.230025
     95          1           0       -0.425029   -0.043319    0.619842
     96          1           0        3.918867    1.923966   -0.297148
     97          1           0        1.745157    2.270343   -0.562099
     98          1           0        1.251924   -1.239911    0.092962
     99          1           0        3.076609   -1.852259   -0.040720
    100          1           0        2.614251   -1.128126    1.507434
 ---------------------------------------------------------------------

 SCF Done:  E(RCAM-B3LYP) =  -1857.31977332     A.U. after   16 cycles

 Excitation energies and oscillator strengths:

 Excited State   1:      Singlet-A      1.8384 eV  674.43 nm  f=2.9003  <S**2>=0.000
     163 ->166         0.11395
     164 ->165         0.70640
     164 <-165        -0.13199
 This state for optimization and/or second-order correction.
 Total Energy, E(TD-HF/TD-DFT) =  -1857.25221513
 Copying the excited state density for this state as the 1-particle RhoCI density.

 The electronic state is 1-A.
 Alpha  occ. eigenvalues --  -19.22270 -19.20813 -19.20784 -19.20504 -10.32683
 Alpha  occ. eigenvalues --  -10.31924 -10.31490 -10.31237 -10.29557 -10.29370
 Alpha  occ. eigenvalues --  -10.28925 -10.28612 -10.28170 -10.28088 -10.27872
 Alpha  occ. eigenvalues --  -10.27693 -10.27639 -10.27613 -10.27587 -10.27396
 Alpha  occ. eigenvalues --  -10.27356 -10.27308 -10.27271 -10.27224 -10.27197
 Alpha  occ. eigenvalues --  -10.27062 -10.27054 -10.26973 -10.26970 -10.26961
 Alpha  occ. eigenvalues --  -10.26869 -10.26798 -10.26796 -10.26685 -10.26621
 Alpha  occ. eigenvalues --  -10.26091 -10.25986 -10.25748 -10.25573 -10.25543
 Alpha  occ. eigenvalues --  -10.25073 -10.25001 -10.24932 -10.24251  -1.17959
 Alpha  occ. eigenvalues --   -1.10593  -1.09300  -1.07660  -0.93559  -0.92147
 Alpha  occ. eigenvalues --   -0.92013  -0.91176  -0.90957  -0.89954  -0.87840
 Alpha  occ. eigenvalues --   -0.87200  -0.86798  -0.85340  -0.84334  -0.82909
 Alpha  occ. eigenvalues --   -0.81774  -0.80284  -0.79860  -0.78160  -0.76443
 Alpha  occ. eigenvalues --   -0.76385  -0.76136  -0.75981  -0.75671  -0.75106
 Alpha  occ. eigenvalues --   -0.74917  -0.74835  -0.72488  -0.71142  -0.69889
 Alpha  occ. eigenvalues --   -0.68714  -0.67289  -0.66037  -0.65285  -0.64225
 Alpha  occ. eigenvalues --   -0.63399  -0.61662  -0.60371  -0.60069  -0.59694
 Alpha  occ. eigenvalues --   -0.59219  -0.58851  -0.58501  -0.57857  -0.57418
 Alpha  occ. eigenvalues --   -0.55424  -0.55147  -0.54951  -0.54336  -0.54123
 Alpha  occ. eigenvalues --   -0.53759  -0.52895  -0.52424  -0.51977  -0.51775
 Alpha  occ. eigenvalues --   -0.51355  -0.50509  -0.50355  -0.50161  -0.49793
 Alpha  occ. eigenvalues --   -0.49473  -0.49170  -0.49004  -0.48382  -0.48271
 Alpha  occ. eigenvalues --   -0.47785  -0.47365  -0.47314  -0.47133  -0.46525
 Alpha  occ. eigenvalues --   -0.46164  -0.46019  -0.45328  -0.45067  -0.44922
 Alpha  occ. eigenvalues --   -0.44686  -0.44558  -0.44443  -0.44268  -0.43581
 Alpha  occ. eigenvalues --   -0.43176  -0.42988  -0.42776  -0.42385  -0.42370
 Alpha  occ. eigenvalues --   -0.41867  -0.41505  -0.41474  -0.41358  -0.41234
 Alpha  occ. eigenvalues --   -0.41102  -0.40716  -0.40525  -0.40269  -0.40062
 Alpha  occ. eigenvalues --   -0.39859  -0.39366  -0.39006  -0.38791  -0.38638
 Alpha  occ. eigenvalues --   -0.38269  -0.38125  -0.37904  -0.37148  -0.36416
 Alpha  occ. eigenvalues --   -0.36292  -0.36102  -0.35383  -0.34655  -0.34237
 Alpha  occ. eigenvalues --   -0.32503  -0.32196  -0.31944  -0.31466  -0.31088
 Alpha  occ. eigenvalues --   -0.29935  -0.27436  -0.24625  -0.18600
 Alpha virt. eigenvalues --   -0.07165  -0.00896   0.02615   0.06201   0.07418
 Alpha virt. eigenvalues --    0.09346   0.09907   0.10087   0.10470   0.11295
 Alpha virt. eigenvalues --    0.12447   0.12569   0.12844   0.13417   0.13441

 Mulliken charges:
               1
     1  O   -0.498108
     2  O   -0.555344
     3  O   -0.619874
     4  O   -0.556463
     5  C    0.190145
     6  C    0.279229
     7  C    0.004210
     8  C   -0.229932
     9  C   -0.173995
    10  C    0.166553
    11  C   -0.324022
    12  C   -0.116053
    13  C   -0.306568
    14  C   -0.309510
    15  C   -0.082385
    16  C    0.101427
    17  C   -0.380602
    18  C   -0.131687
    19  C   -0.045026
    20  C    0.042472
    21  C    0.303838
    22  C   -0.206174
    23  C    0.171338
    24  C   -0.187100
    25  C   -0.121110
    26  C   -0.290139
    27  C   -0.297077
    28  C   -0.283162
    29  C   -0.113207
    30  C    0.178757
    31  C    0.064572
    32  C   -0.295587
    33  C   -0.371904
    34  C   -0.117754
    35  C    0.126015
    36  C   -0.343779
    37  C   -0.125638
    38  C   -0.075851
    39  C   -0.108319
    40  C   -0.104367
    41  C   -0.095251
    42  C   -0.135818
    43  C    0.110996
    44  C   -0.363091
    45  H    0.118026
    46  H    0.117224
    47  H    0.097999
    48  H    0.100640
    49  H    0.105389
    50  H    0.089975
    51  H    0.081860
    52  H    0.111499
    53  H    0.106132
    54  H    0.089495
    55  H    0.094823
    56  H    0.095216
    57  H    0.113090
    58  H    0.095693
    59  H    0.116787
    60  H    0.298139
    61  H    0.070899
    62  H    0.109952
    63  H    0.136952
    64  H    0.109466
    65  H    0.086486
    66  H    0.074201
    67  H    0.078804
    68  H    0.073938
    69  H    0.092974
    70  H    0.113476
    71  H    0.129365
    72  H    0.103582
    73  H    0.092676
    74  H    0.092863
    75  H    0.133317
    76  H    0.091620
    77  H    0.071407
    78  H    0.097716
    79  H    0.088107
    80  H    0.109170
    81  H    0.086305
    82  H    0.328912
    83  H    0.299570
    84  H    0.110102
    85  H    0.104877
    86  H    0.141034
    87  H    0.099648
    88  H    0.081811
    89  H    0.115537
    90  H    0.100185
    91  H    0.130779
    92  H    0.076388
    93  H    0.080567
    94  H    0.073529
    95  H    0.085582
    96  H    0.079550
    97  H    0.085859
    98  H    0.115087
    99  H    0.114335
   100  H    0.126735
 Sum of Mulliken charges =  -0.00000

 Dipole moment (field-independent basis, Debye):
    X=              2.7287    Y=             -0.7120    Z=              1.8434  Tot=              3.3691
 Quadrupole moment (field-independent basis, Debye-Ang):
   XX=           -286.7505   YY=           -261.2952   ZZ=           -280.2740
   XY=             -0.3480   XZ=             33.4914   YZ=             -4.7302

 Normal termination of Gaussian 16 at Mon Jul 29 08:33:02 2019.
