 Gaussian 16, Revision A.03,
 Gaussian 16:  ES64L-G16RevA.03 25-Dec-2016

 -------------------------------------
 # td=(NStates=1) CAM-B3LYP/6-31G(d,p)
 -------------------------------------

 --
 TD
 --
 Symbolic Z-matrix:
 Charge =  0 Multiplicity = 1

                         Standard orientation:
 ---------------------------------------------------------------------
 Center     Atomic      Atomic             Coordinates (Angstroms)
 Number     Number       Type             X           Y           Z
 ---------------------------------------------------------------------
      1          8           0      -11.681078    0.275123   -1.548318
      2          8           0      -12.783132   -2.545504    1.318457
      3          8           0       10.512951   -1.252754   -2.017607
      4          8           0       14.441664   -1.205080   -0.086060
      5          6           0      -10.989427   -0.034341   -0.321648
      6          6           0      -11.542598   -1.117231   -1.213517
      7          6           0      -11.794583    0.333340    1.018466
      8          6           0      -12.920434   -1.765626   -1.056775
      9          6           0      -13.323111   -0.202013    0.945841
     10          6           0      -13.415805   -1.612499    0.421452
     11          6           0      -10.696751   -1.823445   -2.246682
     12          6           0       -9.518304    0.164291   -0.384708
     13          6           0      -11.150390   -0.202705    2.340842
     14          6           0      -11.850236    1.841438    0.977630
     15          6           0       -8.605011   -0.702465    0.190071
     16          6           0       -7.220445   -0.546834    0.245073
     17          6           0       -6.553085   -1.811797    0.499391
     18          6           0       -6.515665    0.648849   -0.131647
     19          6           0       -5.135256    0.897551   -0.071381
     20          6           0       11.910029    0.108482    1.253031
     21          6           0       11.644973   -0.758740   -1.295060
     22          6           0       12.577279   -1.244923    1.631569
     23          6           0       13.215048   -1.923439    0.304747
     24          6           0       12.309185   -2.007067   -0.836754
     25          6           0       11.140945    0.038367    0.073021
     26          6           0       11.008079    0.523666    2.568139
     27          6           0       12.978840    1.293914    1.132513
     28          6           0       12.439041    0.172771   -2.124738
     29          6           0       -4.663379    2.147051   -0.459810
     30          6           0        9.888836    0.503014   -0.087620
     31          6           0       -3.325604    2.525265   -0.478888
     32          6           0        8.655499    0.998344   -0.173831
     33          6           0       -3.065966    4.000637   -0.626269
     34          6           0       -2.336574    1.601719   -0.230502
     35          6           0        7.437145    0.272330    0.034277
     36          6           0        7.614183   -1.209133    0.461255
     37          6           0        6.227444    0.839788   -0.217799
     38          6           0       -0.983667    1.889946   -0.505385
     39          6           0        4.892559    0.275755   -0.020523
     40          6           0       -0.047672    0.970588   -0.091996
     41          6           0        3.727081    0.929441   -0.178336
     42          6           0        1.425352    1.209109   -0.149691
     43          6           0        2.452332    0.371087    0.019593
     44          6           0        2.251756   -1.034426    0.333296
     45          1           0      -12.880447   -2.796651   -1.094012
     46          1           0      -13.661924   -1.351932   -1.681702
     47          1           0      -13.745903   -0.306703    2.149241
     48          1           0      -14.076950    0.530662    0.351793
     49          1           0      -14.357499   -1.880197    0.559520
     50          1           0      -10.472517   -2.740677   -1.983543
     51          1           0      -11.428597   -2.145266   -3.045357
     52          1           0       -9.793270   -1.410711   -2.558249
     53          1           0       -9.115839    1.071846   -1.017988
     54          1           0       -9.906093    0.048097    2.260106
     55          1           0      -11.573183    0.446625    3.234813
     56          1           0      -11.546003   -1.259951    2.513153
     57          1           0      -12.349846    2.298482   -0.030100
     58          1           0      -12.325384    2.314776    1.757362
     59          1           0      -10.706991    2.244194    0.928529
     60          1           0      -12.058443   -3.077934    0.827592
     61          1           0       -8.995032   -1.472117    0.724811
     62          1           0       -5.478924   -1.990025   -0.124202
     63          1           0       -6.047666   -1.788793    1.455729
     64          1           0       -7.335442   -2.658715    0.437494
     65          1           0       -7.098139    1.513420   -0.443331
     66          1           0       -4.418905    0.075101    0.220364
     67          1           0       13.391945   -1.066611    2.437079
     68          1           0       11.765425   -2.062790    1.795112
     69          1           0       13.546776   -2.880101    0.718005
     70          1           0       12.990104   -2.339062   -1.758284
     71          1           0       11.415910   -2.780579   -0.613118
     72          1           0       11.600623    0.349838    3.500790
     73          1           0       10.740693    1.486165    2.380937
     74          1           0       10.355511   -0.151128    2.605819
     75          1           0       13.955574    0.963542    0.642876
     76          1           0       12.509876    2.267558    0.668695
     77          1           0       13.249065    1.603465    2.272815
     78          1           0       12.928485   -0.318633   -3.047361
     79          1           0       12.180321    1.028048   -2.409777
     80          1           0       13.249006    0.487008   -1.481695
     81          1           0       -5.320274    3.172727   -0.618096
     82          1           0       10.085423   -0.440167   -2.419392
     83          1           0       14.945985   -1.274522    0.653835
     84          1           0        8.472620    2.146126   -0.642692
     85          1           0       -2.405863    4.579351    0.066163
     86          1           0       -2.482599    4.210128   -1.558850
     87          1           0       -3.930340    4.469227   -0.594522
     88          1           0       -2.408327    0.555619   -0.307801
     89          1           0        6.713280   -1.781564    0.382774
     90          1           0        8.474790   -1.690226   -0.178527
     91          1           0        8.022560   -1.459105    1.494284
     92          1           0        6.225220    2.004687   -0.331524
     93          1           0       -0.564027    2.722819   -0.896266
     94          1           0        4.945272   -0.710418    0.308984
     95          1           0       -0.352460   -0.101441    0.162999
     96          1           0        3.874353    2.011272   -0.349408
     97          1           0        1.717071    2.234557   -0.173794
     98          1           0        1.191461   -1.326540    0.362121
     99          1           0        2.669510   -1.706060   -0.295155
    100          1           0        2.846938   -1.401362    1.169319
 ---------------------------------------------------------------------

 SCF Done:  E(RCAM-B3LYP) =  -1857.28450758     A.U. after   15 cycles

 Excitation energies and oscillator strengths:

 Excited State   1:      Singlet-A      2.2481 eV  551.51 nm  f=2.6636  <S**2>=0.000
     163 ->166         0.13782
     164 ->165         0.69348
 This state for optimization and/or second-order correction.
 Total Energy, E(TD-HF/TD-DFT) =  -1857.20189228
 Copying the excited state density for this state as the 1-particle RhoCI density.

 The electronic state is 1-A.
 Alpha  occ. eigenvalues --  -19.21987 -19.21699 -19.21535 -19.21375 -10.32534
 Alpha  occ. eigenvalues --  -10.32326 -10.31825 -10.31572 -10.29476 -10.28168
 Alpha  occ. eigenvalues --  -10.28131 -10.28115 -10.27961 -10.27710 -10.27564
 Alpha  occ. eigenvalues --  -10.27447 -10.27335 -10.27256 -10.27156 -10.27153
 Alpha  occ. eigenvalues --  -10.27099 -10.27037 -10.27037 -10.27030 -10.26985
 Alpha  occ. eigenvalues --  -10.26774 -10.26552 -10.26417 -10.26296 -10.26287
 Alpha  occ. eigenvalues --  -10.25871 -10.25794 -10.25761 -10.25723 -10.25452
 Alpha  occ. eigenvalues --  -10.25447 -10.25411 -10.25265 -10.25008 -10.24864
 Alpha  occ. eigenvalues --  -10.24395 -10.23707 -10.23033 -10.22920  -1.14387
 Alpha  occ. eigenvalues --   -1.10746  -1.09382  -1.08602  -0.92985  -0.92816
 Alpha  occ. eigenvalues --   -0.92318  -0.91386  -0.90069  -0.88589  -0.87486
 Alpha  occ. eigenvalues --   -0.86897  -0.86749  -0.85098  -0.84364  -0.83211
 Alpha  occ. eigenvalues --   -0.82647  -0.80925  -0.80580  -0.79327  -0.77182
 Alpha  occ. eigenvalues --   -0.76864  -0.76600  -0.76480  -0.75701  -0.74848
 Alpha  occ. eigenvalues --   -0.73992  -0.73558  -0.73320  -0.70386  -0.69167
 Alpha  occ. eigenvalues --   -0.68414  -0.66881  -0.65149  -0.64958  -0.64261
 Alpha  occ. eigenvalues --   -0.63335  -0.61969  -0.61117  -0.60214  -0.59577
 Alpha  occ. eigenvalues --   -0.58724  -0.58503  -0.58067  -0.57260  -0.56520
 Alpha  occ. eigenvalues --   -0.55807  -0.55341  -0.54871  -0.54470  -0.54260
 Alpha  occ. eigenvalues --   -0.53760  -0.52837  -0.52584  -0.52477  -0.51966
 Alpha  occ. eigenvalues --   -0.51719  -0.51406  -0.50544  -0.50387  -0.50084
 Alpha  occ. eigenvalues --   -0.48520  -0.48413  -0.48077  -0.47750  -0.47592
 Alpha  occ. eigenvalues --   -0.47524  -0.47287  -0.46631  -0.46478  -0.46247
 Alpha  occ. eigenvalues --   -0.46040  -0.45815  -0.45745  -0.45440  -0.45137
 Alpha  occ. eigenvalues --   -0.44903  -0.44702  -0.44385  -0.44197  -0.43738
 Alpha  occ. eigenvalues --   -0.43341  -0.43210  -0.43194  -0.43165  -0.42786
 Alpha  occ. eigenvalues --   -0.42722  -0.42528  -0.42010  -0.41744  -0.41199
 Alpha  occ. eigenvalues --   -0.40928  -0.40853  -0.40637  -0.40115  -0.39961
 Alpha  occ. eigenvalues --   -0.39673  -0.39574  -0.39474  -0.38952  -0.38843
 Alpha  occ. eigenvalues --   -0.38785  -0.38696  -0.38067  -0.37076  -0.36772
 Alpha  occ. eigenvalues --   -0.36574  -0.35775  -0.35304  -0.34757  -0.33290
 Alpha  occ. eigenvalues --   -0.32921  -0.32044  -0.31503  -0.30929  -0.30244
 Alpha  occ. eigenvalues --   -0.28948  -0.27649  -0.23773  -0.19823
 Alpha virt. eigenvalues --   -0.05454  -0.00815   0.03265   0.05284   0.06595
 Alpha virt. eigenvalues --    0.09269   0.09816   0.10249   0.11349   0.12293
 Alpha virt. eigenvalues --    0.12980   0.13059   0.13117   0.13731   0.14368

 Mulliken charges:
               1
     1  O   -0.504794
     2  O   -0.567986
     3  O   -0.559447
     4  O   -0.534772
     5  C    0.225230
     6  C    0.215869
     7  C    0.057925
     8  C   -0.229810
     9  C   -0.189557
    10  C    0.186353
    11  C   -0.322546
    12  C   -0.127003
    13  C   -0.322613
    14  C   -0.295034
    15  C   -0.096774
    16  C    0.117486
    17  C   -0.383900
    18  C   -0.110649
    19  C   -0.068245
    20  C    0.001419
    21  C    0.275317
    22  C   -0.205013
    23  C    0.128514
    24  C   -0.191114
    25  C   -0.079475
    26  C   -0.278336
    27  C   -0.313581
    28  C   -0.311622
    29  C   -0.126569
    30  C    0.164547
    31  C    0.102798
    32  C   -0.299030
    33  C   -0.369531
    34  C   -0.117352
    35  C    0.154984
    36  C   -0.387386
    37  C   -0.140224
    38  C   -0.066677
    39  C   -0.083536
    40  C   -0.101823
    41  C   -0.116982
    42  C   -0.163915
    43  C    0.176079
    44  C   -0.389176
    45  H    0.099381
    46  H    0.135762
    47  H    0.070380
    48  H    0.091127
    49  H    0.096039
    50  H    0.104975
    51  H    0.100738
    52  H    0.128370
    53  H    0.104142
    54  H    0.081596
    55  H    0.087190
    56  H    0.140946
    57  H    0.098441
    58  H    0.108232
    59  H    0.071086
    60  H    0.307341
    61  H    0.088346
    62  H    0.091592
    63  H    0.133701
    64  H    0.107226
    65  H    0.082408
    66  H    0.092242
    67  H    0.088614
    68  H    0.095032
    69  H    0.092004
    70  H    0.109671
    71  H    0.119064
    72  H    0.084657
    73  H    0.116960
    74  H    0.111804
    75  H    0.123338
    76  H    0.099957
    77  H    0.074567
    78  H    0.096264
    79  H    0.110484
    80  H    0.133468
    81  H    0.074267
    82  H    0.309538
    83  H    0.296544
    84  H    0.086252
    85  H    0.123325
    86  H    0.118119
    87  H    0.113263
    88  H    0.094340
    89  H    0.110162
    90  H    0.127588
    91  H    0.112427
    92  H    0.067666
    93  H    0.080396
    94  H    0.067296
    95  H    0.070601
    96  H    0.081732
    97  H    0.077997
    98  H    0.107828
    99  H    0.132466
   100  H    0.118997
 Sum of Mulliken charges =  -0.00000

 Dipole moment (field-independent basis, Debye):
    X=              2.8742    Y=             -1.3737    Z=              0.9907  Tot=              3.3361
 Quadrupole moment (field-independent basis, Debye-Ang):
   XX=           -256.9438   YY=           -253.8815   ZZ=           -278.8704
   XY=             12.9214   XZ=             30.5189   YZ=             -5.0149

 Normal termination of Gaussian 16 at Wed Jul 31 09:30:51 2019.
