 Gaussian 16, Revision A.03,
 Gaussian 16:  ES64L-G16RevA.03 25-Dec-2016

 -------------------------------------
 # td=(NStates=1) CAM-B3LYP/6-31G(d,p)
 -------------------------------------

 --
 TD
 --
 Symbolic Z-matrix:
 Charge =  0 Multiplicity = 1

                         Standard orientation:
 ---------------------------------------------------------------------
 Center     Atomic      Atomic             Coordinates (Angstroms)
 Number     Number       Type             X           Y           Z
 ---------------------------------------------------------------------
      1          8           0      -11.752704    0.355473   -1.532016
      2          8           0      -12.827885   -2.576500    1.220809
      3          8           0       10.830431   -1.098780   -2.275961
      4          8           0       14.639160   -1.004827    0.054049
      5          6           0      -11.094301   -0.131200   -0.254732
      6          6           0      -11.577934   -1.035914   -1.226467
      7          6           0      -11.842094    0.283142    0.947501
      8          6           0      -12.872338   -1.775104   -1.048918
      9          6           0      -13.391248   -0.273499    0.891727
     10          6           0      -13.461491   -1.654912    0.299236
     11          6           0      -10.677962   -1.739382   -2.329256
     12          6           0       -9.675644    0.167313   -0.333403
     13          6           0      -11.269384   -0.384721    2.276289
     14          6           0      -11.870342    1.760986    1.101627
     15          6           0       -8.663186   -0.716414    0.227616
     16          6           0       -7.260934   -0.426199    0.300297
     17          6           0       -6.430660   -1.740804    0.424867
     18          6           0       -6.636791    0.774056    0.143532
     19          6           0       -5.289372    1.006429    0.003508
     20          6           0       11.795283   -0.086984    1.499010
     21          6           0       11.715455   -0.563565   -1.371182
     22          6           0       12.535460   -1.337524    1.540087
     23          6           0       13.454826   -1.799643    0.313352
     24          6           0       12.537277   -1.775797   -0.973908
     25          6           0       11.135842    0.031797    0.048052
     26          6           0       10.728693    0.017853    2.609531
     27          6           0       12.926999    1.165043    1.583664
     28          6           0       12.589081    0.594757   -2.007384
     29          6           0       -4.715927    2.270476   -0.215509
     30          6           0        9.898044    0.444665    0.039840
     31          6           0       -3.399897    2.625676   -0.369682
     32          6           0        8.752385    0.978597   -0.238196
     33          6           0       -3.032882    4.028755   -0.624968
     34          6           0       -2.247598    1.689165   -0.292013
     35          6           0        7.507020    0.188054   -0.032158
     36          6           0        7.629810   -1.327104    0.041841
     37          6           0        6.229442    0.848564   -0.061315
     38          6           0       -0.851326    1.922890   -0.233898
     39          6           0        4.920741    0.206115   -0.015263
     40          6           0        0.034984    0.877445   -0.245596
     41          6           0        3.741976    0.831006   -0.157946
     42          6           0        1.371514    1.204118   -0.187531
     43          6           0        2.448208    0.290877   -0.098548
     44          6           0        2.226301   -1.124364    0.077941
     45          1           0      -12.669926   -2.929772   -1.138884
     46          1           0      -13.607387   -1.373556   -1.725781
     47          1           0      -13.860852   -0.405884    1.875786
     48          1           0      -14.028981    0.416744    0.132571
     49          1           0      -14.470048   -1.986457    0.279907
     50          1           0      -10.174511   -2.697095   -2.060517
     51          1           0      -11.121928   -1.943055   -3.496421
     52          1           0       -9.928311   -1.129620   -2.534305
     53          1           0       -9.583047    1.149464   -0.800608
     54          1           0      -10.267059   -0.151770    2.307863
     55          1           0      -11.698080    0.185880    3.120651
     56          1           0      -11.514544   -1.587814    2.576043
     57          1           0      -12.146819    2.258965    0.224927
     58          1           0      -12.525093    2.223456    1.990672
     59          1           0      -10.874233    2.020529    1.434188
     60          1           0      -11.930300   -2.487746    1.045737
     61          1           0       -8.947754   -1.643499    0.577818
     62          1           0       -5.888174   -1.853538   -0.536600
     63          1           0       -5.803568   -1.930266    1.174831
     64          1           0       -7.094398   -2.632250    0.471864
     65          1           0       -7.229586    1.710588   -0.224030
     66          1           0       -4.688298    0.201993   -0.195797
     67          1           0       13.060345   -1.330938    2.474615
     68          1           0       11.729119   -2.160104    1.494605
     69          1           0       13.595263   -2.758373    0.408306
     70          1           0       13.326636   -2.033736   -1.703074
     71          1           0       11.761037   -2.707454   -0.898843
     72          1           0       11.171463   -0.054395    3.647454
     73          1           0       10.341788    1.073514    2.470677
     74          1           0       10.041989   -0.748705    2.625466
     75          1           0       13.541414    1.016534    0.525235
     76          1           0       12.415406    2.079084    1.608261
     77          1           0       13.552622    0.947345    2.627472
     78          1           0       12.959953    0.069520   -2.905175
     79          1           0       11.952856    1.552697   -2.396848
     80          1           0       13.594047    0.779555   -1.425563
     81          1           0       -5.381841    3.097492   -0.227649
     82          1           0       10.128224   -0.456631   -2.374956
     83          1           0       15.195477   -1.191101    0.839503
     84          1           0        8.564764    1.935519   -0.386207
     85          1           0       -2.660475    4.413117    0.335134
     86          1           0       -2.343154    4.301480   -1.477993
     87          1           0       -3.961065    4.577353   -1.036002
     88          1           0       -2.622375    0.739599   -0.154697
     89          1           0        6.725565   -1.903181    0.056000
     90          1           0        8.247612   -1.733669   -0.788023
     91          1           0        7.938998   -1.570040    0.988324
     92          1           0        6.202004    1.870647   -0.097962
     93          1           0       -0.528758    2.930738   -0.444480
     94          1           0        4.849595   -0.827681    0.255646
     95          1           0       -0.211151   -0.253673   -0.338682
     96          1           0        3.948290    1.950115   -0.384677
     97          1           0        1.617605    2.170257   -0.223030
     98          1           0        1.190277   -1.330339    0.406250
     99          1           0        2.271366   -1.767604   -0.813792
    100          1           0        3.217794   -1.383042    0.769874
 ---------------------------------------------------------------------

 SCF Done:  E(RCAM-B3LYP) =  -1857.31684629     A.U. after   15 cycles

 Excitation energies and oscillator strengths:

 Excited State   1:      Singlet-A      1.9067 eV  650.25 nm  f=2.9335  <S**2>=0.000
     163 ->166        -0.11899
     164 ->165         0.70436
     164 <-165        -0.12319
 This state for optimization and/or second-order correction.
 Total Energy, E(TD-HF/TD-DFT) =  -1857.24677556
 Copying the excited state density for this state as the 1-particle RhoCI density.

 The electronic state is 1-A.
 Alpha  occ. eigenvalues --  -19.23204 -19.22945 -19.21538 -19.20051 -10.33735
 Alpha  occ. eigenvalues --  -10.32115 -10.31490 -10.31007 -10.28972 -10.28834
 Alpha  occ. eigenvalues --  -10.28683 -10.28203 -10.27643 -10.27590 -10.27391
 Alpha  occ. eigenvalues --  -10.27382 -10.27238 -10.27231 -10.27225 -10.27037
 Alpha  occ. eigenvalues --  -10.26887 -10.26726 -10.26596 -10.26395 -10.26367
 Alpha  occ. eigenvalues --  -10.26321 -10.26152 -10.26086 -10.26055 -10.25998
 Alpha  occ. eigenvalues --  -10.25955 -10.25932 -10.25895 -10.25783 -10.25742
 Alpha  occ. eigenvalues --  -10.25706 -10.25450 -10.25334 -10.25238 -10.25142
 Alpha  occ. eigenvalues --  -10.25137 -10.24766 -10.24691 -10.24679  -1.13810
 Alpha  occ. eigenvalues --   -1.12922  -1.10004  -1.09874  -0.92856  -0.92463
 Alpha  occ. eigenvalues --   -0.91973  -0.90956  -0.90312  -0.89798  -0.88119
 Alpha  occ. eigenvalues --   -0.86949  -0.85593  -0.85444  -0.84694  -0.82959
 Alpha  occ. eigenvalues --   -0.82263  -0.80390  -0.79985  -0.78883  -0.77269
 Alpha  occ. eigenvalues --   -0.76716  -0.76259  -0.76052  -0.75872  -0.75814
 Alpha  occ. eigenvalues --   -0.75384  -0.74159  -0.72842  -0.71424  -0.71010
 Alpha  occ. eigenvalues --   -0.68869  -0.67148  -0.65635  -0.65345  -0.64454
 Alpha  occ. eigenvalues --   -0.63593  -0.61933  -0.60934  -0.60610  -0.59898
 Alpha  occ. eigenvalues --   -0.59626  -0.58866  -0.58649  -0.58301  -0.56814
 Alpha  occ. eigenvalues --   -0.55951  -0.55733  -0.54988  -0.54718  -0.54454
 Alpha  occ. eigenvalues --   -0.53774  -0.53223  -0.52413  -0.52099  -0.51883
 Alpha  occ. eigenvalues --   -0.51016  -0.50786  -0.50277  -0.50032  -0.49809
 Alpha  occ. eigenvalues --   -0.49514  -0.49452  -0.49239  -0.49164  -0.48816
 Alpha  occ. eigenvalues --   -0.48347  -0.47879  -0.47681  -0.47098  -0.47034
 Alpha  occ. eigenvalues --   -0.46387  -0.46267  -0.45946  -0.45506  -0.45165
 Alpha  occ. eigenvalues --   -0.44987  -0.44360  -0.44106  -0.44022  -0.43994
 Alpha  occ. eigenvalues --   -0.43803  -0.43334  -0.43114  -0.42916  -0.42630
 Alpha  occ. eigenvalues --   -0.42421  -0.42076  -0.41733  -0.41679  -0.41388
 Alpha  occ. eigenvalues --   -0.41189  -0.40588  -0.40315  -0.40209  -0.39960
 Alpha  occ. eigenvalues --   -0.39808  -0.39777  -0.39058  -0.38943  -0.38591
 Alpha  occ. eigenvalues --   -0.38316  -0.38093  -0.37676  -0.37612  -0.37371
 Alpha  occ. eigenvalues --   -0.36966  -0.35884  -0.35571  -0.34818  -0.34537
 Alpha  occ. eigenvalues --   -0.33183  -0.32750  -0.32079  -0.31332  -0.30583
 Alpha  occ. eigenvalues --   -0.29920  -0.27675  -0.24150  -0.18769
 Alpha virt. eigenvalues --   -0.06838  -0.00812   0.02688   0.06287   0.06904
 Alpha virt. eigenvalues --    0.09680   0.10441   0.11135   0.11209   0.11664
 Alpha virt. eigenvalues --    0.12753   0.12919   0.13841   0.13971   0.14303

 Mulliken charges:
               1
     1  O   -0.522029
     2  O   -0.543901
     3  O   -0.529131
     4  O   -0.541957
     5  C    0.189219
     6  C    0.241773
     7  C    0.019979
     8  C   -0.201643
     9  C   -0.168663
    10  C    0.129185
    11  C   -0.316986
    12  C   -0.108838
    13  C   -0.344542
    14  C   -0.316269
    15  C   -0.099947
    16  C    0.077632
    17  C   -0.382030
    18  C   -0.107971
    19  C   -0.062025
    20  C    0.002333
    21  C    0.268210
    22  C   -0.176385
    23  C    0.145960
    24  C   -0.205271
    25  C   -0.064297
    26  C   -0.299918
    27  C   -0.296724
    28  C   -0.320117
    29  C   -0.120874
    30  C    0.141176
    31  C    0.078588
    32  C   -0.259398
    33  C   -0.382704
    34  C   -0.108392
    35  C    0.079153
    36  C   -0.372576
    37  C   -0.132683
    38  C   -0.096078
    39  C   -0.081267
    40  C   -0.062731
    41  C   -0.100471
    42  C   -0.093351
    43  C    0.111025
    44  C   -0.370023
    45  H    0.101306
    46  H    0.124331
    47  H    0.110694
    48  H    0.078333
    49  H    0.098781
    50  H    0.096904
    51  H    0.085307
    52  H    0.130800
    53  H    0.124158
    54  H    0.116629
    55  H    0.105996
    56  H    0.106648
    57  H    0.134236
    58  H    0.091385
    59  H    0.105209
    60  H    0.290664
    61  H    0.086800
    62  H    0.122769
    63  H    0.133263
    64  H    0.097711
    65  H    0.079366
    66  H    0.083546
    67  H    0.078815
    68  H    0.081018
    69  H    0.106276
    70  H    0.110699
    71  H    0.099440
    72  H    0.090274
    73  H    0.112014
    74  H    0.119230
    75  H    0.118673
    76  H    0.112285
    77  H    0.066118
    78  H    0.114681
    79  H    0.088976
    80  H    0.129108
    81  H    0.077763
    82  H    0.307863
    83  H    0.314301
    84  H    0.096776
    85  H    0.132636
    86  H    0.117967
    87  H    0.094928
    88  H    0.064816
    89  H    0.109793
    90  H    0.123835
    91  H    0.131769
    92  H    0.071181
    93  H    0.096581
    94  H    0.066487
    95  H    0.090325
    96  H    0.070641
    97  H    0.069320
    98  H    0.111420
    99  H    0.129417
   100  H    0.094696
 Sum of Mulliken charges =  -0.00000

 Dipole moment (field-independent basis, Debye):
    X=              4.9066    Y=             -0.7304    Z=              1.4148  Tot=              5.1584
 Quadrupole moment (field-independent basis, Debye-Ang):
   XX=           -283.1296   YY=           -260.0586   ZZ=           -276.8124
   XY=            -12.5675   XZ=             27.5415   YZ=             -2.5954

 Normal termination of Gaussian 16 at Tue Jul 30 05:00:58 2019.
