 Gaussian 16, Revision A.03,
 Gaussian 16:  ES64L-G16RevA.03 25-Dec-2016

 -------------------------------------
 # td=(NStates=1) CAM-B3LYP/6-31G(d,p)
 -------------------------------------

 --
 TD
 --
 Symbolic Z-matrix:
 Charge =  0 Multiplicity = 1

                         Standard orientation:
 ---------------------------------------------------------------------
 Center     Atomic      Atomic             Coordinates (Angstroms)
 Number     Number       Type             X           Y           Z
 ---------------------------------------------------------------------
      1          8           0      -11.768080    0.283247   -1.582408
      2          8           0      -12.948986   -2.523460    1.243808
      3          8           0       10.695576   -0.834075   -2.242074
      4          8           0       14.479749   -1.204711   -0.120069
      5          6           0      -11.050605   -0.150374   -0.376834
      6          6           0      -11.692318   -1.069648   -1.326051
      7          6           0      -11.812686    0.335705    0.880682
      8          6           0      -12.943759   -1.803781   -1.033401
      9          6           0      -13.330356   -0.034882    0.812348
     10          6           0      -13.465558   -1.510294    0.331750
     11          6           0      -10.886949   -1.758720   -2.339475
     12          6           0       -9.597793    0.154333   -0.459824
     13          6           0      -11.270828   -0.223467    2.287059
     14          6           0      -11.802938    1.857855    0.974068
     15          6           0       -8.717017   -0.761079    0.251574
     16          6           0       -7.252158   -0.579137    0.265793
     17          6           0       -6.461308   -1.786651    0.637925
     18          6           0       -6.683045    0.649437    0.030566
     19          6           0       -5.281003    0.803291    0.085310
     20          6           0       11.876653    0.034682    1.377255
     21          6           0       11.804067   -0.466418   -1.249097
     22          6           0       12.616425   -1.435619    1.360384
     23          6           0       13.344131   -1.940677    0.118475
     24          6           0       12.323261   -1.751907   -1.050911
     25          6           0       11.142923    0.084021    0.054645
     26          6           0       10.989028    0.033175    2.561699
     27          6           0       12.949465    1.088247    1.399312
     28          6           0       12.644298    0.574041   -1.990140
     29          6           0       -4.733664    2.113178   -0.278169
     30          6           0        9.948149    0.523911    0.009744
     31          6           0       -3.373674    2.468681   -0.377748
     32          6           0        8.718260    1.034716   -0.073325
     33          6           0       -3.074830    3.919468   -0.604937
     34          6           0       -2.387296    1.606734   -0.168483
     35          6           0        7.552835    0.173852    0.080262
     36          6           0        7.808261   -1.182236    0.149806
     37          6           0        6.297405    0.759656    0.058539
     38          6           0       -1.009229    1.886340   -0.212484
     39          6           0        5.004433    0.113035    0.092257
     40          6           0       -0.004054    0.869873   -0.322370
     41          6           0        3.784966    0.894180    0.017026
     42          6           0        1.399412    1.189915   -0.163575
     43          6           0        2.534257    0.266358    0.053954
     44          6           0        2.290263   -1.121750    0.214438
     45          1           0      -12.752640   -2.936569   -0.961712
     46          1           0      -13.573699   -1.351412   -1.912641
     47          1           0      -13.784439    0.110607    1.836304
     48          1           0      -13.830473    0.432417    0.045186
     49          1           0      -14.536580   -1.833538    0.484802
     50          1           0      -10.278672   -2.651645   -1.901516
     51          1           0      -11.372920   -2.084299   -3.206377
     52          1           0       -9.974054   -1.016491   -2.667282
     53          1           0       -9.315503    0.897295   -1.162369
     54          1           0      -10.342024    0.258955    2.403796
     55          1           0      -12.071246    0.171770    2.969884
     56          1           0      -11.203115   -1.302205    2.594889
     57          1           0      -12.146300    2.364994   -0.104830
     58          1           0      -12.400405    2.469967    1.866936
     59          1           0      -10.723757    2.253259    0.988738
     60          1           0      -11.756366   -2.452131    1.261527
     61          1           0       -9.038194   -1.641028    0.798381
     62          1           0       -5.968221   -2.335550   -0.325875
     63          1           0       -5.675375   -1.631493    1.324128
     64          1           0       -7.066013   -2.564568    1.086989
     65          1           0       -7.358597    1.494980   -0.027044
     66          1           0       -4.498326    0.177526    0.218987
     67          1           0       13.360062   -1.394123    2.135764
     68          1           0       11.890061   -2.335575    1.599540
     69          1           0       13.472584   -2.765012    0.067621
     70          1           0       12.670047   -1.967329   -2.203161
     71          1           0       11.571556   -2.457023   -0.813813
     72          1           0       11.563759    0.190353    3.442281
     73          1           0       10.206483    0.981604    2.702281
     74          1           0       10.348827   -0.766479    2.639592
     75          1           0       13.867652    0.923055    0.767139
     76          1           0       12.536563    2.094113    0.937002
     77          1           0       13.404536    1.098774    2.390608
     78          1           0       13.004368    0.317831   -2.911710
     79          1           0       12.065127    1.612958   -2.116481
     80          1           0       13.424504    0.827482   -1.498080
     81          1           0       -5.649589    2.716247   -0.638069
     82          1           0       10.397985    0.215954   -2.661781
     83          1           0       14.959623   -1.335570    0.864672
     84          1           0        8.545457    2.016064   -0.180636
     85          1           0       -2.470916    4.364142    0.247846
     86          1           0       -2.535327    4.095521   -1.585844
     87          1           0       -3.989300    4.591783   -0.628785
     88          1           0       -2.589237    0.537163   -0.079392
     89          1           0        7.038592   -2.041449    0.143771
     90          1           0        8.493522   -1.462082   -0.616770
     91          1           0        8.518222   -1.471994    1.209496
     92          1           0        6.264178    1.951972   -0.025803
     93          1           0       -0.891574    2.941309   -0.443758
     94          1           0        4.922818   -0.856191    0.072611
     95          1           0       -0.374910   -0.191325   -0.216725
     96          1           0        4.146174    1.932744   -0.103587
     97          1           0        1.644029    2.235510    0.080211
     98          1           0        1.266587   -1.417647    0.232925
     99          1           0        3.078799   -1.513867   -0.518801
    100          1           0        2.655051   -1.416036    1.236592
 ---------------------------------------------------------------------

 SCF Done:  E(RCAM-B3LYP) =  -1857.18158141     A.U. after   15 cycles

 Excitation energies and oscillator strengths:

 Excited State   1:      Singlet-A      1.9409 eV  638.79 nm  f=3.0977  <S**2>=0.000
     163 ->166         0.13920
     164 ->165         0.69659
     164 <-165        -0.10356
 This state for optimization and/or second-order correction.
 Total Energy, E(TD-HF/TD-DFT) =  -1857.11025376
 Copying the excited state density for this state as the 1-particle RhoCI density.

 The electronic state is 1-A.
 Alpha  occ. eigenvalues --  -19.23506 -19.21801 -19.21771 -19.21745 -10.31896
 Alpha  occ. eigenvalues --  -10.31711 -10.31170 -10.29981 -10.29080 -10.28887
 Alpha  occ. eigenvalues --  -10.28401 -10.28279 -10.27992 -10.27980 -10.27495
 Alpha  occ. eigenvalues --  -10.27304 -10.27250 -10.27115 -10.27047 -10.26954
 Alpha  occ. eigenvalues --  -10.26893 -10.26798 -10.26685 -10.26648 -10.26426
 Alpha  occ. eigenvalues --  -10.26379 -10.26358 -10.26257 -10.26199 -10.26137
 Alpha  occ. eigenvalues --  -10.26133 -10.26111 -10.26021 -10.25999 -10.25952
 Alpha  occ. eigenvalues --  -10.25713 -10.25677 -10.25470 -10.25182 -10.25173
 Alpha  occ. eigenvalues --  -10.25162 -10.25136 -10.24598 -10.24061  -1.16323
 Alpha  occ. eigenvalues --   -1.11145  -1.05178  -1.04726  -0.93603  -0.92389
 Alpha  occ. eigenvalues --   -0.91947  -0.91032  -0.90721  -0.89716  -0.87401
 Alpha  occ. eigenvalues --   -0.86738  -0.86170  -0.85282  -0.84275  -0.83279
 Alpha  occ. eigenvalues --   -0.81978  -0.81397  -0.80017  -0.78289  -0.77879
 Alpha  occ. eigenvalues --   -0.77227  -0.76680  -0.76325  -0.76003  -0.75654
 Alpha  occ. eigenvalues --   -0.74992  -0.73840  -0.72595  -0.71774  -0.69841
 Alpha  occ. eigenvalues --   -0.68651  -0.66269  -0.65137  -0.64945  -0.63838
 Alpha  occ. eigenvalues --   -0.63343  -0.62501  -0.61370  -0.60275  -0.59831
 Alpha  occ. eigenvalues --   -0.59073  -0.57990  -0.57956  -0.57906  -0.56244
 Alpha  occ. eigenvalues --   -0.56128  -0.55679  -0.54873  -0.54526  -0.53989
 Alpha  occ. eigenvalues --   -0.53401  -0.53026  -0.52756  -0.51942  -0.51888
 Alpha  occ. eigenvalues --   -0.51555  -0.50967  -0.50604  -0.50108  -0.49918
 Alpha  occ. eigenvalues --   -0.49611  -0.49171  -0.49002  -0.48549  -0.48505
 Alpha  occ. eigenvalues --   -0.48123  -0.48009  -0.47607  -0.47404  -0.47229
 Alpha  occ. eigenvalues --   -0.46763  -0.46207  -0.46133  -0.45704  -0.45101
 Alpha  occ. eigenvalues --   -0.44920  -0.44664  -0.44132  -0.44046  -0.43842
 Alpha  occ. eigenvalues --   -0.43592  -0.43460  -0.42993  -0.42636  -0.42541
 Alpha  occ. eigenvalues --   -0.42473  -0.42002  -0.41686  -0.41455  -0.41175
 Alpha  occ. eigenvalues --   -0.40656  -0.40541  -0.40266  -0.39510  -0.39430
 Alpha  occ. eigenvalues --   -0.39235  -0.39134  -0.38663  -0.38502  -0.38371
 Alpha  occ. eigenvalues --   -0.38162  -0.38122  -0.37841  -0.37361  -0.36808
 Alpha  occ. eigenvalues --   -0.36164  -0.35517  -0.34451  -0.34081  -0.33539
 Alpha  occ. eigenvalues --   -0.32998  -0.32607  -0.32015  -0.31252  -0.30540
 Alpha  occ. eigenvalues --   -0.30258  -0.27406  -0.23396  -0.18645
 Alpha virt. eigenvalues --   -0.06363  -0.01263   0.02846   0.06081   0.06874
 Alpha virt. eigenvalues --    0.07184   0.08333   0.09473   0.09776   0.10915
 Alpha virt. eigenvalues --    0.12262   0.12339   0.12720   0.13373   0.13718

 Mulliken charges:
               1
     1  O   -0.508020
     2  O   -0.561148
     3  O   -0.570187
     4  O   -0.537400
     5  C    0.162938
     6  C    0.285654
     7  C    0.018999
     8  C   -0.201762
     9  C   -0.166299
    10  C    0.148503
    11  C   -0.320125
    12  C   -0.122950
    13  C   -0.312619
    14  C   -0.304360
    15  C   -0.102927
    16  C    0.089211
    17  C   -0.374324
    18  C   -0.118100
    19  C   -0.044632
    20  C    0.054352
    21  C    0.245769
    22  C   -0.233813
    23  C    0.259061
    24  C   -0.208443
    25  C   -0.134261
    26  C   -0.300715
    27  C   -0.322317
    28  C   -0.304362
    29  C   -0.156160
    30  C    0.216279
    31  C    0.124036
    32  C   -0.256392
    33  C   -0.393355
    34  C   -0.108471
    35  C    0.183593
    36  C   -0.405415
    37  C   -0.147413
    38  C   -0.087843
    39  C   -0.075359
    40  C   -0.111584
    41  C   -0.097888
    42  C   -0.130689
    43  C    0.093974
    44  C   -0.365112
    45  H    0.122400
    46  H    0.108420
    47  H    0.098337
    48  H    0.115992
    49  H    0.095246
    50  H    0.089701
    51  H    0.120759
    52  H    0.092915
    53  H    0.125111
    54  H    0.117867
    55  H    0.104527
    56  H    0.096281
    57  H    0.101856
    58  H    0.092367
    59  H    0.090123
    60  H    0.269635
    61  H    0.084787
    62  H    0.101753
    63  H    0.129538
    64  H    0.106606
    65  H    0.099154
    66  H    0.078511
    67  H    0.071692
    68  H    0.084143
    69  H    0.053009
    70  H    0.096517
    71  H    0.120874
    72  H    0.103094
    73  H    0.083393
    74  H    0.122475
    75  H    0.128344
    76  H    0.099030
    77  H    0.097080
    78  H    0.124575
    79  H    0.071934
    80  H    0.134442
    81  H    0.079122
    82  H    0.289685
    83  H    0.298764
    84  H    0.097531
    85  H    0.122601
    86  H    0.121693
    87  H    0.109470
    88  H    0.072867
    89  H    0.105575
    90  H    0.159341
    91  H    0.065220
    92  H    0.062684
    93  H    0.087358
    94  H    0.062876
    95  H    0.084905
    96  H    0.091289
    97  H    0.091152
    98  H    0.120395
    99  H    0.119900
   100  H    0.127161
 Sum of Mulliken charges =  -0.00000

 Dipole moment (field-independent basis, Debye):
    X=              5.8200    Y=             -0.2606    Z=              1.9711  Tot=              6.1503
 Quadrupole moment (field-independent basis, Debye-Ang):
   XX=           -260.8120   YY=           -260.3679   ZZ=           -275.9699
   XY=             -6.6773   XZ=             26.7587   YZ=             -4.8642

 Normal termination of Gaussian 16 at Thu Aug  1 02:06:24 2019.
