 Gaussian 16, Revision A.03,
 Gaussian 16:  ES64L-G16RevA.03 25-Dec-2016

 -------------------------------------
 # td=(NStates=1) CAM-B3LYP/6-31G(d,p)
 -------------------------------------

 --
 TD
 --
 Symbolic Z-matrix:
 Charge =  0 Multiplicity = 1

                         Standard orientation:
 ---------------------------------------------------------------------
 Center     Atomic      Atomic             Coordinates (Angstroms)
 Number     Number       Type             X           Y           Z
 ---------------------------------------------------------------------
      1          8           0      -11.665455    0.044628   -1.543629
      2          8           0      -13.006274   -2.168160    1.509829
      3          8           0       10.761032   -0.880966   -2.198761
      4          8           0       14.593403   -1.000963    0.041196
      5          6           0      -11.089964   -0.208656   -0.330015
      6          6           0      -11.666404   -1.335422   -1.178004
      7          6           0      -11.808096    0.449433    0.838717
      8          6           0      -13.035445   -1.765896   -0.812323
      9          6           0      -13.270969    0.082700    0.703388
     10          6           0      -13.561337   -1.403862    0.529999
     11          6           0      -10.798181   -2.312040   -1.940902
     12          6           0       -9.579844    0.028365   -0.409669
     13          6           0      -11.146163    0.074809    2.227204
     14          6           0      -11.684064    1.944942    0.714087
     15          6           0       -8.558650   -0.793925    0.088590
     16          6           0       -7.203075   -0.649742    0.141363
     17          6           0       -6.427928   -1.907076    0.433976
     18          6           0       -6.571909    0.587734   -0.015801
     19          6           0       -5.251773    0.871622   -0.132670
     20          6           0       11.826691   -0.022933    1.391536
     21          6           0       11.748531   -0.617942   -1.261096
     22          6           0       12.604238   -1.427650    1.500921
     23          6           0       13.346230   -1.887182    0.191033
     24          6           0       12.494249   -1.847679   -1.058016
     25          6           0       11.040496    0.075475    0.078940
     26          6           0       10.912810    0.208632    2.539416
     27          6           0       12.770818    1.149362    1.509209
     28          6           0       12.657340    0.528601   -1.935794
     29          6           0       -4.760364    2.160950   -0.295051
     30          6           0        9.801158    0.405812   -0.051619
     31          6           0       -3.367556    2.663974   -0.390332
     32          6           0        8.593053    0.920969   -0.035841
     33          6           0       -3.067561    4.025303   -0.719771
     34          6           0       -2.296958    1.713561   -0.388516
     35          6           0        7.438057    0.136624   -0.071036
     36          6           0        7.644492   -1.252445    0.315067
     37          6           0        6.268546    0.730181   -0.240255
     38          6           0       -0.958786    2.038468   -0.341983
     39          6           0        4.910610    0.174164   -0.141830
     40          6           0       -0.000280    1.005071   -0.112555
     41          6           0        3.838311    0.782474   -0.239441
     42          6           0        1.412368    1.198291   -0.140280
     43          6           0        2.493901    0.380010    0.052418
     44          6           0        2.227069   -1.212095    0.196831
     45          1           0      -13.016037   -2.851274   -0.663550
     46          1           0      -13.758147   -1.686555   -1.555176
     47          1           0      -13.640767    0.156718    1.710038
     48          1           0      -13.852268    0.693065   -0.034461
     49          1           0      -14.473920   -1.577902    0.458359
     50          1           0      -10.140848   -3.017051   -1.109702
     51          1           0      -11.318932   -2.831670   -2.720951
     52          1           0       -9.949058   -1.781573   -2.493621
     53          1           0       -9.468956    1.025229   -0.836859
     54          1           0      -10.116701    0.497032    2.252783
     55          1           0      -11.757322    0.560523    3.221675
     56          1           0      -10.964898   -0.934836    2.336161
     57          1           0      -12.020051    2.273491   -0.245549
     58          1           0      -12.159080    2.214411    1.545225
     59          1           0      -10.673623    2.439125    0.814083
     60          1           0      -12.132589   -2.359454    1.371361
     61          1           0       -8.883380   -1.799718    0.361261
     62          1           0       -5.737005   -2.223579   -0.351507
     63          1           0       -5.694374   -1.896293    1.145487
     64          1           0       -6.911683   -2.906104    0.586581
     65          1           0       -7.211261    1.527488   -0.207412
     66          1           0       -4.403235    0.098757    0.004631
     67          1           0       13.327202   -1.332316    2.206398
     68          1           0       11.806512   -2.297569    1.813499
     69          1           0       13.721616   -2.905006    0.470334
     70          1           0       12.981627   -2.233150   -1.967195
     71          1           0       11.701532   -2.719838   -0.894628
     72          1           0       11.484868    0.291299    3.609555
     73          1           0       10.587354    1.322740    2.401056
     74          1           0       10.032905   -0.407210    2.627766
     75          1           0       13.683325    1.161916    0.785870
     76          1           0       12.194535    2.248775    1.267578
     77          1           0       13.191893    1.191358    2.485501
     78          1           0       13.060229    0.326515   -3.043053
     79          1           0       11.934288    1.237909   -2.143134
     80          1           0       13.387024    0.685383   -1.252669
     81          1           0       -5.561262    2.846475   -0.384216
     82          1           0       10.180276   -0.060763   -2.147078
     83          1           0       15.351807   -0.968748    0.637229
     84          1           0        8.675483    1.905285   -0.133587
     85          1           0       -2.592529    4.483256    0.028330
     86          1           0       -2.436861    4.086937   -1.592200
     87          1           0       -3.960160    4.476474   -1.007978
     88          1           0       -2.597348    0.855948    0.101654
     89          1           0        6.639644   -1.648487    0.142351
     90          1           0        8.418074   -1.873566   -0.304413
     91          1           0        7.698679   -1.529552    1.434141
     92          1           0        6.379553    1.792187   -0.353704
     93          1           0       -0.682649    2.997015   -0.512053
     94          1           0        5.037918   -0.921703    0.147093
     95          1           0       -0.384106    0.058613   -0.164076
     96          1           0        3.831647    1.834522   -0.353557
     97          1           0        1.623629    2.218014   -0.443975
     98          1           0        1.198150   -1.595733    0.464930
     99          1           0        2.736118   -1.749287   -0.529854
    100          1           0        2.629550   -1.511738    1.286783
 ---------------------------------------------------------------------

 SCF Done:  E(RCAM-B3LYP) =  -1857.29539520     A.U. after   15 cycles

 Excitation energies and oscillator strengths:

 Excited State   1:      Singlet-A      2.1662 eV  572.36 nm  f=2.6938  <S**2>=0.000
     163 ->166         0.11958
     164 ->165         0.70034
     164 <-165        -0.10378
 This state for optimization and/or second-order correction.
 Total Energy, E(TD-HF/TD-DFT) =  -1857.21578939
 Copying the excited state density for this state as the 1-particle RhoCI density.

 The electronic state is 1-A.
 Alpha  occ. eigenvalues --  -19.22197 -19.20891 -19.20491 -19.20109 -10.32843
 Alpha  occ. eigenvalues --  -10.32043 -10.31556 -10.31418 -10.28150 -10.28130
 Alpha  occ. eigenvalues --  -10.28070 -10.28039 -10.27808 -10.27614 -10.27128
 Alpha  occ. eigenvalues --  -10.27004 -10.26950 -10.26929 -10.26916 -10.26833
 Alpha  occ. eigenvalues --  -10.26814 -10.26574 -10.26560 -10.26557 -10.26415
 Alpha  occ. eigenvalues --  -10.26360 -10.26311 -10.26221 -10.26195 -10.25910
 Alpha  occ. eigenvalues --  -10.25822 -10.25814 -10.25734 -10.25716 -10.25690
 Alpha  occ. eigenvalues --  -10.25543 -10.25337 -10.25057 -10.24968 -10.23861
 Alpha  occ. eigenvalues --  -10.23850 -10.23807 -10.23097 -10.22460  -1.17523
 Alpha  occ. eigenvalues --   -1.12902  -1.09978  -1.05452  -0.93875  -0.92750
 Alpha  occ. eigenvalues --   -0.92189  -0.91711  -0.91133  -0.90858  -0.88126
 Alpha  occ. eigenvalues --   -0.87857  -0.86716  -0.86173  -0.84924  -0.83037
 Alpha  occ. eigenvalues --   -0.82715  -0.81291  -0.80602  -0.78545  -0.77412
 Alpha  occ. eigenvalues --   -0.77306  -0.76640  -0.76378  -0.76127  -0.75965
 Alpha  occ. eigenvalues --   -0.75057  -0.73784  -0.73630  -0.72529  -0.70012
 Alpha  occ. eigenvalues --   -0.69343  -0.67567  -0.66024  -0.65526  -0.64716
 Alpha  occ. eigenvalues --   -0.63690  -0.62245  -0.61343  -0.61038  -0.60446
 Alpha  occ. eigenvalues --   -0.59907  -0.59108  -0.57644  -0.57325  -0.57278
 Alpha  occ. eigenvalues --   -0.56541  -0.56287  -0.55775  -0.55324  -0.54898
 Alpha  occ. eigenvalues --   -0.53959  -0.53789  -0.53162  -0.52237  -0.52061
 Alpha  occ. eigenvalues --   -0.51575  -0.51336  -0.51213  -0.50587  -0.50262
 Alpha  occ. eigenvalues --   -0.49972  -0.49695  -0.49022  -0.48832  -0.48742
 Alpha  occ. eigenvalues --   -0.48510  -0.47890  -0.47723  -0.47273  -0.47213
 Alpha  occ. eigenvalues --   -0.46975  -0.46748  -0.46249  -0.45876  -0.45826
 Alpha  occ. eigenvalues --   -0.45068  -0.44696  -0.44111  -0.43952  -0.43634
 Alpha  occ. eigenvalues --   -0.43302  -0.43006  -0.42864  -0.42815  -0.42646
 Alpha  occ. eigenvalues --   -0.42463  -0.42158  -0.41818  -0.41717  -0.41355
 Alpha  occ. eigenvalues --   -0.40845  -0.40676  -0.40485  -0.40037  -0.39949
 Alpha  occ. eigenvalues --   -0.39491  -0.39101  -0.39052  -0.38893  -0.38621
 Alpha  occ. eigenvalues --   -0.38476  -0.37985  -0.37653  -0.37238  -0.36764
 Alpha  occ. eigenvalues --   -0.36097  -0.35803  -0.35503  -0.34804  -0.33988
 Alpha  occ. eigenvalues --   -0.32424  -0.31928  -0.31740  -0.30982  -0.30789
 Alpha  occ. eigenvalues --   -0.29955  -0.27576  -0.24867  -0.19974
 Alpha virt. eigenvalues --   -0.06383  -0.00913   0.02324   0.06787   0.08140
 Alpha virt. eigenvalues --    0.09606   0.09855   0.10464   0.12259   0.12732
 Alpha virt. eigenvalues --    0.13027   0.13240   0.13696   0.14141   0.14514

 Mulliken charges:
               1
     1  O   -0.492661
     2  O   -0.526304
     3  O   -0.565004
     4  O   -0.604158
     5  C    0.178928
     6  C    0.241590
     7  C    0.018941
     8  C   -0.247157
     9  C   -0.192364
    10  C    0.203982
    11  C   -0.334278
    12  C   -0.088693
    13  C   -0.293150
    14  C   -0.300451
    15  C   -0.114265
    16  C    0.137095
    17  C   -0.407158
    18  C   -0.140994
    19  C   -0.031532
    20  C    0.033107
    21  C    0.253074
    22  C   -0.165865
    23  C    0.157053
    24  C   -0.178552
    25  C   -0.097471
    26  C   -0.291557
    27  C   -0.293956
    28  C   -0.278789
    29  C   -0.129161
    30  C    0.104177
    31  C    0.062445
    32  C   -0.213246
    33  C   -0.377287
    34  C   -0.114033
    35  C    0.128251
    36  C   -0.379071
    37  C   -0.109455
    38  C   -0.065209
    39  C   -0.070687
    40  C   -0.087826
    41  C   -0.098161
    42  C   -0.123442
    43  C    0.090127
    44  C   -0.371401
    45  H    0.093700
    46  H    0.113591
    47  H    0.098829
    48  H    0.103340
    49  H    0.084745
    50  H    0.079801
    51  H    0.122284
    52  H    0.128589
    53  H    0.100654
    54  H    0.110625
    55  H    0.078681
    56  H    0.092097
    57  H    0.118450
    58  H    0.112458
    59  H    0.087350
    60  H    0.298769
    61  H    0.066968
    62  H    0.121837
    63  H    0.134175
    64  H    0.109822
    65  H    0.083584
    66  H    0.076510
    67  H    0.097761
    68  H    0.077186
    69  H    0.092606
    70  H    0.130719
    71  H    0.098384
    72  H    0.072013
    73  H    0.094005
    74  H    0.106703
    75  H    0.113370
    76  H    0.069299
    77  H    0.101693
    78  H    0.079907
    79  H    0.080979
    80  H    0.132648
    81  H    0.071453
    82  H    0.306391
    83  H    0.309711
    84  H    0.105068
    85  H    0.139364
    86  H    0.132198
    87  H    0.114275
    88  H    0.082827
    89  H    0.097831
    90  H    0.129074
    91  H    0.118893
    92  H    0.072729
    93  H    0.080605
    94  H    0.081264
    95  H    0.082553
    96  H    0.079753
    97  H    0.072430
    98  H    0.109617
    99  H    0.135066
   100  H    0.089335
 Sum of Mulliken charges =  -0.00000

 Dipole moment (field-independent basis, Debye):
    X=              0.8974    Y=             -0.5536    Z=              1.9703  Tot=              2.2347
 Quadrupole moment (field-independent basis, Debye-Ang):
   XX=           -278.4571   YY=           -252.9005   ZZ=           -279.8445
   XY=             -1.8102   XZ=             37.7136   YZ=             -3.2888

 Normal termination of Gaussian 16 at Mon Jul 29 20:52:25 2019.
