 Gaussian 16, Revision A.03,
 Gaussian 16:  ES64L-G16RevA.03 25-Dec-2016

 -------------------------------------
 # td=(NStates=1) CAM-B3LYP/6-31G(d,p)
 -------------------------------------

 --
 TD
 --
 Symbolic Z-matrix:
 Charge =  0 Multiplicity = 1

                         Standard orientation:
 ---------------------------------------------------------------------
 Center     Atomic      Atomic             Coordinates (Angstroms)
 Number     Number       Type             X           Y           Z
 ---------------------------------------------------------------------
      1          8           0      -11.739869    0.231332   -1.504433
      2          8           0      -13.014101   -2.420805    1.327903
      3          8           0       10.669685   -0.962341   -2.037606
      4          8           0       14.509256   -1.083299   -0.064400
      5          6           0      -11.116929   -0.105892   -0.306387
      6          6           0      -11.723959   -1.185030   -1.194558
      7          6           0      -11.778286    0.364140    0.954843
      8          6           0      -13.076266   -1.691765   -0.858310
      9          6           0      -13.224352   -0.049013    0.940603
     10          6           0      -13.520440   -1.513640    0.503727
     11          6           0      -10.975571   -1.945791   -2.177274
     12          6           0       -9.667557    0.101892   -0.365537
     13          6           0      -11.023409   -0.191116    2.141270
     14          6           0      -11.590812    1.851436    1.035664
     15          6           0       -8.679853   -0.735692    0.070273
     16          6           0       -7.221004   -0.580489    0.106710
     17          6           0       -6.408568   -1.857513    0.398339
     18          6           0       -6.685854    0.654873   -0.124296
     19          6           0       -5.247602    0.828053   -0.122926
     20          6           0       11.925568    0.053522    1.367397
     21          6           0       11.646581   -0.566199   -1.253634
     22          6           0       12.654842   -1.277737    1.456673
     23          6           0       13.347877   -1.868738    0.285018
     24          6           0       12.465986   -1.869745   -0.928495
     25          6           0       11.098344    0.085296    0.014806
     26          6           0       11.131569    0.224875    2.556595
     27          6           0       12.946972    1.155737    1.181312
     28          6           0       12.548536    0.418774   -1.975910
     29          6           0       -4.760464    2.150009   -0.321120
     30          6           0        9.893612    0.424158   -0.104709
     31          6           0       -3.467467    2.537994   -0.385654
     32          6           0        8.602001    1.001476   -0.192929
     33          6           0       -3.129273    4.042947   -0.704789
     34          6           0       -2.296175    1.543492   -0.204893
     35          6           0        7.443712    0.145069    0.011262
     36          6           0        7.718206   -1.244909    0.330173
     37          6           0        6.281918    0.706270   -0.092911
     38          6           0       -0.955202    1.921879   -0.391691
     39          6           0        4.936481    0.136405    0.068094
     40          6           0        0.028567    0.939523   -0.219199
     41          6           0        3.783530    0.790496   -0.011370
     42          6           0        1.453076    1.230508   -0.111205
     43          6           0        2.471308    0.313233    0.018014
     44          6           0        2.249523   -1.150606    0.074216
     45          1           0      -13.280241   -2.794960   -1.110647
     46          1           0      -13.780574   -1.097662   -1.407076
     47          1           0      -13.501865    0.094683    1.923089
     48          1           0      -13.896660    0.689349    0.321085
     49          1           0      -14.559393   -1.537910    0.775361
     50          1           0      -10.615697   -2.845739   -1.672242
     51          1           0      -11.565776   -2.420198   -3.132608
     52          1           0      -10.073071   -1.414599   -2.488985
     53          1           0       -9.427913    1.067254   -0.859443
     54          1           0       -9.933805    0.318662    2.240472
     55          1           0      -11.510815    0.096009    2.932148
     56          1           0      -10.675171   -1.264810    2.204153
     57          1           0      -11.816460    2.416363    0.170258
     58          1           0      -12.131489    2.198757    1.883483
     59          1           0      -10.732463    2.224459    1.282411
     60          1           0      -12.217959   -2.823229    1.148344
     61          1           0       -9.105478   -1.629345    0.430905
     62          1           0       -5.992250   -2.002719   -0.665886
     63          1           0       -5.568622   -1.674636    1.244402
     64          1           0       -6.951088   -2.617143    0.759103
     65          1           0       -7.408392    1.633316   -0.312571
     66          1           0       -4.613291   -0.189997   -0.010526
     67          1           0       13.523903   -1.180651    2.298307
     68          1           0       11.938093   -2.217304    1.976343
     69          1           0       13.804455   -2.962698    0.490646
     70          1           0       13.000172   -2.300332   -1.906470
     71          1           0       11.786775   -2.675551   -0.907113
     72          1           0       11.859051    0.069139    3.319769
     73          1           0       10.580090    1.067239    2.816087
     74          1           0       10.503194   -0.650512    2.765416
     75          1           0       13.750797    1.127058    0.300403
     76          1           0       12.430719    2.112721    1.109620
     77          1           0       13.474082    1.650298    2.296887
     78          1           0       12.672990   -0.059942   -3.026322
     79          1           0       11.961616    1.355542   -1.719786
     80          1           0       13.543915    0.508133   -1.515453
     81          1           0       -5.566380    3.024700   -0.328932
     82          1           0       10.258181   -0.173971   -2.511473
     83          1           0       15.069505   -0.863467    0.776793
     84          1           0        8.392316    2.166962   -0.237793
     85          1           0       -2.478081    4.554419    0.104473
     86          1           0       -2.659305    4.251092   -1.641345
     87          1           0       -3.911451    4.819161   -0.796867
     88          1           0       -2.553908    0.489090    0.023400
     89          1           0        6.816256   -1.897297    0.106584
     90          1           0        8.223375   -1.485200   -0.452957
     91          1           0        8.211918   -1.467421    1.288596
     92          1           0        6.228961    1.704596   -0.285880
     93          1           0       -0.661691    2.941915   -0.544655
     94          1           0        4.964589   -0.914846    0.169610
     95          1           0       -0.204664   -0.000195   -0.104557
     96          1           0        4.072854    1.969161   -0.189848
     97          1           0        1.736703    2.212081   -0.473932
     98          1           0        1.244805   -1.290328    0.253956
     99          1           0        2.753639   -1.582180   -0.655781
    100          1           0        2.716227   -1.575507    0.972192
 ---------------------------------------------------------------------

 SCF Done:  E(RCAM-B3LYP) =  -1857.26273849     A.U. after   16 cycles

 Excitation energies and oscillator strengths:

 Excited State   1:      Singlet-A      1.9730 eV  628.39 nm  f=2.5972  <S**2>=0.000
     163 ->166         0.10880
     164 ->165         0.70730
     164 <-165        -0.12972
 This state for optimization and/or second-order correction.
 Total Energy, E(TD-HF/TD-DFT) =  -1857.19023038
 Copying the excited state density for this state as the 1-particle RhoCI density.

 The electronic state is 1-A.
 Alpha  occ. eigenvalues --  -19.22021 -19.21825 -19.21150 -19.20245 -10.32206
 Alpha  occ. eigenvalues --  -10.31378 -10.31298 -10.30795 -10.29354 -10.29296
 Alpha  occ. eigenvalues --  -10.28863 -10.28459 -10.28428 -10.27901 -10.27684
 Alpha  occ. eigenvalues --  -10.27484 -10.27426 -10.27099 -10.27061 -10.27051
 Alpha  occ. eigenvalues --  -10.26950 -10.26849 -10.26498 -10.26150 -10.26123
 Alpha  occ. eigenvalues --  -10.26079 -10.26078 -10.25927 -10.25856 -10.25831
 Alpha  occ. eigenvalues --  -10.25764 -10.25621 -10.25550 -10.25230 -10.25080
 Alpha  occ. eigenvalues --  -10.24823 -10.24637 -10.23985 -10.23974 -10.23904
 Alpha  occ. eigenvalues --  -10.23833 -10.23749 -10.23539 -10.21925  -1.15559
 Alpha  occ. eigenvalues --   -1.13853  -1.13136  -1.08376  -0.94059  -0.92586
 Alpha  occ. eigenvalues --   -0.92143  -0.91416  -0.90781  -0.89239  -0.87976
 Alpha  occ. eigenvalues --   -0.86947  -0.86518  -0.85530  -0.84266  -0.83444
 Alpha  occ. eigenvalues --   -0.82083  -0.80736  -0.80521  -0.78788  -0.78083
 Alpha  occ. eigenvalues --   -0.77465  -0.77454  -0.76387  -0.76184  -0.75987
 Alpha  occ. eigenvalues --   -0.75504  -0.74457  -0.72942  -0.72071  -0.69772
 Alpha  occ. eigenvalues --   -0.68908  -0.66433  -0.65674  -0.65538  -0.64666
 Alpha  occ. eigenvalues --   -0.63854  -0.62188  -0.60678  -0.60549  -0.60010
 Alpha  occ. eigenvalues --   -0.59170  -0.58122  -0.57860  -0.56850  -0.56584
 Alpha  occ. eigenvalues --   -0.56038  -0.55828  -0.55689  -0.54937  -0.54585
 Alpha  occ. eigenvalues --   -0.53698  -0.53047  -0.52768  -0.52357  -0.52145
 Alpha  occ. eigenvalues --   -0.51792  -0.50838  -0.50809  -0.50588  -0.50059
 Alpha  occ. eigenvalues --   -0.49942  -0.49788  -0.49740  -0.49267  -0.48506
 Alpha  occ. eigenvalues --   -0.48398  -0.48176  -0.47644  -0.47038  -0.46674
 Alpha  occ. eigenvalues --   -0.46366  -0.45902  -0.45868  -0.45653  -0.45531
 Alpha  occ. eigenvalues --   -0.45381  -0.45141  -0.44570  -0.44551  -0.44080
 Alpha  occ. eigenvalues --   -0.43777  -0.43706  -0.42819  -0.42778  -0.42453
 Alpha  occ. eigenvalues --   -0.42021  -0.41785  -0.41335  -0.40980  -0.40548
 Alpha  occ. eigenvalues --   -0.40525  -0.40133  -0.39841  -0.39695  -0.39535
 Alpha  occ. eigenvalues --   -0.39497  -0.39305  -0.38994  -0.38612  -0.38503
 Alpha  occ. eigenvalues --   -0.38181  -0.38086  -0.37864  -0.37510  -0.37027
 Alpha  occ. eigenvalues --   -0.36343  -0.36284  -0.35275  -0.34280  -0.33207
 Alpha  occ. eigenvalues --   -0.32796  -0.32561  -0.31800  -0.30862  -0.30377
 Alpha  occ. eigenvalues --   -0.29704  -0.27374  -0.24104  -0.18622
 Alpha virt. eigenvalues --   -0.06164   0.00156   0.03555   0.06155   0.07235
 Alpha virt. eigenvalues --    0.09090   0.10447   0.10811   0.11502   0.12388
 Alpha virt. eigenvalues --    0.12568   0.13186   0.13359   0.13665   0.14239

 Mulliken charges:
               1
     1  O   -0.514288
     2  O   -0.517893
     3  O   -0.540968
     4  O   -0.559769
     5  C    0.226885
     6  C    0.232226
     7  C    0.035677
     8  C   -0.220753
     9  C   -0.203130
    10  C    0.181216
    11  C   -0.338325
    12  C   -0.105565
    13  C   -0.291969
    14  C   -0.317603
    15  C   -0.085467
    16  C    0.061807
    17  C   -0.353535
    18  C   -0.096539
    19  C   -0.086364
    20  C    0.073667
    21  C    0.280872
    22  C   -0.178409
    23  C    0.171480
    24  C   -0.193582
    25  C   -0.158622
    26  C   -0.314746
    27  C   -0.309787
    28  C   -0.316101
    29  C   -0.129305
    30  C    0.152087
    31  C    0.076662
    32  C   -0.244596
    33  C   -0.388741
    34  C   -0.120665
    35  C    0.123152
    36  C   -0.361864
    37  C   -0.109084
    38  C   -0.062629
    39  C   -0.080688
    40  C   -0.076387
    41  C   -0.104494
    42  C   -0.133629
    43  C    0.099188
    44  C   -0.356409
    45  H    0.089313
    46  H    0.129742
    47  H    0.093198
    48  H    0.088479
    49  H    0.089173
    50  H    0.096654
    51  H    0.099088
    52  H    0.130585
    53  H    0.090810
    54  H    0.089305
    55  H    0.107792
    56  H    0.082560
    57  H    0.117107
    58  H    0.095049
    59  H    0.113834
    60  H    0.292659
    61  H    0.057112
    62  H    0.132318
    63  H    0.104488
    64  H    0.119780
    65  H    0.086568
    66  H    0.095992
    67  H    0.067826
    68  H    0.066492
    69  H    0.073650
    70  H    0.091314
    71  H    0.118328
    72  H    0.106270
    73  H    0.120171
    74  H    0.106764
    75  H    0.129332
    76  H    0.115326
    77  H    0.040741
    78  H    0.102201
    79  H    0.085849
    80  H    0.138889
    81  H    0.086383
    82  H    0.311569
    83  H    0.306371
    84  H    0.107994
    85  H    0.109364
    86  H    0.129689
    87  H    0.108957
    88  H    0.086769
    89  H    0.088489
    90  H    0.150668
    91  H    0.124889
    92  H    0.053312
    93  H    0.094643
    94  H    0.060675
    95  H    0.064664
    96  H    0.058717
    97  H    0.082051
    98  H    0.112671
    99  H    0.139281
   100  H    0.115076
 Sum of Mulliken charges =  -0.00000

 Dipole moment (field-independent basis, Debye):
    X=              3.2022    Y=             -0.9606    Z=              1.6163  Tot=              3.7134
 Quadrupole moment (field-independent basis, Debye-Ang):
   XX=           -276.2231   YY=           -253.9908   ZZ=           -275.3272
   XY=              9.3535   XZ=             19.6059   YZ=             -1.7266

 Normal termination of Gaussian 16 at Tue Jul 30 21:13:05 2019.
