 Gaussian 16, Revision A.03,
 Gaussian 16:  ES64L-G16RevA.03 25-Dec-2016

 -------------------------------------
 # td=(NStates=1) CAM-B3LYP/6-31G(d,p)
 -------------------------------------

 --
 TD
 --
 Symbolic Z-matrix:
 Charge =  0 Multiplicity = 1

                         Standard orientation:
 ---------------------------------------------------------------------
 Center     Atomic      Atomic             Coordinates (Angstroms)
 Number     Number       Type             X           Y           Z
 ---------------------------------------------------------------------
      1          8           0       11.701246    0.235362    1.660022
      2          8           0       12.952797   -2.532534   -1.347472
      3          8           0      -10.574843   -0.931300    2.252151
      4          8           0      -14.450361   -0.993293    0.181048
      5          6           0       11.092448   -0.175564    0.450135
      6          6           0       11.765447   -1.196807    1.213248
      7          6           0       11.804637    0.236112   -0.902145
      8          6           0       13.033722   -1.765372    0.948070
      9          6           0       13.264110   -0.037448   -0.795187
     10          6           0       13.527766   -1.616476   -0.467881
     11          6           0       10.900916   -2.102695    2.233723
     12          6           0        9.610880    0.080772    0.497908
     13          6           0       11.138820   -0.309069   -2.205560
     14          6           0       11.678188    1.708147   -1.049738
     15          6           0        8.625385   -0.628581   -0.148746
     16          6           0        7.196305   -0.477997   -0.135949
     17          6           0        6.283112   -1.669368   -0.477336
     18          6           0        6.672114    0.765004    0.204394
     19          6           0        5.320121    1.031869    0.201354
     20          6           0      -11.895340   -0.068907   -1.280972
     21          6           0      -11.650587   -0.595319    1.358599
     22          6           0      -12.661040   -1.432165   -1.390084
     23          6           0      -13.435057   -1.879896   -0.170703
     24          6           0      -12.435864   -1.813233    1.067844
     25          6           0      -11.062147    0.109758   -0.001289
     26          6           0      -10.950368   -0.128906   -2.422480
     27          6           0      -12.907286    1.152499   -1.376921
     28          6           0      -12.400479    0.364890    2.116100
     29          6           0        4.701413    2.307968    0.415816
     30          6           0       -9.863778    0.445706    0.067962
     31          6           0        3.276375    2.623192    0.387360
     32          6           0       -8.620349    0.916702    0.067150
     33          6           0        3.006134    4.081205    0.674973
     34          6           0        2.257508    1.673086    0.125425
     35          6           0       -7.484010    0.113469   -0.118096
     36          6           0       -7.668426   -1.293773   -0.410384
     37          6           0       -6.261879    0.794140    0.008479
     38          6           0        1.028233    1.905556    0.181963
     39          6           0       -4.928309    0.222155   -0.137304
     40          6           0       -0.040504    1.067493   -0.076169
     41          6           0       -3.779117    0.902004    0.051709
     42          6           0       -1.515905    1.339943   -0.211942
     43          6           0       -2.503044    0.470104   -0.318692
     44          6           0       -2.450026   -1.069937   -0.407010
     45          1           0       13.001178   -2.779168    1.213838
     46          1           0       13.901578   -1.338796    1.573960
     47          1           0       13.852260    0.084353   -1.656233
     48          1           0       13.543659    0.748368   -0.095191
     49          1           0       14.673421   -1.775841   -0.586938
     50          1           0       10.573349   -3.329612    1.875118
     51          1           0       11.367051   -2.240133    3.085810
     52          1           0       10.160777   -1.620707    2.640532
     53          1           0        9.377084    0.941968    1.165140
     54          1           0       10.335485    0.482806   -2.217109
     55          1           0       11.730194   -0.122347   -3.093103
     56          1           0       10.793574   -1.311778   -2.123458
     57          1           0       12.255848    2.137499   -0.306238
     58          1           0       12.199035    2.028429   -1.932620
     59          1           0       10.556772    2.150290   -1.064229
     60          1           0       11.943491   -2.420020   -1.197254
     61          1           0        9.088453   -1.608139   -0.610675
     62          1           0        5.518085   -2.014445    0.394795
     63          1           0        5.507961   -1.601798   -1.271328
     64          1           0        6.799416   -2.663354   -0.907072
     65          1           0        7.437146    1.568482    0.445336
     66          1           0        4.574652    0.235685    0.100363
     67          1           0      -13.362631   -1.548369   -1.974183
     68          1           0      -11.839984   -2.136189   -1.618129
     69          1           0      -13.872563   -2.894140   -0.248043
     70          1           0      -13.112162   -2.061360    1.975664
     71          1           0      -11.641820   -2.618296    0.932892
     72          1           0      -11.498469   -0.009390   -3.502317
     73          1           0      -10.371498    0.764733   -2.370440
     74          1           0      -10.210991   -0.954659   -2.418796
     75          1           0      -13.582547    0.988020   -0.580906
     76          1           0      -12.484900    2.063001   -1.227026
     77          1           0      -13.149893    1.293295   -2.356067
     78          1           0      -12.606145    0.035198    3.194734
     79          1           0      -11.937295    1.259768    2.261682
     80          1           0      -13.218267    0.897745    1.545467
     81          1           0        5.312450    3.302084    0.573791
     82          1           0      -10.230471   -0.171949    2.521381
     83          1           0      -15.256981   -1.172076   -0.544374
     84          1           0       -8.401829    2.048167    0.175102
     85          1           0        2.743244    4.727937   -0.283419
     86          1           0        2.200542    3.896703    1.593734
     87          1           0        3.936402    4.607158    1.107919
     88          1           0        2.761305    0.759440   -0.002191
     89          1           0       -6.782044   -1.928779   -0.080221
     90          1           0       -8.436675   -1.698313    0.317979
     91          1           0       -7.981247   -1.586104   -1.472608
     92          1           0       -6.453987    1.870460    0.090716
     93          1           0        0.636529    3.034467    0.303688
     94          1           0       -4.894614   -0.799891   -0.552586
     95          1           0        0.326680    0.085918   -0.208556
     96          1           0       -3.972016    1.858107    0.285227
     97          1           0       -1.661076    2.407839    0.012534
     98          1           0       -1.374119   -1.541561   -0.226957
     99          1           0       -3.179914   -1.542439    0.212405
    100          1           0       -2.644924   -1.315719   -1.443268
 ---------------------------------------------------------------------

 SCF Done:  E(RCAM-B3LYP) =  -1857.24773455     A.U. after   15 cycles

 Excitation energies and oscillator strengths:

 Excited State   1:      Singlet-A      2.0794 eV  596.26 nm  f=2.8990  <S**2>=0.000
     163 ->166         0.12929
     164 ->165         0.69811
     164 <-165        -0.10147
 This state for optimization and/or second-order correction.
 Total Energy, E(TD-HF/TD-DFT) =  -1857.17131929
 Copying the excited state density for this state as the 1-particle RhoCI density.

 The electronic state is 1-A.
 Alpha  occ. eigenvalues --  -19.23523 -19.22674 -19.22618 -19.20006 -10.32375
 Alpha  occ. eigenvalues --  -10.32241 -10.31590 -10.31400 -10.31241 -10.28571
 Alpha  occ. eigenvalues --  -10.28385 -10.28220 -10.28047 -10.28019 -10.27884
 Alpha  occ. eigenvalues --  -10.27766 -10.27072 -10.27015 -10.26931 -10.26900
 Alpha  occ. eigenvalues --  -10.26898 -10.26894 -10.26713 -10.26607 -10.26342
 Alpha  occ. eigenvalues --  -10.26261 -10.26205 -10.26171 -10.26059 -10.25929
 Alpha  occ. eigenvalues --  -10.25921 -10.25799 -10.25499 -10.25155 -10.24999
 Alpha  occ. eigenvalues --  -10.24944 -10.24855 -10.24625 -10.24301 -10.24017
 Alpha  occ. eigenvalues --  -10.23974 -10.23788 -10.23338 -10.22548  -1.14787
 Alpha  occ. eigenvalues --   -1.11525  -1.10287  -1.10101  -0.93302  -0.92738
 Alpha  occ. eigenvalues --   -0.92126  -0.91923  -0.91021  -0.90729  -0.87980
 Alpha  occ. eigenvalues --   -0.86936  -0.86730  -0.85606  -0.84483  -0.83290
 Alpha  occ. eigenvalues --   -0.81456  -0.81067  -0.80166  -0.78642  -0.77471
 Alpha  occ. eigenvalues --   -0.77272  -0.77125  -0.76486  -0.75984  -0.75769
 Alpha  occ. eigenvalues --   -0.75445  -0.74395  -0.73764  -0.71367  -0.69932
 Alpha  occ. eigenvalues --   -0.68310  -0.67107  -0.65815  -0.65345  -0.64386
 Alpha  occ. eigenvalues --   -0.63064  -0.61503  -0.60880  -0.60101  -0.59928
 Alpha  occ. eigenvalues --   -0.58797  -0.58469  -0.58170  -0.57249  -0.56805
 Alpha  occ. eigenvalues --   -0.55995  -0.55356  -0.55031  -0.54813  -0.54689
 Alpha  occ. eigenvalues --   -0.54358  -0.54043  -0.53651  -0.53031  -0.52509
 Alpha  occ. eigenvalues --   -0.51593  -0.50891  -0.50586  -0.50456  -0.50166
 Alpha  occ. eigenvalues --   -0.49783  -0.49691  -0.48894  -0.48680  -0.48398
 Alpha  occ. eigenvalues --   -0.48331  -0.48138  -0.47722  -0.47066  -0.47040
 Alpha  occ. eigenvalues --   -0.46037  -0.45563  -0.45423  -0.45220  -0.44805
 Alpha  occ. eigenvalues --   -0.44441  -0.44176  -0.44133  -0.44085  -0.43970
 Alpha  occ. eigenvalues --   -0.43886  -0.43321  -0.42976  -0.42841  -0.42335
 Alpha  occ. eigenvalues --   -0.41954  -0.41900  -0.41603  -0.41416  -0.41147
 Alpha  occ. eigenvalues --   -0.40865  -0.40820  -0.40631  -0.40232  -0.39610
 Alpha  occ. eigenvalues --   -0.39336  -0.39228  -0.38857  -0.38705  -0.38505
 Alpha  occ. eigenvalues --   -0.38392  -0.38218  -0.38043  -0.37317  -0.36790
 Alpha  occ. eigenvalues --   -0.36666  -0.36571  -0.35780  -0.35520  -0.34204
 Alpha  occ. eigenvalues --   -0.33068  -0.32580  -0.32543  -0.31173  -0.30941
 Alpha  occ. eigenvalues --   -0.30409  -0.27382  -0.23802  -0.19401
 Alpha virt. eigenvalues --   -0.06325  -0.00968   0.02909   0.07291   0.07447
 Alpha virt. eigenvalues --    0.07885   0.08933   0.10083   0.11142   0.12003
 Alpha virt. eigenvalues --    0.12245   0.12877   0.13326   0.13606   0.13898

 Mulliken charges:
               1
     1  O   -0.517732
     2  O   -0.530246
     3  O   -0.543967
     4  O   -0.526806
     5  C    0.237535
     6  C    0.209573
     7  C   -0.010272
     8  C   -0.205890
     9  C   -0.197948
    10  C    0.128301
    11  C   -0.302100
    12  C   -0.108051
    13  C   -0.287735
    14  C   -0.316954
    15  C   -0.093437
    16  C    0.109328
    17  C   -0.383166
    18  C   -0.097376
    19  C   -0.086208
    20  C    0.010085
    21  C    0.271341
    22  C   -0.118095
    23  C    0.115794
    24  C   -0.185599
    25  C   -0.193937
    26  C   -0.311779
    27  C   -0.319200
    28  C   -0.318164
    29  C   -0.130544
    30  C    0.250097
    31  C    0.061252
    32  C   -0.277576
    33  C   -0.360822
    34  C   -0.030868
    35  C    0.164252
    36  C   -0.399487
    37  C   -0.127904
    38  C   -0.087636
    39  C   -0.098045
    40  C   -0.108122
    41  C   -0.096705
    42  C   -0.146435
    43  C    0.143868
    44  C   -0.377654
    45  H    0.116808
    46  H    0.125078
    47  H    0.098509
    48  H    0.110329
    49  H    0.086016
    50  H    0.062306
    51  H    0.125870
    52  H    0.120372
    53  H    0.106602
    54  H    0.108441
    55  H    0.117806
    56  H    0.075019
    57  H    0.113634
    58  H    0.105932
    59  H    0.089407
    60  H    0.307604
    61  H    0.064954
    62  H    0.108179
    63  H    0.127858
    64  H    0.099279
    65  H    0.094310
    66  H    0.089917
    67  H    0.072407
    68  H    0.093887
    69  H    0.079555
    70  H    0.098572
    71  H    0.101030
    72  H    0.069849
    73  H    0.110567
    74  H    0.106181
    75  H    0.138872
    76  H    0.103871
    77  H    0.099401
    78  H    0.107830
    79  H    0.100007
    80  H    0.106356
    81  H    0.077652
    82  H    0.289159
    83  H    0.305014
    84  H    0.103794
    85  H    0.121231
    86  H    0.111198
    87  H    0.104834
    88  H    0.068255
    89  H    0.104034
    90  H    0.136018
    91  H    0.120311
    92  H    0.073469
    93  H    0.069359
    94  H    0.085638
    95  H    0.064197
    96  H    0.070854
    97  H    0.084166
    98  H    0.097628
    99  H    0.135085
   100  H    0.130524
 Sum of Mulliken charges =  -0.00000

 Dipole moment (field-independent basis, Debye):
    X=             -4.1271    Y=             -0.2216    Z=             -1.8922  Tot=              4.5456
 Quadrupole moment (field-independent basis, Debye-Ang):
   XX=           -242.2609   YY=           -259.8626   ZZ=           -277.4462
   XY=              7.4031   XZ=             26.7836   YZ=              2.7903

 Normal termination of Gaussian 16 at Fri Aug  2 05:54:48 2019.
