 Gaussian 16, Revision A.03,
 Gaussian 16:  ES64L-G16RevA.03 25-Dec-2016

 -------------------------------------
 # td=(NStates=1) CAM-B3LYP/6-31G(d,p)
 -------------------------------------

 --
 TD
 --
 Symbolic Z-matrix:
 Charge =  0 Multiplicity = 1

                         Standard orientation:
 ---------------------------------------------------------------------
 Center     Atomic      Atomic             Coordinates (Angstroms)
 Number     Number       Type             X           Y           Z
 ---------------------------------------------------------------------
      1          8           0      -11.774546    0.178260   -1.437832
      2          8           0      -12.927692   -2.460901    1.478542
      3          8           0       10.524396   -1.140225   -2.030483
      4          8           0       14.495235   -1.116460   -0.168223
      5          6           0      -11.086583   -0.178027   -0.350136
      6          6           0      -11.790264   -1.139255   -1.186867
      7          6           0      -11.697891    0.430417    0.937148
      8          6           0      -13.151710   -1.773787   -0.810702
      9          6           0      -13.238547   -0.058392    0.961277
     10          6           0      -13.511937   -1.511130    0.600624
     11          6           0      -10.945383   -1.976002   -2.076874
     12          6           0       -9.623953    0.171566   -0.460795
     13          6           0      -11.027724    0.025091    2.185558
     14          6           0      -11.726009    2.043218    0.944344
     15          6           0       -8.741123   -0.711968    0.009689
     16          6           0       -7.275666   -0.645145    0.070757
     17          6           0       -6.450896   -1.775836    0.464088
     18          6           0       -6.701748    0.547433   -0.237546
     19          6           0       -5.282800    0.795066   -0.229478
     20          6           0       12.027463    0.067543    1.293045
     21          6           0       11.617357   -0.692347   -1.163998
     22          6           0       12.669678   -1.268778    1.488158
     23          6           0       13.326484   -1.897112    0.189152
     24          6           0       12.292432   -1.953981   -0.879800
     25          6           0       11.175207    0.086616    0.052828
     26          6           0       11.087789    0.336527    2.542797
     27          6           0       13.094416    1.215793    1.223175
     28          6           0       12.493348    0.218726   -2.146574
     29          6           0       -4.654065    1.964984   -0.533358
     30          6           0        9.943675    0.547938    0.041130
     31          6           0       -3.314041    2.373877   -0.541429
     32          6           0        8.688585    1.019227   -0.068198
     33          6           0       -3.041813    3.861340   -0.818038
     34          6           0       -2.237976    1.566596   -0.392300
     35          6           0        7.415971    0.225278    0.074620
     36          6           0        7.672880   -1.262256    0.365939
     37          6           0        6.197449    0.790604    0.036184
     38          6           0       -0.893141    1.893854   -0.387421
     39          6           0        4.957421    0.321577    0.137603
     40          6           0        0.131039    1.012111   -0.092110
     41          6           0        3.680659    0.922591   -0.048516
     42          6           0        1.481210    1.359763   -0.128550
     43          6           0        2.494738    0.339806    0.062170
     44          6           0        2.333198   -1.115964    0.337313
     45          1           0      -13.036251   -2.711001   -0.870934
     46          1           0      -13.896095   -1.491415   -1.636278
     47          1           0      -13.388066    0.120450    2.111122
     48          1           0      -14.006188    0.614746    0.474868
     49          1           0      -14.562522   -1.657565    0.808495
     50          1           0      -10.944438   -2.912766   -1.773211
     51          1           0      -11.773152   -2.312237   -2.949115
     52          1           0       -9.853558   -1.541808   -2.490778
     53          1           0       -9.498773    1.086362   -0.855347
     54          1           0      -10.024719    0.434472    2.003927
     55          1           0      -11.396308    0.544684    3.031895
     56          1           0      -11.197096   -1.134301    2.411213
     57          1           0      -11.961037    2.397172    0.015360
     58          1           0      -12.283235    2.327639    1.727205
     59          1           0      -10.662553    2.314262    1.013722
     60          1           0      -11.956540   -2.461705    1.115256
     61          1           0       -9.127055   -1.532733    0.498406
     62          1           0       -5.825863   -2.091575   -0.347849
     63          1           0       -5.788415   -1.543181    1.354857
     64          1           0       -7.219780   -2.654572    0.760566
     65          1           0       -7.223648    1.466842   -0.526663
     66          1           0       -4.608739   -0.017293    0.026124
     67          1           0       13.312766   -1.197303    2.254045
     68          1           0       11.748262   -1.936397    1.822123
     69          1           0       13.623313   -2.781152    0.492963
     70          1           0       12.756346   -2.475195   -1.890691
     71          1           0       11.499148   -2.676070   -0.658150
     72          1           0       11.696044    0.174435    3.426291
     73          1           0       10.767767    1.361931    2.743511
     74          1           0       10.351307   -0.246277    2.725780
     75          1           0       13.717174    1.386553    0.468206
     76          1           0       12.475380    2.148745    1.026583
     77          1           0       13.638269    1.087064    2.168521
     78          1           0       12.622256   -0.364179   -3.224469
     79          1           0       11.957852    1.166760   -2.370396
     80          1           0       13.616608    0.387865   -1.546654
     81          1           0       -5.345041    2.776321   -0.723730
     82          1           0       10.081710   -0.239840   -2.260520
     83          1           0       15.266715   -1.133145    0.496095
     84          1           0        8.595668    1.985632   -0.614000
     85          1           0       -2.224656    4.170520   -0.223492
     86          1           0       -2.624732    3.966911   -1.800900
     87          1           0       -3.960246    4.338921   -0.599294
     88          1           0       -2.474961    0.537110   -0.450452
     89          1           0        6.791427   -1.904439    0.180989
     90          1           0        8.326969   -1.538995   -0.371742
     91          1           0        8.137030   -1.254575    1.337686
     92          1           0        6.447209    2.037892   -0.165564
     93          1           0       -0.507997    3.011955   -0.498454
     94          1           0        4.685194   -0.520197    0.563620
     95          1           0       -0.266928   -0.081019   -0.137778
     96          1           0        3.871158    2.005550   -0.461972
     97          1           0        1.834535    2.392574   -0.164918
     98          1           0        1.170056   -1.395564    0.545220
     99          1           0        2.658521   -1.728792   -0.512645
    100          1           0        3.124400   -1.458830    0.995863
 ---------------------------------------------------------------------

 SCF Done:  E(RCAM-B3LYP) =  -1857.27291095     A.U. after   15 cycles

 Excitation energies and oscillator strengths:

 Excited State   1:      Singlet-A      2.0740 eV  597.81 nm  f=3.3516  <S**2>=0.000
     163 ->166        -0.12923
     164 ->165         0.69869
     164 <-165        -0.10804
 This state for optimization and/or second-order correction.
 Total Energy, E(TD-HF/TD-DFT) =  -1857.19669443
 Copying the excited state density for this state as the 1-particle RhoCI density.

 The electronic state is 1-A.
 Alpha  occ. eigenvalues --  -19.22471 -19.22463 -19.22204 -19.21191 -10.32201
 Alpha  occ. eigenvalues --  -10.31594 -10.30671 -10.30655 -10.30097 -10.28297
 Alpha  occ. eigenvalues --  -10.27785 -10.27678 -10.27651 -10.27548 -10.27334
 Alpha  occ. eigenvalues --  -10.27170 -10.27088 -10.27061 -10.27014 -10.26948
 Alpha  occ. eigenvalues --  -10.26935 -10.26765 -10.26735 -10.26673 -10.26592
 Alpha  occ. eigenvalues --  -10.26548 -10.26185 -10.26181 -10.26023 -10.26015
 Alpha  occ. eigenvalues --  -10.25988 -10.25885 -10.25504 -10.25251 -10.25196
 Alpha  occ. eigenvalues --  -10.25136 -10.25003 -10.24399 -10.24253 -10.24100
 Alpha  occ. eigenvalues --  -10.24095 -10.23833 -10.23313 -10.23241  -1.21982
 Alpha  occ. eigenvalues --   -1.09707  -1.08524  -1.07769  -0.93510  -0.93171
 Alpha  occ. eigenvalues --   -0.92551  -0.91512  -0.90253  -0.89925  -0.88118
 Alpha  occ. eigenvalues --   -0.87509  -0.86559  -0.85816  -0.85143  -0.83291
 Alpha  occ. eigenvalues --   -0.82415  -0.81585  -0.79744  -0.79275  -0.77601
 Alpha  occ. eigenvalues --   -0.77205  -0.76718  -0.76682  -0.76499  -0.75984
 Alpha  occ. eigenvalues --   -0.74925  -0.74448  -0.73549  -0.71035  -0.70445
 Alpha  occ. eigenvalues --   -0.69573  -0.67285  -0.66389  -0.65381  -0.65120
 Alpha  occ. eigenvalues --   -0.63337  -0.61763  -0.60916  -0.60211  -0.59709
 Alpha  occ. eigenvalues --   -0.59412  -0.58899  -0.58185  -0.57927  -0.57907
 Alpha  occ. eigenvalues --   -0.56497  -0.55849  -0.55209  -0.55043  -0.54517
 Alpha  occ. eigenvalues --   -0.54067  -0.53506  -0.52479  -0.52242  -0.51628
 Alpha  occ. eigenvalues --   -0.51274  -0.50996  -0.50616  -0.50441  -0.49987
 Alpha  occ. eigenvalues --   -0.49584  -0.49494  -0.49174  -0.48990  -0.48676
 Alpha  occ. eigenvalues --   -0.48483  -0.48294  -0.47828  -0.47488  -0.47163
 Alpha  occ. eigenvalues --   -0.46931  -0.46679  -0.46514  -0.45806  -0.45665
 Alpha  occ. eigenvalues --   -0.45302  -0.45055  -0.44753  -0.44518  -0.43986
 Alpha  occ. eigenvalues --   -0.43559  -0.43455  -0.43156  -0.42675  -0.42575
 Alpha  occ. eigenvalues --   -0.42304  -0.42164  -0.42041  -0.41891  -0.41394
 Alpha  occ. eigenvalues --   -0.41256  -0.41026  -0.40775  -0.40603  -0.39964
 Alpha  occ. eigenvalues --   -0.39824  -0.39774  -0.39420  -0.39332  -0.38766
 Alpha  occ. eigenvalues --   -0.38232  -0.37946  -0.37758  -0.37115  -0.36852
 Alpha  occ. eigenvalues --   -0.36247  -0.35719  -0.34774  -0.34307  -0.33780
 Alpha  occ. eigenvalues --   -0.32636  -0.31924  -0.31662  -0.31320  -0.31101
 Alpha  occ. eigenvalues --   -0.29681  -0.28465  -0.24492  -0.18995
 Alpha virt. eigenvalues --   -0.06415  -0.00764   0.03875   0.05958   0.07086
 Alpha virt. eigenvalues --    0.09260   0.09337   0.10666   0.11407   0.12337
 Alpha virt. eigenvalues --    0.12666   0.13116   0.13778   0.14125   0.14231

 Mulliken charges:
               1
     1  O   -0.462457
     2  O   -0.538084
     3  O   -0.568186
     4  O   -0.571989
     5  C    0.153790
     6  C    0.244217
     7  C    0.007614
     8  C   -0.195927
     9  C   -0.190150
    10  C    0.141612
    11  C   -0.322468
    12  C   -0.094808
    13  C   -0.297878
    14  C   -0.312587
    15  C   -0.063283
    16  C    0.090583
    17  C   -0.378486
    18  C   -0.098623
    19  C   -0.071318
    20  C    0.009311
    21  C    0.243160
    22  C   -0.190733
    23  C    0.187135
    24  C   -0.190952
    25  C   -0.062496
    26  C   -0.311265
    27  C   -0.285434
    28  C   -0.300490
    29  C   -0.130204
    30  C    0.159144
    31  C    0.089457
    32  C   -0.289475
    33  C   -0.363618
    34  C   -0.116251
    35  C    0.089765
    36  C   -0.365798
    37  C   -0.079277
    38  C   -0.084252
    39  C   -0.092763
    40  C   -0.089706
    41  C   -0.121418
    42  C   -0.122194
    43  C    0.140375
    44  C   -0.387822
    45  H    0.110851
    46  H    0.118472
    47  H    0.078514
    48  H    0.094833
    49  H    0.100889
    50  H    0.118630
    51  H    0.063453
    52  H    0.122572
    53  H    0.098064
    54  H    0.108789
    55  H    0.106054
    56  H    0.084004
    57  H    0.124737
    58  H    0.115910
    59  H    0.088475
    60  H    0.298570
    61  H    0.067076
    62  H    0.138982
    63  H    0.129748
    64  H    0.087234
    65  H    0.080897
    66  H    0.070220
    67  H    0.086046
    68  H    0.079351
    69  H    0.091113
    70  H    0.097386
    71  H    0.128339
    72  H    0.084436
    73  H    0.110792
    74  H    0.117753
    75  H    0.124448
    76  H    0.089543
    77  H    0.087893
    78  H    0.093893
    79  H    0.086332
    80  H    0.117385
    81  H    0.064458
    82  H    0.303343
    83  H    0.315642
    84  H    0.109111
    85  H    0.122856
    86  H    0.131441
    87  H    0.107666
    88  H    0.073412
    89  H    0.100816
    90  H    0.146388
    91  H    0.124787
    92  H    0.041103
    93  H    0.070146
    94  H    0.043454
    95  H    0.077300
    96  H    0.070871
    97  H    0.103947
    98  H    0.109591
    99  H    0.137375
   100  H    0.138842
 Sum of Mulliken charges =  -0.00000

 Dipole moment (field-independent basis, Debye):
    X=              3.2080    Y=             -0.7978    Z=              1.3244  Tot=              3.5611
 Quadrupole moment (field-independent basis, Debye-Ang):
   XX=           -251.9308   YY=           -260.8953   ZZ=           -279.4388
   XY=             -6.6261   XZ=             36.7808   YZ=             -2.3668

 Normal termination of Gaussian 16 at Thu Aug  1 12:13:37 2019.
