 Gaussian 16, Revision A.03,
 Gaussian 16:  ES64L-G16RevA.03 25-Dec-2016

 -------------------------------------
 # td=(NStates=1) CAM-B3LYP/6-31G(d,p)
 -------------------------------------

 --
 TD
 --
 Symbolic Z-matrix:
 Charge =  0 Multiplicity = 1

                         Standard orientation:
 ---------------------------------------------------------------------
 Center     Atomic      Atomic             Coordinates (Angstroms)
 Number     Number       Type             X           Y           Z
 ---------------------------------------------------------------------
      1          8           0      -11.913015    0.501375   -1.361950
      2          8           0      -13.145363   -2.617991    1.218061
      3          8           0       10.531385   -1.078154   -2.014084
      4          8           0       14.602662   -0.907326   -0.367317
      5          6           0      -11.104453   -0.038830   -0.312824
      6          6           0      -11.807398   -1.006407   -1.309617
      7          6           0      -11.768242    0.238005    1.064702
      8          6           0      -13.154216   -1.606837   -0.987148
      9          6           0      -13.241388   -0.096818    1.077545
     10          6           0      -13.579202   -1.403238    0.437917
     11          6           0      -11.115399   -1.599122   -2.456842
     12          6           0       -9.669718    0.212012   -0.402255
     13          6           0      -11.084261   -0.452029    2.337451
     14          6           0      -11.578727    1.835286    1.400927
     15          6           0       -8.756141   -0.714052   -0.008356
     16          6           0       -7.209010   -0.636511   -0.004233
     17          6           0       -6.396039   -1.849764    0.337865
     18          6           0       -6.675690    0.550192   -0.296817
     19          6           0       -5.280495    0.833159   -0.146588
     20          6           0       12.075262    0.011467    1.312329
     21          6           0       11.601213   -0.610595   -1.334638
     22          6           0       12.848120   -1.309466    1.323301
     23          6           0       13.521103   -1.847080   -0.015985
     24          6           0       12.443528   -1.925288   -1.043219
     25          6           0       11.113775   -0.080254    0.058262
     26          6           0       11.229835    0.138110    2.592463
     27          6           0       13.145662    1.153687    1.283588
     28          6           0       12.349385    0.464941   -2.116006
     29          6           0       -4.681314    2.098723   -0.414179
     30          6           0        9.933507    0.493937    0.041778
     31          6           0       -3.406263    2.446338   -0.534171
     32          6           0        8.698683    1.035260    0.121203
     33          6           0       -3.032167    3.814877   -0.760781
     34          6           0       -2.378942    1.525027   -0.375088
     35          6           0        7.467836    0.215730    0.120700
     36          6           0        7.622064   -1.263094    0.537187
     37          6           0        6.254376    0.824464    0.133734
     38          6           0       -0.989323    1.840212   -0.450129
     39          6           0        5.004797    0.234725    0.255512
     40          6           0        0.078437    0.968382   -0.132718
     41          6           0        3.841297    0.895042   -0.048549
     42          6           0        1.470019    1.279244   -0.086076
     43          6           0        2.538301    0.290513    0.074818
     44          6           0        2.377877   -1.067522    0.387496
     45          1           0      -13.118959   -2.723370   -1.313087
     46          1           0      -13.680924   -1.119861   -1.746475
     47          1           0      -13.594987   -0.062994    2.096463
     48          1           0      -13.770882    0.716157    0.582976
     49          1           0      -14.721510   -1.502370    0.562634
     50          1           0      -10.744282   -2.548769   -2.092355
     51          1           0      -11.732669   -1.841722   -3.499158
     52          1           0      -10.199299   -1.187580   -2.877760
     53          1           0       -9.403743    1.120309   -0.663963
     54          1           0      -10.143355   -0.115624    2.742615
     55          1           0      -11.840833    0.017741    3.126850
     56          1           0      -11.249187   -1.568797    2.228466
     57          1           0      -12.069462    2.449549    0.551787
     58          1           0      -12.142399    1.931580    2.277814
     59          1           0      -10.532496    2.152680    1.488013
     60          1           0      -12.122592   -2.752111    1.103057
     61          1           0       -9.101005   -1.723682    0.239709
     62          1           0       -5.581336   -1.747115   -0.497155
     63          1           0       -5.924575   -1.933427    1.390215
     64          1           0       -7.143593   -2.946892    0.271414
     65          1           0       -7.295290    1.344728   -0.493860
     66          1           0       -4.454796   -0.009886    0.037841
     67          1           0       13.526262   -1.370360    2.256998
     68          1           0       12.070310   -2.055558    1.697162
     69          1           0       13.824350   -2.767463    0.022861
     70          1           0       12.887671   -2.226596   -2.006678
     71          1           0       11.729459   -2.713097   -0.637498
     72          1           0       12.002797    0.126501    3.438254
     73          1           0       10.484003    1.113007    2.504974
     74          1           0       10.774794   -0.805884    2.492356
     75          1           0       13.853102    1.058711    0.409711
     76          1           0       12.783741    2.155367    1.269501
     77          1           0       14.122286    1.182378    2.145134
     78          1           0       12.327878    0.025858   -3.075378
     79          1           0       11.880100    1.345847   -2.178456
     80          1           0       13.391121    0.542097   -1.736499
     81          1           0       -5.336194    2.933953   -0.578915
     82          1           0        9.761881   -0.433817   -1.952454
     83          1           0       15.149747   -0.895240    0.431810
     84          1           0        8.683339    2.159496   -0.069103
     85          1           0       -2.544544    4.223716    0.118314
     86          1           0       -2.538769    4.042438   -1.691253
     87          1           0       -4.043418    4.349110   -0.688214
     88          1           0       -2.723047    0.389800   -0.111340
     89          1           0        6.630754   -1.877013    0.240103
     90          1           0        8.510947   -1.516459    0.100946
     91          1           0        7.774061   -1.224065    1.635141
     92          1           0        6.311186    2.006971   -0.240592
     93          1           0       -0.674437    2.973749   -0.421266
     94          1           0        4.799235   -0.869582    0.391817
     95          1           0       -0.085469   -0.155394   -0.218793
     96          1           0        3.928006    1.854646   -0.246037
     97          1           0        1.617678    2.418528   -0.054757
     98          1           0        1.197023   -1.272155    0.219371
     99          1           0        3.166362   -1.830501   -0.197842
    100          1           0        2.480491   -1.375338    1.441554
 ---------------------------------------------------------------------

 SCF Done:  E(RCAM-B3LYP) =  -1857.31755746     A.U. after   15 cycles

 Excitation energies and oscillator strengths:

 Excited State   1:      Singlet-A      2.0066 eV  617.88 nm  f=2.9199  <S**2>=0.000
     163 ->166         0.12658
     164 ->165         0.70017
     164 <-165        -0.10900
 This state for optimization and/or second-order correction.
 Total Energy, E(TD-HF/TD-DFT) =  -1857.24381588
 Copying the excited state density for this state as the 1-particle RhoCI density.

 The electronic state is 1-A.
 Alpha  occ. eigenvalues --  -19.22191 -19.21425 -19.21168 -19.21075 -10.32237
 Alpha  occ. eigenvalues --  -10.31998 -10.31728 -10.31528 -10.30773 -10.29503
 Alpha  occ. eigenvalues --  -10.29063 -10.28839 -10.28751 -10.28452 -10.28227
 Alpha  occ. eigenvalues --  -10.28117 -10.28029 -10.28002 -10.27960 -10.27959
 Alpha  occ. eigenvalues --  -10.27601 -10.27534 -10.27509 -10.27470 -10.27382
 Alpha  occ. eigenvalues --  -10.27164 -10.27022 -10.26479 -10.26458 -10.26100
 Alpha  occ. eigenvalues --  -10.26050 -10.26009 -10.26002 -10.25977 -10.25937
 Alpha  occ. eigenvalues --  -10.25924 -10.25677 -10.25602 -10.25408 -10.25347
 Alpha  occ. eigenvalues --  -10.25206 -10.25064 -10.24850 -10.22164  -1.12427
 Alpha  occ. eigenvalues --   -1.11544  -1.09133  -1.05908  -0.93374  -0.92731
 Alpha  occ. eigenvalues --   -0.92268  -0.91215  -0.90526  -0.89994  -0.87537
 Alpha  occ. eigenvalues --   -0.87132  -0.86210  -0.85703  -0.85113  -0.83257
 Alpha  occ. eigenvalues --   -0.82036  -0.81060  -0.80778  -0.78793  -0.76936
 Alpha  occ. eigenvalues --   -0.76848  -0.76682  -0.76507  -0.75337  -0.74969
 Alpha  occ. eigenvalues --   -0.74709  -0.73820  -0.72719  -0.70782  -0.69979
 Alpha  occ. eigenvalues --   -0.68750  -0.67298  -0.65735  -0.64311  -0.63924
 Alpha  occ. eigenvalues --   -0.63016  -0.61549  -0.60805  -0.60007  -0.59481
 Alpha  occ. eigenvalues --   -0.59072  -0.58008  -0.57788  -0.57321  -0.56983
 Alpha  occ. eigenvalues --   -0.55572  -0.55351  -0.54767  -0.54625  -0.54071
 Alpha  occ. eigenvalues --   -0.53770  -0.52861  -0.52536  -0.52256  -0.51935
 Alpha  occ. eigenvalues --   -0.51719  -0.51147  -0.50909  -0.50743  -0.49750
 Alpha  occ. eigenvalues --   -0.49405  -0.49047  -0.48952  -0.48690  -0.48557
 Alpha  occ. eigenvalues --   -0.48084  -0.47995  -0.47624  -0.47391  -0.47219
 Alpha  occ. eigenvalues --   -0.46831  -0.46443  -0.45780  -0.45353  -0.45236
 Alpha  occ. eigenvalues --   -0.44551  -0.44313  -0.44281  -0.44087  -0.43901
 Alpha  occ. eigenvalues --   -0.43373  -0.43023  -0.42936  -0.42835  -0.42578
 Alpha  occ. eigenvalues --   -0.42558  -0.42082  -0.41744  -0.41399  -0.40953
 Alpha  occ. eigenvalues --   -0.40926  -0.40217  -0.40070  -0.39856  -0.39799
 Alpha  occ. eigenvalues --   -0.39530  -0.39304  -0.39159  -0.39094  -0.38555
 Alpha  occ. eigenvalues --   -0.38357  -0.38080  -0.37751  -0.36912  -0.36903
 Alpha  occ. eigenvalues --   -0.36815  -0.36449  -0.35492  -0.34781  -0.33985
 Alpha  occ. eigenvalues --   -0.32923  -0.32451  -0.31936  -0.31636  -0.30840
 Alpha  occ. eigenvalues --   -0.30107  -0.28267  -0.24579  -0.19481
 Alpha virt. eigenvalues --   -0.06859  -0.01131   0.02745   0.05365   0.06475
 Alpha virt. eigenvalues --    0.09036   0.09233   0.10190   0.10464   0.10710
 Alpha virt. eigenvalues --    0.11479   0.11811   0.12329   0.12936   0.13379

 Mulliken charges:
               1
     1  O   -0.531022
     2  O   -0.568470
     3  O   -0.556908
     4  O   -0.550097
     5  C    0.226983
     6  C    0.208319
     7  C    0.000615
     8  C   -0.190599
     9  C   -0.176450
    10  C    0.145569
    11  C   -0.344088
    12  C   -0.081549
    13  C   -0.283369
    14  C   -0.322055
    15  C   -0.085163
    16  C    0.084911
    17  C   -0.349070
    18  C   -0.080486
    19  C   -0.090958
    20  C    0.027359
    21  C    0.258664
    22  C   -0.223392
    23  C    0.185505
    24  C   -0.205244
    25  C   -0.068622
    26  C   -0.281775
    27  C   -0.300055
    28  C   -0.312683
    29  C   -0.131147
    30  C    0.089871
    31  C    0.144671
    32  C   -0.256542
    33  C   -0.388523
    34  C   -0.106675
    35  C    0.056938
    36  C   -0.341352
    37  C   -0.092226
    38  C   -0.115529
    39  C   -0.085738
    40  C   -0.089565
    41  C   -0.069992
    42  C   -0.122329
    43  C    0.127251
    44  C   -0.388503
    45  H    0.107974
    46  H    0.135909
    47  H    0.110188
    48  H    0.119472
    49  H    0.099945
    50  H    0.110768
    51  H    0.092603
    52  H    0.132485
    53  H    0.091801
    54  H    0.117324
    55  H    0.079701
    56  H    0.076317
    57  H    0.107008
    58  H    0.107528
    59  H    0.107803
    60  H    0.298441
    61  H    0.063195
    62  H    0.124672
    63  H    0.128560
    64  H    0.067566
    65  H    0.084526
    66  H    0.072381
    67  H    0.076263
    68  H    0.081524
    69  H    0.101135
    70  H    0.107632
    71  H    0.112600
    72  H    0.097263
    73  H    0.102194
    74  H    0.107850
    75  H    0.125723
    76  H    0.104841
    77  H    0.044054
    78  H    0.113006
    79  H    0.102141
    80  H    0.137636
    81  H    0.070733
    82  H    0.309650
    83  H    0.311027
    84  H    0.112863
    85  H    0.133751
    86  H    0.136279
    87  H    0.089560
    88  H    0.067930
    89  H    0.097635
    90  H    0.127056
    91  H    0.132527
    92  H    0.063809
    93  H    0.081110
    94  H    0.071800
    95  H    0.076710
    96  H    0.066984
    97  H    0.089392
    98  H    0.096055
    99  H    0.102700
   100  H    0.145924
 Sum of Mulliken charges =  -0.00000

 Dipole moment (field-independent basis, Debye):
    X=              2.8792    Y=             -0.0418    Z=              1.7446  Tot=              3.3668
 Quadrupole moment (field-independent basis, Debye-Ang):
   XX=           -295.5560   YY=           -261.4167   ZZ=           -279.8586
   XY=             -9.4701   XZ=             28.8693   YZ=             -0.3817

 Normal termination of Gaussian 16 at Thu Aug  1 02:46:34 2019.
