 Gaussian 16, Revision A.03,
 Gaussian 16:  ES64L-G16RevA.03 25-Dec-2016

 -------------------------------------
 # td=(NStates=1) CAM-B3LYP/6-31G(d,p)
 -------------------------------------

 --
 TD
 --
 Symbolic Z-matrix:
 Charge =  0 Multiplicity = 1

                         Standard orientation:
 ---------------------------------------------------------------------
 Center     Atomic      Atomic             Coordinates (Angstroms)
 Number     Number       Type             X           Y           Z
 ---------------------------------------------------------------------
      1          8           0      -11.780116    0.280517   -1.453446
      2          8           0      -12.919423   -2.494482    1.323891
      3          8           0       10.719748   -1.005086   -2.070884
      4          8           0       14.544695   -1.082464    0.198262
      5          6           0      -11.094705   -0.080237   -0.188371
      6          6           0      -11.701687   -1.106462   -1.184285
      7          6           0      -11.874378    0.377156    0.997312
      8          6           0      -13.091767   -1.765099   -0.963437
      9          6           0      -13.323437   -0.158583    0.975467
     10          6           0      -13.580427   -1.569559    0.483278
     11          6           0      -10.790471   -1.854148   -2.066128
     12          6           0       -9.624682    0.068444   -0.298057
     13          6           0      -11.204034   -0.116598    2.279212
     14          6           0      -11.760114    1.826377    0.998362
     15          6           0       -8.723591   -0.767989    0.108723
     16          6           0       -7.221445   -0.548138    0.107586
     17          6           0       -6.339018   -1.817064    0.349620
     18          6           0       -6.672198    0.674630   -0.091835
     19          6           0       -5.283513    0.917020   -0.003443
     20          6           0       11.802928    0.125028    1.420617
     21          6           0       11.742491   -0.598351   -1.178032
     22          6           0       12.452627   -1.271097    1.671891
     23          6           0       13.351638   -1.876206    0.473365
     24          6           0       12.471528   -2.000566   -0.791314
     25          6           0       11.074301    0.056781    0.087711
     26          6           0       10.881347    0.357321    2.584712
     27          6           0       13.012336    1.209268    1.432873
     28          6           0       12.676170    0.288924   -1.993903
     29          6           0       -4.706328    2.158483   -0.196940
     30          6           0        9.898105    0.531592   -0.139003
     31          6           0       -3.319415    2.551881   -0.360618
     32          6           0        8.664306    1.053327   -0.240196
     33          6           0       -3.070265    3.968494   -0.654706
     34          6           0       -2.286651    1.650623   -0.345169
     35          6           0        7.522542    0.143351   -0.155703
     36          6           0        7.815464   -1.345997   -0.041645
     37          6           0        6.238886    0.741409   -0.149819
     38          6           0       -0.944233    1.930164   -0.324947
     39          6           0        4.957417    0.072777   -0.133624
     40          6           0        0.143641    1.029417   -0.346014
     41          6           0        3.805365    0.752252   -0.280364
     42          6           0        1.472683    1.182162   -0.396605
     43          6           0        2.485446    0.340503   -0.203645
     44          6           0        2.252303   -1.113724    0.090626
     45          1           0      -13.311273   -2.796239   -1.242847
     46          1           0      -13.661602   -1.240507   -1.795757
     47          1           0      -13.862590    0.029725    1.913001
     48          1           0      -14.117497    0.487695    0.178350
     49          1           0      -14.729593   -1.810054    0.495791
     50          1           0      -10.488437   -2.790606   -1.750708
     51          1           0      -11.512738   -2.118115   -2.891215
     52          1           0       -9.787155   -1.552336   -2.251885
     53          1           0       -9.316050    0.850756   -0.960072
     54          1           0      -10.168166    0.349796    2.479947
     55          1           0      -11.930734    0.149309    3.089020
     56          1           0      -10.978855   -1.115456    2.488056
     57          1           0      -12.225588    2.436155    0.219339
     58          1           0      -12.266420    2.276830    1.932885
     59          1           0      -10.932655    2.315097    1.067740
     60          1           0      -12.034597   -2.459896    1.086732
     61          1           0       -9.153657   -1.782825    0.416921
     62          1           0       -5.747822   -1.946527   -0.636950
     63          1           0       -5.657007   -1.785184    1.139622
     64          1           0       -6.772381   -2.768511    0.404756
     65          1           0       -7.272392    1.420127   -0.167116
     66          1           0       -4.655639    0.182402    0.287467
     67          1           0       13.142978   -1.291781    2.551683
     68          1           0       11.578730   -1.893664    1.945136
     69          1           0       13.616498   -2.802656    0.676501
     70          1           0       13.239804   -2.128964   -1.668078
     71          1           0       11.719909   -2.857221   -0.560460
     72          1           0       11.671733    0.411435    3.423756
     73          1           0       10.446139    1.412585    2.600248
     74          1           0        9.999639   -0.370197    2.720557
     75          1           0       13.908101    1.025482    0.515625
     76          1           0       12.663268    2.132184    1.192272
     77          1           0       13.337098    1.443134    2.509527
     78          1           0       13.202189   -0.133721   -3.033640
     79          1           0       12.287979    1.346317   -2.280651
     80          1           0       13.650211    0.418574   -1.246776
     81          1           0       -5.536559    2.892172   -0.425806
     82          1           0       10.282773   -0.142320   -2.634738
     83          1           0       15.212858   -1.050560    0.971207
     84          1           0        8.330263    2.030333   -0.539178
     85          1           0       -2.336803    4.172894    0.111202
     86          1           0       -2.702449    4.340657   -1.817574
     87          1           0       -4.055346    4.579877   -0.514252
     88          1           0       -2.399047    0.553041   -0.312425
     89          1           0        6.730572   -1.766814   -0.206369
     90          1           0        8.369916   -1.785898   -0.802838
     91          1           0        8.098763   -1.688951    1.041508
     92          1           0        6.177727    1.807488   -0.375478
     93          1           0       -0.741047    2.908749   -0.742459
     94          1           0        5.017079   -0.983996   -0.003676
     95          1           0       -0.252053    0.034872    0.100901
     96          1           0        4.291401    1.841044   -0.578739
     97          1           0        1.850817    2.174416   -0.709804
     98          1           0        1.237610   -1.601735   -0.166091
     99          1           0        3.094956   -1.703205   -0.456386
    100          1           0        2.272927   -1.348489    1.228287
 ---------------------------------------------------------------------

 SCF Done:  E(RCAM-B3LYP) =  -1857.29627276     A.U. after   15 cycles

 Excitation energies and oscillator strengths:

 Excited State   1:      Singlet-A      2.2262 eV  556.94 nm  f=3.2086  <S**2>=0.000
     163 ->166         0.13379
     164 ->165         0.69507
 This state for optimization and/or second-order correction.
 Total Energy, E(TD-HF/TD-DFT) =  -1857.21446257
 Copying the excited state density for this state as the 1-particle RhoCI density.

 The electronic state is 1-A.
 Alpha  occ. eigenvalues --  -19.22648 -19.21772 -19.21356 -19.20750 -10.32781
 Alpha  occ. eigenvalues --  -10.32351 -10.31649 -10.31591 -10.30933 -10.28774
 Alpha  occ. eigenvalues --  -10.28609 -10.28193 -10.27929 -10.27607 -10.27397
 Alpha  occ. eigenvalues --  -10.27316 -10.27274 -10.27229 -10.27182 -10.27136
 Alpha  occ. eigenvalues --  -10.27041 -10.26936 -10.26838 -10.26772 -10.26716
 Alpha  occ. eigenvalues --  -10.26693 -10.26642 -10.26377 -10.26363 -10.26263
 Alpha  occ. eigenvalues --  -10.26236 -10.26016 -10.25989 -10.25951 -10.25926
 Alpha  occ. eigenvalues --  -10.25770 -10.25747 -10.25684 -10.25517 -10.25156
 Alpha  occ. eigenvalues --  -10.24902 -10.24799 -10.24223 -10.23066  -1.14012
 Alpha  occ. eigenvalues --   -1.11041  -1.08235  -1.07370  -0.92994  -0.92528
 Alpha  occ. eigenvalues --   -0.92265  -0.91955  -0.90863  -0.90072  -0.87612
 Alpha  occ. eigenvalues --   -0.86631  -0.86360  -0.84797  -0.84579  -0.83131
 Alpha  occ. eigenvalues --   -0.82276  -0.81507  -0.79602  -0.78591  -0.77409
 Alpha  occ. eigenvalues --   -0.77029  -0.76638  -0.76066  -0.75203  -0.74849
 Alpha  occ. eigenvalues --   -0.74490  -0.74368  -0.73238  -0.70640  -0.69574
 Alpha  occ. eigenvalues --   -0.68743  -0.66977  -0.65457  -0.64987  -0.64395
 Alpha  occ. eigenvalues --   -0.63459  -0.61862  -0.61261  -0.60809  -0.60241
 Alpha  occ. eigenvalues --   -0.60115  -0.58465  -0.57820  -0.57255  -0.56617
 Alpha  occ. eigenvalues --   -0.56194  -0.55968  -0.55541  -0.54793  -0.53856
 Alpha  occ. eigenvalues --   -0.53802  -0.53088  -0.52428  -0.52065  -0.51937
 Alpha  occ. eigenvalues --   -0.51723  -0.51291  -0.50688  -0.49780  -0.49616
 Alpha  occ. eigenvalues --   -0.49349  -0.48527  -0.48365  -0.48239  -0.47746
 Alpha  occ. eigenvalues --   -0.47623  -0.47449  -0.47228  -0.47060  -0.46916
 Alpha  occ. eigenvalues --   -0.46401  -0.46222  -0.45829  -0.45609  -0.44997
 Alpha  occ. eigenvalues --   -0.44942  -0.44191  -0.43698  -0.43540  -0.43505
 Alpha  occ. eigenvalues --   -0.43143  -0.42900  -0.42740  -0.42493  -0.42310
 Alpha  occ. eigenvalues --   -0.41808  -0.41698  -0.41224  -0.41066  -0.40759
 Alpha  occ. eigenvalues --   -0.40485  -0.40480  -0.40248  -0.39923  -0.39673
 Alpha  occ. eigenvalues --   -0.39597  -0.39079  -0.38826  -0.38732  -0.38554
 Alpha  occ. eigenvalues --   -0.38054  -0.37675  -0.37457  -0.37236  -0.36799
 Alpha  occ. eigenvalues --   -0.36014  -0.35799  -0.35577  -0.34641  -0.33521
 Alpha  occ. eigenvalues --   -0.32723  -0.32520  -0.32027  -0.31846  -0.31009
 Alpha  occ. eigenvalues --   -0.29978  -0.28013  -0.24686  -0.19802
 Alpha virt. eigenvalues --   -0.06072  -0.00488   0.02998   0.06574   0.07002
 Alpha virt. eigenvalues --    0.09240   0.10159   0.10562   0.10898   0.11776
 Alpha virt. eigenvalues --    0.12047   0.12423   0.12963   0.13647   0.13994

 Mulliken charges:
               1
     1  O   -0.511985
     2  O   -0.528614
     3  O   -0.575981
     4  O   -0.567747
     5  C    0.165915
     6  C    0.240166
     7  C    0.037013
     8  C   -0.215133
     9  C   -0.163846
    10  C    0.135628
    11  C   -0.333168
    12  C   -0.092435
    13  C   -0.313707
    14  C   -0.306432
    15  C   -0.091966
    16  C    0.062009
    17  C   -0.381647
    18  C   -0.078294
    19  C   -0.043966
    20  C    0.028157
    21  C    0.288675
    22  C   -0.189230
    23  C    0.174602
    24  C   -0.199519
    25  C   -0.089832
    26  C   -0.305047
    27  C   -0.313739
    28  C   -0.317166
    29  C   -0.139699
    30  C    0.186471
    31  C    0.093778
    32  C   -0.260204
    33  C   -0.363238
    34  C   -0.088740
    35  C    0.093224
    36  C   -0.361322
    37  C   -0.132313
    38  C   -0.099488
    39  C   -0.062554
    40  C   -0.105457
    41  C   -0.119809
    42  C   -0.101286
    43  C    0.140514
    44  C   -0.377418
    45  H    0.113053
    46  H    0.118728
    47  H    0.106580
    48  H    0.060862
    49  H    0.090049
    50  H    0.109377
    51  H    0.103331
    52  H    0.125242
    53  H    0.111287
    54  H    0.099670
    55  H    0.103729
    56  H    0.105717
    57  H    0.119334
    58  H    0.078098
    59  H    0.118862
    60  H    0.299851
    61  H    0.074950
    62  H    0.113801
    63  H    0.133424
    64  H    0.115365
    65  H    0.069476
    66  H    0.076999
    67  H    0.078102
    68  H    0.094060
    69  H    0.096694
    70  H    0.110684
    71  H    0.114141
    72  H    0.090753
    73  H    0.103722
    74  H    0.108506
    75  H    0.107780
    76  H    0.114484
    77  H    0.085345
    78  H    0.095523
    79  H    0.090629
    80  H    0.110916
    81  H    0.071396
    82  H    0.305594
    83  H    0.316369
    84  H    0.103997
    85  H    0.137299
    86  H    0.098212
    87  H    0.103048
    88  H    0.076874
    89  H    0.081189
    90  H    0.156695
    91  H    0.110921
    92  H    0.072350
    93  H    0.079467
    94  H    0.081399
    95  H    0.060123
    96  H    0.067446
    97  H    0.075964
    98  H    0.111959
    99  H    0.108750
   100  H    0.116652
 Sum of Mulliken charges =  -0.00000

 Dipole moment (field-independent basis, Debye):
    X=              4.2987    Y=             -0.7636    Z=              1.2151  Tot=              4.5320
 Quadrupole moment (field-independent basis, Debye-Ang):
   XX=           -255.0697   YY=           -261.0620   ZZ=           -275.3221
   XY=              0.5583   XZ=             23.8383   YZ=             -2.6543

 Normal termination of Gaussian 16 at Thu Aug  1 11:52:33 2019.
