 Gaussian 16, Revision A.03,
 Gaussian 16:  ES64L-G16RevA.03 25-Dec-2016

 -------------------------------------
 # td=(NStates=1) CAM-B3LYP/6-31G(d,p)
 -------------------------------------

 --
 TD
 --
 Symbolic Z-matrix:
 Charge =  0 Multiplicity = 1

                         Standard orientation:
 ---------------------------------------------------------------------
 Center     Atomic      Atomic             Coordinates (Angstroms)
 Number     Number       Type             X           Y           Z
 ---------------------------------------------------------------------
      1          8           0      -11.876319    0.370530   -1.473312
      2          8           0      -13.043646   -2.625091    1.283901
      3          8           0       10.549064   -0.838648   -2.027508
      4          8           0       14.494001   -1.011281   -0.313593
      5          6           0      -11.114483   -0.082551   -0.150993
      6          6           0      -11.714209   -1.000904   -1.247612
      7          6           0      -11.851515    0.308451    1.059944
      8          6           0      -12.997074   -1.739579   -0.919014
      9          6           0      -13.253445   -0.171070    1.056435
     10          6           0      -13.532411   -1.615459    0.523922
     11          6           0      -10.846000   -1.638631   -2.301415
     12          6           0       -9.618133    0.234141   -0.249565
     13          6           0      -11.113940   -0.293700    2.356396
     14          6           0      -11.717817    1.870845    1.115955
     15          6           0       -8.648621   -0.743172   -0.123072
     16          6           0       -7.217636   -0.480510   -0.106677
     17          6           0       -6.340254   -1.682412    0.118048
     18          6           0       -6.576137    0.747652   -0.238504
     19          6           0       -5.237919    1.035813   -0.207019
     20          6           0       12.045319   -0.005064    1.332411
     21          6           0       11.701430   -0.468173   -1.257161
     22          6           0       12.722228   -1.330951    1.483834
     23          6           0       13.374322   -1.761261    0.087651
     24          6           0       12.410479   -1.834810   -1.063791
     25          6           0       11.105822    0.077169    0.197220
     26          6           0       11.156231    0.089961    2.627755
     27          6           0       12.908144    1.223253    1.390452
     28          6           0       12.468809    0.500830   -2.023962
     29          6           0       -4.676226    2.314176   -0.392606
     30          6           0        9.865748    0.542616    0.182343
     31          6           0       -3.210830    2.535934   -0.348864
     32          6           0        8.622731    0.977793   -0.140002
     33          6           0       -2.862730    3.948782   -0.795945
     34          6           0       -2.296634    1.511805   -0.233699
     35          6           0        7.418220    0.124950    0.110970
     36          6           0        7.534911   -1.402182    0.110759
     37          6           0        6.282189    0.762587   -0.010417
     38          6           0       -0.932135    1.735585   -0.167686
     39          6           0        4.873046    0.079146    0.122143
     40          6           0        0.054347    0.778527    0.025992
     41          6           0        3.770837    0.774817    0.019916
     42          6           0        1.364913    0.988100   -0.176626
     43          6           0        2.426866    0.161518    0.105946
     44          6           0        2.292479   -1.304671    0.280561
     45          1           0      -13.021220   -2.776539   -0.978165
     46          1           0      -13.624452   -1.375591   -1.716400
     47          1           0      -13.633097    0.050662    2.034866
     48          1           0      -13.943990    0.697161    0.554251
     49          1           0      -14.677192   -1.707391    0.415485
     50          1           0      -10.566891   -2.750600   -1.925329
     51          1           0      -11.507918   -1.753074   -3.202263
     52          1           0      -10.076946   -0.957950   -2.714830
     53          1           0       -9.432884    1.190441   -0.541155
     54          1           0      -10.202843    0.095943    2.418136
     55          1           0      -11.713871    0.138323    3.137698
     56          1           0      -10.963821   -1.343375    2.261656
     57          1           0      -12.102547    2.239755    0.160876
     58          1           0      -12.394897    2.128939    1.865056
     59          1           0      -10.587940    2.057374    1.456776
     60          1           0      -12.226347   -2.657464    0.769728
     61          1           0       -8.735831   -1.836001   -0.069954
     62          1           0       -5.715891   -1.874359   -0.769122
     63          1           0       -5.526458   -1.791870    1.025529
     64          1           0       -7.081035   -2.352294    0.238879
     65          1           0       -7.371613    1.687107   -0.243621
     66          1           0       -4.528946    0.333576   -0.133512
     67          1           0       13.491211   -1.488703    2.334791
     68          1           0       11.990911   -1.904800    1.898831
     69          1           0       13.702285   -2.685432    0.285261
     70          1           0       12.964990   -1.918307   -1.979709
     71          1           0       11.596638   -2.805545   -0.908432
     72          1           0       11.813771   -0.152475    3.611837
     73          1           0       10.559483    1.035672    2.608431
     74          1           0       10.393497   -0.670123    2.723247
     75          1           0       13.893802    1.227719    0.806088
     76          1           0       12.416142    2.094338    1.358875
     77          1           0       13.269242    1.305115    2.557473
     78          1           0       12.798693    0.015115   -2.978802
     79          1           0       12.160183    1.461693   -2.248938
     80          1           0       13.473228    0.767623   -1.529369
     81          1           0       -5.418299    3.297425   -0.495874
     82          1           0       10.170357   -0.097490   -2.404295
     83          1           0       15.116104   -1.059982    0.192985
     84          1           0        8.475887    2.082223   -0.316891
     85          1           0       -2.345788    4.503070   -0.083718
     86          1           0       -2.481559    3.926745   -1.788504
     87          1           0       -3.895825    4.439707   -0.641965
     88          1           0       -2.562476    0.412713   -0.028660
     89          1           0        6.650548   -1.948530   -0.282664
     90          1           0        8.326810   -1.705809   -0.702549
     91          1           0        8.033310   -1.699620    0.930421
     92          1           0        6.118400    1.819049   -0.204891
     93          1           0       -0.604694    2.740731   -0.542718
     94          1           0        4.876311   -0.877387    0.473252
     95          1           0       -0.318529   -0.287641    0.293954
     96          1           0        3.782912    1.840574   -0.124160
     97          1           0        1.706286    1.993247   -0.432996
     98          1           0        1.168048   -1.659724    0.533251
     99          1           0        2.641515   -1.685794   -0.768432
    100          1           0        2.842925   -1.538347    1.130238
 ---------------------------------------------------------------------

 SCF Done:  E(RCAM-B3LYP) =  -1857.28400171     A.U. after   15 cycles

 Excitation energies and oscillator strengths:

 Excited State   1:      Singlet-A      2.2799 eV  543.81 nm  f=2.5957  <S**2>=0.000
     163 ->166         0.12405
     164 ->165         0.69697
 This state for optimization and/or second-order correction.
 Total Energy, E(TD-HF/TD-DFT) =  -1857.20021690
 Copying the excited state density for this state as the 1-particle RhoCI density.

 The electronic state is 1-A.
 Alpha  occ. eigenvalues --  -19.22719 -19.21050 -19.20846 -19.19712 -10.32229
 Alpha  occ. eigenvalues --  -10.32036 -10.31603 -10.31505 -10.30389 -10.28380
 Alpha  occ. eigenvalues --  -10.27935 -10.27700 -10.27670 -10.27277 -10.27178
 Alpha  occ. eigenvalues --  -10.27143 -10.27051 -10.26933 -10.26919 -10.26893
 Alpha  occ. eigenvalues --  -10.26871 -10.26824 -10.26790 -10.26589 -10.26482
 Alpha  occ. eigenvalues --  -10.26473 -10.26423 -10.26027 -10.25661 -10.25661
 Alpha  occ. eigenvalues --  -10.25650 -10.25580 -10.25448 -10.25369 -10.25267
 Alpha  occ. eigenvalues --  -10.25239 -10.25134 -10.25053 -10.24960 -10.24945
 Alpha  occ. eigenvalues --  -10.24934 -10.24760 -10.24234 -10.23212  -1.14563
 Alpha  occ. eigenvalues --   -1.14243  -1.11436  -1.09833  -0.93399  -0.92396
 Alpha  occ. eigenvalues --   -0.91915  -0.91263  -0.90549  -0.89892  -0.87288
 Alpha  occ. eigenvalues --   -0.86976  -0.86076  -0.85291  -0.84308  -0.82942
 Alpha  occ. eigenvalues --   -0.82171  -0.80916  -0.79930  -0.79128  -0.77027
 Alpha  occ. eigenvalues --   -0.76746  -0.76601  -0.76404  -0.76015  -0.75637
 Alpha  occ. eigenvalues --   -0.74697  -0.74600  -0.73357  -0.71341  -0.70304
 Alpha  occ. eigenvalues --   -0.68534  -0.66635  -0.65775  -0.65058  -0.63872
 Alpha  occ. eigenvalues --   -0.63578  -0.62070  -0.61203  -0.60541  -0.59935
 Alpha  occ. eigenvalues --   -0.59275  -0.59100  -0.57529  -0.57319  -0.57125
 Alpha  occ. eigenvalues --   -0.56034  -0.55476  -0.54944  -0.54737  -0.54349
 Alpha  occ. eigenvalues --   -0.53371  -0.53028  -0.52716  -0.52571  -0.52227
 Alpha  occ. eigenvalues --   -0.51842  -0.51174  -0.50939  -0.50746  -0.50046
 Alpha  occ. eigenvalues --   -0.49780  -0.49642  -0.49208  -0.48737  -0.48708
 Alpha  occ. eigenvalues --   -0.48513  -0.47983  -0.47704  -0.47392  -0.46829
 Alpha  occ. eigenvalues --   -0.46469  -0.46140  -0.45883  -0.45556  -0.45274
 Alpha  occ. eigenvalues --   -0.45096  -0.44500  -0.43947  -0.43799  -0.43532
 Alpha  occ. eigenvalues --   -0.43337  -0.43103  -0.42627  -0.42155  -0.41962
 Alpha  occ. eigenvalues --   -0.41582  -0.41550  -0.41388  -0.41211  -0.41095
 Alpha  occ. eigenvalues --   -0.40936  -0.40783  -0.40453  -0.40423  -0.40144
 Alpha  occ. eigenvalues --   -0.40068  -0.39862  -0.39616  -0.38953  -0.38683
 Alpha  occ. eigenvalues --   -0.38212  -0.38065  -0.37680  -0.37322  -0.36738
 Alpha  occ. eigenvalues --   -0.36213  -0.36188  -0.35337  -0.34193  -0.33831
 Alpha  occ. eigenvalues --   -0.33206  -0.32177  -0.31617  -0.30922  -0.30573
 Alpha  occ. eigenvalues --   -0.29294  -0.27276  -0.24809  -0.19862
 Alpha virt. eigenvalues --   -0.05596  -0.00198   0.03387   0.06573   0.07057
 Alpha virt. eigenvalues --    0.09933   0.10209   0.11291   0.11548   0.11776
 Alpha virt. eigenvalues --    0.12425   0.13173   0.13344   0.13750   0.14125

 Mulliken charges:
               1
     1  O   -0.533449
     2  O   -0.493849
     3  O   -0.547638
     4  O   -0.497529
     5  C    0.160480
     6  C    0.269830
     7  C   -0.015582
     8  C   -0.257089
     9  C   -0.171864
    10  C    0.138244
    11  C   -0.316690
    12  C   -0.115991
    13  C   -0.291591
    14  C   -0.312177
    15  C   -0.061725
    16  C    0.056777
    17  C   -0.356125
    18  C   -0.101741
    19  C   -0.042971
    20  C    0.020759
    21  C    0.261184
    22  C   -0.195923
    23  C    0.150427
    24  C   -0.168400
    25  C   -0.056485
    26  C   -0.320660
    27  C   -0.281628
    28  C   -0.340705
    29  C   -0.121042
    30  C    0.114430
    31  C    0.050943
    32  C   -0.267638
    33  C   -0.364793
    34  C   -0.099552
    35  C    0.113509
    36  C   -0.380611
    37  C   -0.120034
    38  C   -0.092777
    39  C   -0.100051
    40  C   -0.082251
    41  C   -0.090987
    42  C   -0.109497
    43  C    0.079820
    44  C   -0.357628
    45  H    0.110760
    46  H    0.128644
    47  H    0.096769
    48  H    0.074840
    49  H    0.084823
    50  H    0.078238
    51  H    0.105643
    52  H    0.131829
    53  H    0.121004
    54  H    0.112880
    55  H    0.105163
    56  H    0.101671
    57  H    0.138051
    58  H    0.103904
    59  H    0.094644
    60  H    0.308438
    61  H    0.085061
    62  H    0.126304
    63  H    0.099261
    64  H    0.099058
    65  H    0.056525
    66  H    0.074820
    67  H    0.078577
    68  H    0.113383
    69  H    0.083161
    70  H    0.116589
    71  H    0.096852
    72  H    0.074077
    73  H    0.107476
    74  H    0.106120
    75  H    0.105449
    76  H    0.116908
    77  H    0.062454
    78  H    0.108744
    79  H    0.112936
    80  H    0.129363
    81  H    0.081469
    82  H    0.293177
    83  H    0.266433
    84  H    0.107640
    85  H    0.129095
    86  H    0.141867
    87  H    0.096708
    88  H    0.082291
    89  H    0.118789
    90  H    0.134104
    91  H    0.129304
    92  H    0.076017
    93  H    0.079076
    94  H    0.083337
    95  H    0.071159
    96  H    0.081427
    97  H    0.072576
    98  H    0.093313
    99  H    0.129718
   100  H    0.132355
 Sum of Mulliken charges =  -0.00000

 Dipole moment (field-independent basis, Debye):
    X=              4.9650    Y=             -0.5598    Z=              0.5125  Tot=              5.0227
 Quadrupole moment (field-independent basis, Debye-Ang):
   XX=           -261.0744   YY=           -259.0502   ZZ=           -276.8825
   XY=             -3.2918   XZ=             17.9783   YZ=             -1.7638

 Normal termination of Gaussian 16 at Mon Jul 29 01:16:17 2019.
