 Gaussian 16, Revision A.03,
 Gaussian 16:  ES64L-G16RevA.03 25-Dec-2016

 -------------------------------------
 # td=(NStates=1) CAM-B3LYP/6-31G(d,p)
 -------------------------------------

 --
 TD
 --
 Symbolic Z-matrix:
 Charge =  0 Multiplicity = 1

                         Standard orientation:
 ---------------------------------------------------------------------
 Center     Atomic      Atomic             Coordinates (Angstroms)
 Number     Number       Type             X           Y           Z
 ---------------------------------------------------------------------
      1          8           0      -11.726762    0.495406   -1.347454
      2          8           0      -12.742674   -2.737039    1.095886
      3          8           0       10.464469   -1.004667   -2.105387
      4          8           0       14.419917   -0.785621   -0.303974
      5          6           0      -11.012156   -0.109307   -0.355132
      6          6           0      -11.675301   -0.909197   -1.292530
      7          6           0      -11.670517    0.197567    1.046665
      8          6           0      -12.972316   -1.643144   -1.088521
      9          6           0      -13.132576   -0.294083    1.003025
     10          6           0      -13.386626   -1.671910    0.462392
     11          6           0      -10.789083   -1.509815   -2.373553
     12          6           0       -9.560539    0.218591   -0.443377
     13          6           0      -10.974513   -0.416652    2.263127
     14          6           0      -11.696823    1.763862    1.160054
     15          6           0       -8.692429   -0.740642   -0.068597
     16          6           0       -7.216026   -0.651902   -0.005045
     17          6           0       -6.525205   -1.838680    0.233276
     18          6           0       -6.694415    0.598544   -0.239915
     19          6           0       -5.286057    0.944103   -0.113415
     20          6           0       11.940313   -0.017828    1.336767
     21          6           0       11.612447   -0.669675   -1.305366
     22          6           0       12.747147   -1.358832    1.431856
     23          6           0       13.374187   -1.727478    0.179271
     24          6           0       12.346106   -1.935123   -1.008389
     25          6           0       11.013451   -0.011604    0.044602
     26          6           0       11.034476    0.015795    2.621997
     27          6           0       12.938913    1.203355    1.166853
     28          6           0       12.358129    0.403843   -2.100242
     29          6           0       -4.714622    2.203126   -0.300355
     30          6           0        9.895110    0.449362   -0.086240
     31          6           0       -3.407884    2.544304   -0.267478
     32          6           0        8.710545    0.970348   -0.108299
     33          6           0       -3.139885    4.029429   -0.618303
     34          6           0       -2.392845    1.699157   -0.021347
     35          6           0        7.439946    0.134585    0.032580
     36          6           0        7.652427   -1.316761    0.303157
     37          6           0        6.230161    0.677343   -0.084407
     38          6           0       -1.019266    1.926350   -0.148428
     39          6           0        5.004197    0.126343    0.092255
     40          6           0       -0.027457    0.993727    0.054308
     41          6           0        3.837212    0.871785   -0.037822
     42          6           0        1.379937    1.292493   -0.005573
     43          6           0        2.446107    0.417007    0.167627
     44          6           0        2.311588   -1.110065    0.467658
     45          1           0      -12.980015   -2.727555   -1.264414
     46          1           0      -13.468454   -1.181511   -1.792160
     47          1           0      -13.412102   -0.228484    2.097896
     48          1           0      -13.794775    0.473094    0.405122
     49          1           0      -14.491370   -1.947730    0.327995
     50          1           0      -10.367884   -2.455736   -1.982810
     51          1           0      -11.311740   -1.836175   -3.489481
     52          1           0       -9.940381   -0.769017   -2.551944
     53          1           0       -9.457935    1.273414   -0.578160
     54          1           0       -9.757868   -0.379051    2.285764
     55          1           0      -11.286529    0.074682    3.145680
     56          1           0      -11.030478   -1.478048    2.410708
     57          1           0      -12.324115    2.502655    0.318661
     58          1           0      -11.947344    1.853985    2.245511
     59          1           0      -10.650242    2.089306    1.104116
     60          1           0      -11.816160   -3.034996    0.756089
     61          1           0       -9.028527   -1.890447    0.190414
     62          1           0       -5.745360   -2.081248   -0.516473
     63          1           0       -5.762123   -1.397052    1.191667
     64          1           0       -7.373763   -2.538855    0.804692
     65          1           0       -7.437162    1.532695   -0.208322
     66          1           0       -4.528417   -0.002478    0.035888
     67          1           0       13.433702   -1.344226    2.388882
     68          1           0       12.082752   -2.137468    1.591654
     69          1           0       14.018030   -2.704897    0.330074
     70          1           0       12.732056   -2.424801   -1.938199
     71          1           0       11.656149   -2.767652   -0.540397
     72          1           0       11.765505    0.115398    3.567129
     73          1           0       10.358930    0.779909    2.533531
     74          1           0       10.575482   -0.915339    2.634908
     75          1           0       13.626424    1.239935    0.139395
     76          1           0       12.417071    2.015709    1.003880
     77          1           0       13.681682    1.270755    2.138115
     78          1           0       12.785902   -0.178920   -2.998355
     79          1           0       11.494370    1.354530   -2.216432
     80          1           0       13.222106    0.746006   -1.519943
     81          1           0       -5.519573    3.083786   -0.244390
     82          1           0        9.814270   -0.217605   -2.135919
     83          1           0       15.039548   -0.704234    0.446084
     84          1           0        8.628956    2.027059   -0.363263
     85          1           0       -2.555250    4.631088    0.188772
     86          1           0       -2.662783    4.063082   -1.645500
     87          1           0       -3.975975    4.867051   -0.569477
     88          1           0       -2.688062    0.587786    0.025475
     89          1           0        6.622117   -1.712161   -0.055082
     90          1           0        8.317931   -1.611026   -0.418175
     91          1           0        7.938001   -1.709201    1.391536
     92          1           0        6.366739    1.701466   -0.167672
     93          1           0       -0.948098    2.936347   -0.448423
     94          1           0        4.768174   -1.056668    0.175605
     95          1           0       -0.528670    0.130281    0.486240
     96          1           0        4.003125    1.908552   -0.312167
     97          1           0        1.595797    2.344111   -0.447539
     98          1           0        1.151170   -1.301531    0.301947
     99          1           0        2.777340   -1.814903   -0.225406
    100          1           0        2.883094   -1.288249    1.283265
 ---------------------------------------------------------------------

 SCF Done:  E(RCAM-B3LYP) =  -1857.23648327     A.U. after   15 cycles

 Excitation energies and oscillator strengths:

 Excited State   1:      Singlet-A      2.2639 eV  547.65 nm  f=2.8663  <S**2>=0.000
     163 ->166         0.14773
     164 ->165         0.68947
 This state for optimization and/or second-order correction.
 Total Energy, E(TD-HF/TD-DFT) =  -1857.15328560
 Copying the excited state density for this state as the 1-particle RhoCI density.

 The electronic state is 1-A.
 Alpha  occ. eigenvalues --  -19.22510 -19.21926 -19.21290 -19.20103 -10.32326
 Alpha  occ. eigenvalues --  -10.31976 -10.31774 -10.31187 -10.30485 -10.29475
 Alpha  occ. eigenvalues --  -10.29100 -10.28408 -10.28401 -10.28194 -10.27766
 Alpha  occ. eigenvalues --  -10.27762 -10.27582 -10.27448 -10.27303 -10.27211
 Alpha  occ. eigenvalues --  -10.27188 -10.27147 -10.27127 -10.27028 -10.26978
 Alpha  occ. eigenvalues --  -10.26972 -10.26727 -10.26549 -10.26457 -10.26373
 Alpha  occ. eigenvalues --  -10.26256 -10.26024 -10.26009 -10.26007 -10.25931
 Alpha  occ. eigenvalues --  -10.25853 -10.25853 -10.25662 -10.25273 -10.25089
 Alpha  occ. eigenvalues --  -10.25070 -10.24966 -10.24693 -10.24529  -1.19115
 Alpha  occ. eigenvalues --   -1.09564  -1.08300  -1.07652  -0.92953  -0.92892
 Alpha  occ. eigenvalues --   -0.92120  -0.91839  -0.90087  -0.89808  -0.87836
 Alpha  occ. eigenvalues --   -0.86817  -0.86398  -0.85286  -0.85041  -0.83494
 Alpha  occ. eigenvalues --   -0.82088  -0.80782  -0.80109  -0.78436  -0.76956
 Alpha  occ. eigenvalues --   -0.76612  -0.76139  -0.76117  -0.75866  -0.75363
 Alpha  occ. eigenvalues --   -0.75339  -0.73935  -0.73176  -0.70646  -0.69163
 Alpha  occ. eigenvalues --   -0.68358  -0.67071  -0.66162  -0.64193  -0.63897
 Alpha  occ. eigenvalues --   -0.63140  -0.61928  -0.60758  -0.59691  -0.59463
 Alpha  occ. eigenvalues --   -0.58111  -0.57813  -0.57150  -0.56819  -0.56516
 Alpha  occ. eigenvalues --   -0.56113  -0.55299  -0.55165  -0.54758  -0.54145
 Alpha  occ. eigenvalues --   -0.53592  -0.53440  -0.52985  -0.52576  -0.51970
 Alpha  occ. eigenvalues --   -0.51017  -0.50642  -0.50558  -0.50200  -0.49594
 Alpha  occ. eigenvalues --   -0.49309  -0.49093  -0.49074  -0.48982  -0.48683
 Alpha  occ. eigenvalues --   -0.48524  -0.48176  -0.47873  -0.47643  -0.46500
 Alpha  occ. eigenvalues --   -0.45918  -0.45514  -0.45369  -0.45090  -0.44791
 Alpha  occ. eigenvalues --   -0.44202  -0.44049  -0.43702  -0.43570  -0.43190
 Alpha  occ. eigenvalues --   -0.43152  -0.42555  -0.42414  -0.42341  -0.42131
 Alpha  occ. eigenvalues --   -0.41879  -0.41772  -0.41439  -0.41041  -0.40930
 Alpha  occ. eigenvalues --   -0.40599  -0.40522  -0.40428  -0.40334  -0.40132
 Alpha  occ. eigenvalues --   -0.39500  -0.39392  -0.38861  -0.38767  -0.38555
 Alpha  occ. eigenvalues --   -0.38146  -0.38051  -0.37820  -0.37643  -0.36914
 Alpha  occ. eigenvalues --   -0.36756  -0.35533  -0.35298  -0.34173  -0.33162
 Alpha  occ. eigenvalues --   -0.32656  -0.32048  -0.31922  -0.31613  -0.31107
 Alpha  occ. eigenvalues --   -0.30831  -0.28236  -0.24369  -0.20203
 Alpha virt. eigenvalues --   -0.05863  -0.01112   0.03120   0.06574   0.07437
 Alpha virt. eigenvalues --    0.08493   0.09327   0.09846   0.10600   0.11826
 Alpha virt. eigenvalues --    0.12016   0.12437   0.12863   0.13038   0.13167

 Mulliken charges:
               1
     1  O   -0.491156
     2  O   -0.559308
     3  O   -0.582968
     4  O   -0.558302
     5  C    0.180226
     6  C    0.224762
     7  C    0.033493
     8  C   -0.223701
     9  C   -0.174409
    10  C    0.181841
    11  C   -0.313269
    12  C   -0.102555
    13  C   -0.323597
    14  C   -0.296694
    15  C   -0.077231
    16  C    0.148485
    17  C   -0.386417
    18  C   -0.108070
    19  C   -0.086608
    20  C    0.020005
    21  C    0.260403
    22  C   -0.175805
    23  C    0.137325
    24  C   -0.192046
    25  C   -0.168430
    26  C   -0.293241
    27  C   -0.289666
    28  C   -0.252624
    29  C   -0.130883
    30  C    0.261570
    31  C    0.129145
    32  C   -0.316965
    33  C   -0.386962
    34  C   -0.125228
    35  C    0.073140
    36  C   -0.360278
    37  C   -0.072142
    38  C   -0.062516
    39  C   -0.088747
    40  C   -0.098848
    41  C   -0.112686
    42  C   -0.132585
    43  C    0.088991
    44  C   -0.371478
    45  H    0.103174
    46  H    0.127305
    47  H    0.087801
    48  H    0.100966
    49  H    0.096439
    50  H    0.093731
    51  H    0.072057
    52  H    0.121735
    53  H    0.118949
    54  H    0.079001
    55  H    0.109715
    56  H    0.116913
    57  H    0.104334
    58  H    0.097270
    59  H    0.097420
    60  H    0.316303
    61  H    0.050944
    62  H    0.153565
    63  H    0.091567
    64  H    0.104931
    65  H    0.076987
    66  H    0.064268
    67  H    0.085921
    68  H    0.111465
    69  H    0.071266
    70  H    0.119449
    71  H    0.102879
    72  H    0.079266
    73  H    0.120692
    74  H    0.115375
    75  H    0.111972
    76  H    0.114947
    77  H    0.064471
    78  H    0.106576
    79  H    0.056897
    80  H    0.127160
    81  H    0.080540
    82  H    0.308913
    83  H    0.303442
    84  H    0.104887
    85  H    0.111656
    86  H    0.129530
    87  H    0.101636
    88  H    0.063780
    89  H    0.090706
    90  H    0.139434
    91  H    0.106624
    92  H    0.077155
    93  H    0.077881
    94  H    0.078749
    95  H    0.090454
    96  H    0.077279
    97  H    0.091623
    98  H    0.104578
    99  H    0.124975
   100  H    0.138477
 Sum of Mulliken charges =  -0.00000

 Dipole moment (field-independent basis, Debye):
    X=              2.0917    Y=             -0.7003    Z=              2.0912  Tot=              3.0396
 Quadrupole moment (field-independent basis, Debye-Ang):
   XX=           -270.8791   YY=           -258.2561   ZZ=           -281.3300
   XY=              1.1612   XZ=             33.3044   YZ=             -2.8121

 Normal termination of Gaussian 16 at Mon Jul 29 19:25:18 2019.
