 Gaussian 16, Revision A.03,
 Gaussian 16:  ES64L-G16RevA.03 25-Dec-2016

 -------------------------------------
 # td=(NStates=1) CAM-B3LYP/6-31G(d,p)
 -------------------------------------

 --
 TD
 --
 Symbolic Z-matrix:
 Charge =  0 Multiplicity = 1

                         Standard orientation:
 ---------------------------------------------------------------------
 Center     Atomic      Atomic             Coordinates (Angstroms)
 Number     Number       Type             X           Y           Z
 ---------------------------------------------------------------------
      1          8           0      -11.764500    0.194263   -1.634607
      2          8           0      -12.989480   -2.276606    1.577623
      3          8           0       10.665377   -1.451937   -1.950783
      4          8           0       14.635549   -0.874492   -0.120983
      5          6           0      -11.104885   -0.144336   -0.392360
      6          6           0      -11.672725   -1.190762   -1.182830
      7          6           0      -11.837550    0.414841    0.774383
      8          6           0      -12.986980   -1.793126   -0.768412
      9          6           0      -13.340706    0.088673    0.942766
     10          6           0      -13.565453   -1.439836    0.554371
     11          6           0      -10.986157   -2.078243   -2.048914
     12          6           0       -9.569474    0.177542   -0.436413
     13          6           0      -11.179307    0.142330    2.137577
     14          6           0      -11.908004    2.022067    0.660818
     15          6           0       -8.755278   -0.718671    0.073983
     16          6           0       -7.254039   -0.608805    0.301293
     17          6           0       -6.467896   -1.799760    0.611127
     18          6           0       -6.604424    0.613085    0.091259
     19          6           0       -5.293579    0.857464   -0.043689
     20          6           0       11.980344    0.275387    1.209309
     21          6           0       11.774944   -0.771982   -1.293770
     22          6           0       12.849994   -0.958979    1.527791
     23          6           0       13.532470   -1.643491    0.390687
     24          6           0       12.652418   -1.955250   -0.757333
     25          6           0       11.126305   -0.016557    0.019871
     26          6           0       11.055115    0.643307    2.486788
     27          6           0       12.918911    1.474037    1.065032
     28          6           0       12.471595    0.200226   -2.068976
     29          6           0       -4.687485    2.088007   -0.274463
     30          6           0        9.914169    0.366918   -0.056472
     31          6           0       -3.385237    2.366865   -0.574563
     32          6           0        8.669026    0.879236   -0.403304
     33          6           0       -2.959076    3.740758   -0.925108
     34          6           0       -2.417602    1.438166   -0.388167
     35          6           0        7.467920    0.102825    0.044352
     36          6           0        7.674187   -1.297729    0.686444
     37          6           0        6.203909    0.635761   -0.076301
     38          6           0       -1.003217    1.761855   -0.418275
     39          6           0        4.903522    0.108188    0.177471
     40          6           0        0.035761    0.793639   -0.288825
     41          6           0        3.778669    0.827633   -0.160425
     42          6           0        1.392859    1.164505   -0.305027
     43          6           0        2.465257    0.283461   -0.117050
     44          6           0        2.380000   -1.064258    0.363337
     45          1           0      -13.029334   -2.850872   -0.887337
     46          1           0      -13.742229   -1.561481   -1.599577
     47          1           0      -13.792236    0.418890    2.024965
     48          1           0      -14.009639    0.597250    0.317520
     49          1           0      -14.656977   -1.454926    0.397368
     50          1           0      -10.651395   -2.950023   -1.426736
     51          1           0      -11.603295   -2.669333   -2.765076
     52          1           0       -9.992034   -1.731791   -2.481337
     53          1           0       -9.467009    1.083678   -0.961676
     54          1           0      -10.071584    0.548171    2.121246
     55          1           0      -11.724858    0.625785    3.020417
     56          1           0      -11.491909   -0.966780    2.221880
     57          1           0      -12.161948    2.283892   -0.356939
     58          1           0      -12.780486    2.347935    0.996535
     59          1           0      -11.000000    2.468835    1.189506
     60          1           0      -12.140879   -2.336153    1.410640
     61          1           0       -9.056385   -1.611042    0.465538
     62          1           0       -5.997928   -2.343192   -0.362119
     63          1           0       -5.439186   -1.807022    1.257944
     64          1           0       -7.036353   -2.545698    1.187529
     65          1           0       -7.157393    1.516138    0.034256
     66          1           0       -4.677936    0.054516   -0.094436
     67          1           0       13.737233   -0.540545    2.083967
     68          1           0       12.240424   -1.762699    2.070198
     69          1           0       13.759106   -2.676377    0.780243
     70          1           0       13.249479   -2.320778   -1.593905
     71          1           0       11.756149   -2.636329   -0.286771
     72          1           0       11.593373    0.683110    3.383583
     73          1           0       10.526647    1.593066    2.445512
     74          1           0       10.400954   -0.204743    2.680361
     75          1           0       13.611378    1.474266    0.177390
     76          1           0       12.312793    2.408408    0.992351
     77          1           0       13.598328    1.270388    1.876882
     78          1           0       12.774468   -0.343758   -2.962940
     79          1           0       11.891135    1.094851   -2.266098
     80          1           0       13.561604    0.414704   -1.708702
     81          1           0       -5.488196    2.940863   -0.291918
     82          1           0       10.095246   -0.783503   -2.066235
     83          1           0       15.132493   -0.696488    0.592832
     84          1           0        8.570861    1.894851   -0.802322
     85          1           0       -2.372879    4.135625   -0.108639
     86          1           0       -2.404068    3.832045   -1.847225
     87          1           0       -3.882695    4.391115   -1.056533
     88          1           0       -2.682999    0.388200   -0.088797
     89          1           0        6.761121   -1.815215    0.874573
     90          1           0        8.344564   -1.945639    0.038074
     91          1           0        8.306355   -1.364779    1.484515
     92          1           0        6.181424    1.600501   -0.381059
     93          1           0       -0.772633    2.692200   -0.607595
     94          1           0        4.727201   -0.959667    0.622483
     95          1           0       -0.239300   -0.288894   -0.185135
     96          1           0        3.832343    1.760878   -0.543226
     97          1           0        1.522692    2.184208   -0.389713
     98          1           0        1.304161   -1.462824    0.389337
     99          1           0        2.937534   -1.670376   -0.143160
    100          1           0        2.809345   -1.043209    1.329690
 ---------------------------------------------------------------------

 SCF Done:  E(RCAM-B3LYP) =  -1857.36255067     A.U. after   15 cycles

 Excitation energies and oscillator strengths:

 Excited State   1:      Singlet-A      2.1173 eV  585.57 nm  f=3.0308  <S**2>=0.000
     163 ->166         0.13700
     164 ->165         0.69648
 This state for optimization and/or second-order correction.
 Total Energy, E(TD-HF/TD-DFT) =  -1857.28473997
 Copying the excited state density for this state as the 1-particle RhoCI density.

 The electronic state is 1-A.
 Alpha  occ. eigenvalues --  -19.22515 -19.21146 -19.20799 -19.20353 -10.32340
 Alpha  occ. eigenvalues --  -10.31392 -10.31326 -10.31228 -10.30864 -10.28686
 Alpha  occ. eigenvalues --  -10.28509 -10.28321 -10.27537 -10.27454 -10.27237
 Alpha  occ. eigenvalues --  -10.27185 -10.27174 -10.27108 -10.27023 -10.26706
 Alpha  occ. eigenvalues --  -10.26662 -10.26606 -10.26483 -10.26279 -10.26166
 Alpha  occ. eigenvalues --  -10.26146 -10.26080 -10.25780 -10.25703 -10.25685
 Alpha  occ. eigenvalues --  -10.25648 -10.25604 -10.25419 -10.25352 -10.25339
 Alpha  occ. eigenvalues --  -10.25112 -10.25048 -10.24866 -10.24793 -10.24573
 Alpha  occ. eigenvalues --  -10.24461 -10.24296 -10.24101 -10.22814  -1.14244
 Alpha  occ. eigenvalues --   -1.12861  -1.11808  -1.10759  -0.93638  -0.93055
 Alpha  occ. eigenvalues --   -0.92611  -0.90896  -0.90013  -0.89761  -0.88177
 Alpha  occ. eigenvalues --   -0.87449  -0.87133  -0.86229  -0.85475  -0.83556
 Alpha  occ. eigenvalues --   -0.82804  -0.81469  -0.81216  -0.79316  -0.77407
 Alpha  occ. eigenvalues --   -0.77007  -0.76830  -0.76513  -0.76185  -0.75956
 Alpha  occ. eigenvalues --   -0.75408  -0.73716  -0.73033  -0.70587  -0.70055
 Alpha  occ. eigenvalues --   -0.68887  -0.67141  -0.66138  -0.65660  -0.65049
 Alpha  occ. eigenvalues --   -0.63574  -0.62147  -0.61298  -0.61018  -0.60599
 Alpha  occ. eigenvalues --   -0.59653  -0.59363  -0.58493  -0.58042  -0.56910
 Alpha  occ. eigenvalues --   -0.56230  -0.55698  -0.55132  -0.55018  -0.54277
 Alpha  occ. eigenvalues --   -0.53934  -0.53735  -0.53485  -0.53372  -0.52790
 Alpha  occ. eigenvalues --   -0.52164  -0.51530  -0.50876  -0.50752  -0.50231
 Alpha  occ. eigenvalues --   -0.49935  -0.49672  -0.49320  -0.49224  -0.48548
 Alpha  occ. eigenvalues --   -0.48256  -0.47714  -0.47521  -0.46935  -0.46824
 Alpha  occ. eigenvalues --   -0.46502  -0.46444  -0.46296  -0.46071  -0.45653
 Alpha  occ. eigenvalues --   -0.45607  -0.45057  -0.44620  -0.44322  -0.44112
 Alpha  occ. eigenvalues --   -0.44058  -0.43203  -0.43074  -0.42878  -0.42459
 Alpha  occ. eigenvalues --   -0.42390  -0.42158  -0.42054  -0.41587  -0.41269
 Alpha  occ. eigenvalues --   -0.41094  -0.40545  -0.40398  -0.40345  -0.40315
 Alpha  occ. eigenvalues --   -0.40163  -0.39875  -0.39524  -0.39026  -0.38780
 Alpha  occ. eigenvalues --   -0.38716  -0.38492  -0.38132  -0.37520  -0.37230
 Alpha  occ. eigenvalues --   -0.36931  -0.35605  -0.35451  -0.34872  -0.34232
 Alpha  occ. eigenvalues --   -0.33753  -0.32892  -0.31904  -0.31431  -0.30826
 Alpha  occ. eigenvalues --   -0.29822  -0.27829  -0.23839  -0.19275
 Alpha virt. eigenvalues --   -0.05997  -0.00810   0.03460   0.06850   0.07434
 Alpha virt. eigenvalues --    0.09665   0.09905   0.10966   0.12243   0.12963
 Alpha virt. eigenvalues --    0.13363   0.13570   0.13651   0.13937   0.14191

 Mulliken charges:
               1
     1  O   -0.521091
     2  O   -0.515800
     3  O   -0.535080
     4  O   -0.526349
     5  C    0.174873
     6  C    0.311509
     7  C    0.015352
     8  C   -0.242362
     9  C   -0.187264
    10  C    0.122153
    11  C   -0.365931
    12  C   -0.098663
    13  C   -0.293906
    14  C   -0.319497
    15  C   -0.041947
    16  C    0.069978
    17  C   -0.384014
    18  C   -0.104174
    19  C   -0.024681
    20  C    0.009780
    21  C    0.238948
    22  C   -0.193796
    23  C    0.149355
    24  C   -0.180634
    25  C   -0.065210
    26  C   -0.315086
    27  C   -0.292993
    28  C   -0.318731
    29  C   -0.144941
    30  C    0.092401
    31  C    0.120939
    32  C   -0.251409
    33  C   -0.386287
    34  C   -0.114209
    35  C    0.105156
    36  C   -0.376094
    37  C   -0.117308
    38  C   -0.090408
    39  C   -0.093440
    40  C   -0.080460
    41  C   -0.092963
    42  C   -0.116996
    43  C    0.104648
    44  C   -0.378680
    45  H    0.119917
    46  H    0.114073
    47  H    0.092213
    48  H    0.101059
    49  H    0.101681
    50  H    0.098691
    51  H    0.117744
    52  H    0.123742
    53  H    0.122123
    54  H    0.102895
    55  H    0.100195
    56  H    0.071039
    57  H    0.116188
    58  H    0.110670
    59  H    0.088612
    60  H    0.291531
    61  H    0.072122
    62  H    0.103287
    63  H    0.103750
    64  H    0.111072
    65  H    0.069805
    66  H    0.064125
    67  H    0.068263
    68  H    0.097898
    69  H    0.089740
    70  H    0.115113
    71  H    0.100079
    72  H    0.102733
    73  H    0.115348
    74  H    0.105356
    75  H    0.110218
    76  H    0.103728
    77  H    0.095110
    78  H    0.116058
    79  H    0.103907
    80  H    0.143626
    81  H    0.069219
    82  H    0.288152
    83  H    0.293226
    84  H    0.115724
    85  H    0.132469
    86  H    0.129534
    87  H    0.100463
    88  H    0.081922
    89  H    0.108502
    90  H    0.118217
    91  H    0.128407
    92  H    0.068217
    93  H    0.070706
    94  H    0.080674
    95  H    0.080741
    96  H    0.075375
    97  H    0.079519
    98  H    0.094867
    99  H    0.136576
   100  H    0.139095
 Sum of Mulliken charges =  -0.00000

 Dipole moment (field-independent basis, Debye):
    X=              4.9525    Y=              0.1970    Z=              1.6908  Tot=              5.2369
 Quadrupole moment (field-independent basis, Debye-Ang):
   XX=           -250.7307   YY=           -259.3922   ZZ=           -279.7926
   XY=             12.6898   XZ=             34.8389   YZ=             -2.9234

 Normal termination of Gaussian 16 at Wed Jul 31 04:51:08 2019.
