 Gaussian 16, Revision A.03,
 Gaussian 16:  ES64L-G16RevA.03 25-Dec-2016

 -------------------------------------
 # td=(NStates=1) CAM-B3LYP/6-31G(d,p)
 -------------------------------------

 --
 TD
 --
 Symbolic Z-matrix:
 Charge =  0 Multiplicity = 1

                         Standard orientation:
 ---------------------------------------------------------------------
 Center     Atomic      Atomic             Coordinates (Angstroms)
 Number     Number       Type             X           Y           Z
 ---------------------------------------------------------------------
      1          8           0      -11.916273    0.532656   -1.213113
      2          8           0      -12.830330   -2.641253    1.280582
      3          8           0       10.701737   -1.066741   -2.049342
      4          8           0       14.611301   -0.905285    0.195275
      5          6           0      -11.121320   -0.051458   -0.190157
      6          6           0      -11.758297   -0.969880   -1.327245
      7          6           0      -11.724735    0.254072    1.157469
      8          6           0      -13.087950   -1.553561   -0.912525
      9          6           0      -13.280936   -0.160446    1.180851
     10          6           0      -13.466562   -1.567380    0.539497
     11          6           0      -10.921183   -1.439224   -2.549487
     12          6           0       -9.627597    0.196885   -0.387606
     13          6           0      -11.001599   -0.380592    2.362983
     14          6           0      -11.570666    1.822215    1.420135
     15          6           0       -8.706676   -0.693463    0.064922
     16          6           0       -7.196752   -0.563329    0.032835
     17          6           0       -6.492749   -1.835481    0.180021
     18          6           0       -6.618191    0.604886   -0.114294
     19          6           0       -5.254335    0.887124   -0.205876
     20          6           0       11.775370    0.106630    1.479848
     21          6           0       11.643667   -0.638472   -1.193078
     22          6           0       12.674308   -1.182847    1.646621
     23          6           0       13.440834   -1.673461    0.464142
     24          6           0       12.560733   -1.888287   -0.809723
     25          6           0       11.128113   -0.036057    0.121108
     26          6           0       10.703137    0.363620    2.595079
     27          6           0       12.721533    1.391539    1.513781
     28          6           0       12.563948    0.447885   -1.895996
     29          6           0       -4.722100    2.174204   -0.108627
     30          6           0        9.920185    0.500978   -0.038926
     31          6           0       -3.335735    2.465109   -0.323869
     32          6           0        8.668466    0.878272   -0.355597
     33          6           0       -3.055411    3.880294   -0.726884
     34          6           0       -2.331205    1.514954   -0.282765
     35          6           0        7.506566   -0.048069   -0.243233
     36          6           0        7.781606   -1.430330    0.155385
     37          6           0        6.290849    0.624483   -0.354992
     38          6           0       -0.942616    1.794184   -0.458336
     39          6           0        4.895048    0.024815   -0.093343
     40          6           0        0.095007    0.776815   -0.324928
     41          6           0        3.781437    0.726639   -0.349545
     42          6           0        1.429120    1.158275   -0.417861
     43          6           0        2.417293    0.254814   -0.289540
     44          6           0        2.271022   -1.274781   -0.094414
     45          1           0      -12.910258   -2.626239   -1.025420
     46          1           0      -13.943142   -1.434599   -1.551711
     47          1           0      -13.825373   -0.046963    2.225186
     48          1           0      -13.978166    0.617116    0.489912
     49          1           0      -14.617756   -1.557534    0.563713
     50          1           0      -10.763029   -2.638428   -2.499354
     51          1           0      -11.542522   -1.424333   -3.531250
     52          1           0      -10.168777   -0.750756   -2.596712
     53          1           0       -9.353516    1.071248   -0.910771
     54          1           0      -10.028423    0.038820    2.402730
     55          1           0      -11.548318   -0.048771    3.379625
     56          1           0      -11.174560   -1.423182    2.401218
     57          1           0      -12.011489    2.416285    0.511727
     58          1           0      -11.935520    2.276430    2.341404
     59          1           0      -10.555392    2.098105    1.722035
     60          1           0      -11.815197   -2.449324    0.921024
     61          1           0       -8.854285   -1.804800    0.411939
     62          1           0       -5.969463   -2.035386   -0.776459
     63          1           0       -5.642372   -1.820127    1.004538
     64          1           0       -6.985980   -2.814949    0.261965
     65          1           0       -7.298176    1.589740   -0.154404
     66          1           0       -4.437682   -0.016961   -0.072763
     67          1           0       13.402501   -1.093872    2.484437
     68          1           0       12.035092   -1.883962    1.798559
     69          1           0       13.846112   -2.812483    0.615453
     70          1           0       13.100375   -2.056541   -1.674833
     71          1           0       11.901494   -2.596499   -0.355834
     72          1           0       11.369141    0.471447    3.529260
     73          1           0       10.455787    1.358607    2.422644
     74          1           0        9.880657   -0.384016    2.557834
     75          1           0       13.611090    1.345947    0.766079
     76          1           0       11.966709    2.290944    1.261290
     77          1           0       13.170015    1.665646    2.531341
     78          1           0       13.089701    0.108349   -2.753286
     79          1           0       11.790220    1.217438   -2.202575
     80          1           0       13.422466    0.869225   -1.394930
     81          1           0       -5.392552    3.050638   -0.395690
     82          1           0       10.025140   -0.460688   -2.409706
     83          1           0       15.197580   -0.754852    0.875800
     84          1           0        8.677401    1.968198   -0.480036
     85          1           0       -2.471982    4.348575    0.136456
     86          1           0       -2.369534    3.942690   -1.605199
     87          1           0       -3.921809    4.580970   -0.969352
     88          1           0       -2.583559    0.422297    0.194670
     89          1           0        6.771114   -2.088124   -0.086296
     90          1           0        8.536690   -1.722491   -0.409873
     91          1           0        8.326433   -1.376913    1.200995
     92          1           0        6.503915    1.813927   -0.635913
     93          1           0       -0.407092    2.599651   -0.646117
     94          1           0        4.853725   -0.876783    0.425431
     95          1           0       -0.253693   -0.306752    0.101171
     96          1           0        3.919790    1.701130   -0.783416
     97          1           0        1.674100    2.120222   -0.559091
     98          1           0        1.206587   -1.540311   -0.327656
     99          1           0        2.832385   -1.939065   -0.685507
    100          1           0        2.352151   -1.322401    1.053528
 ---------------------------------------------------------------------

 SCF Done:  E(RCAM-B3LYP) =  -1857.29203974     A.U. after   15 cycles

 Excitation energies and oscillator strengths:

 Excited State   1:      Singlet-A      2.3724 eV  522.60 nm  f=2.6972  <S**2>=0.000
     163 ->166         0.12651
     164 ->165         0.69297
 This state for optimization and/or second-order correction.
 Total Energy, E(TD-HF/TD-DFT) =  -1857.20485429
 Copying the excited state density for this state as the 1-particle RhoCI density.

 The electronic state is 1-A.
 Alpha  occ. eigenvalues --  -19.23098 -19.21722 -19.21686 -19.20544 -10.33554
 Alpha  occ. eigenvalues --  -10.32805 -10.32384 -10.32192 -10.31232 -10.28811
 Alpha  occ. eigenvalues --  -10.28190 -10.28133 -10.27933 -10.27898 -10.27818
 Alpha  occ. eigenvalues --  -10.27738 -10.27675 -10.27549 -10.27485 -10.27323
 Alpha  occ. eigenvalues --  -10.27220 -10.27210 -10.27101 -10.26948 -10.26807
 Alpha  occ. eigenvalues --  -10.26762 -10.26690 -10.26584 -10.26401 -10.26386
 Alpha  occ. eigenvalues --  -10.26357 -10.26323 -10.26301 -10.26262 -10.26194
 Alpha  occ. eigenvalues --  -10.25534 -10.25491 -10.25469 -10.25043 -10.24968
 Alpha  occ. eigenvalues --  -10.24784 -10.24615 -10.24403 -10.23418  -1.12923
 Alpha  occ. eigenvalues --   -1.11936  -1.09992  -1.07856  -0.92772  -0.92462
 Alpha  occ. eigenvalues --   -0.92080  -0.90623  -0.90133  -0.89064  -0.86892
 Alpha  occ. eigenvalues --   -0.86651  -0.85806  -0.84974  -0.84437  -0.83005
 Alpha  occ. eigenvalues --   -0.81768  -0.80817  -0.80237  -0.78382  -0.77077
 Alpha  occ. eigenvalues --   -0.76555  -0.76547  -0.75950  -0.75570  -0.74964
 Alpha  occ. eigenvalues --   -0.74255  -0.73812  -0.73107  -0.70277  -0.69814
 Alpha  occ. eigenvalues --   -0.68292  -0.66462  -0.66068  -0.64996  -0.63735
 Alpha  occ. eigenvalues --   -0.63281  -0.62361  -0.61084  -0.59933  -0.59126
 Alpha  occ. eigenvalues --   -0.58826  -0.57766  -0.57218  -0.56952  -0.56252
 Alpha  occ. eigenvalues --   -0.55496  -0.54745  -0.54100  -0.53972  -0.53648
 Alpha  occ. eigenvalues --   -0.53428  -0.53279  -0.52785  -0.52433  -0.51786
 Alpha  occ. eigenvalues --   -0.51400  -0.50823  -0.50561  -0.50395  -0.50007
 Alpha  occ. eigenvalues --   -0.49447  -0.49280  -0.48748  -0.48641  -0.48423
 Alpha  occ. eigenvalues --   -0.48089  -0.47922  -0.47838  -0.47003  -0.46397
 Alpha  occ. eigenvalues --   -0.46246  -0.45744  -0.45240  -0.45135  -0.44968
 Alpha  occ. eigenvalues --   -0.44279  -0.44148  -0.43990  -0.43855  -0.43589
 Alpha  occ. eigenvalues --   -0.43438  -0.43260  -0.43147  -0.43054  -0.42597
 Alpha  occ. eigenvalues --   -0.42519  -0.42458  -0.41497  -0.41467  -0.41112
 Alpha  occ. eigenvalues --   -0.40833  -0.40548  -0.40206  -0.39907  -0.39529
 Alpha  occ. eigenvalues --   -0.39372  -0.39162  -0.39084  -0.38704  -0.38426
 Alpha  occ. eigenvalues --   -0.38150  -0.37895  -0.37149  -0.36818  -0.35912
 Alpha  occ. eigenvalues --   -0.35653  -0.35508  -0.35281  -0.34534  -0.33708
 Alpha  occ. eigenvalues --   -0.32990  -0.32172  -0.31797  -0.31511  -0.30644
 Alpha  occ. eigenvalues --   -0.28707  -0.27551  -0.24805  -0.20185
 Alpha virt. eigenvalues --   -0.05300  -0.00212   0.03290   0.06315   0.06915
 Alpha virt. eigenvalues --    0.09029   0.09628   0.10310   0.10618   0.11456
 Alpha virt. eigenvalues --    0.12161   0.12814   0.13143   0.13233   0.13740

 Mulliken charges:
               1
     1  O   -0.517262
     2  O   -0.534741
     3  O   -0.559739
     4  O   -0.552751
     5  C    0.212097
     6  C    0.206557
     7  C    0.024622
     8  C   -0.208345
     9  C   -0.166528
    10  C    0.133511
    11  C   -0.310664
    12  C   -0.136889
    13  C   -0.309057
    14  C   -0.324240
    15  C   -0.065992
    16  C    0.114215
    17  C   -0.403662
    18  C   -0.114069
    19  C   -0.062019
    20  C   -0.010549
    21  C    0.274233
    22  C   -0.168032
    23  C    0.158186
    24  C   -0.168685
    25  C   -0.025530
    26  C   -0.292416
    27  C   -0.305622
    28  C   -0.310236
    29  C   -0.135209
    30  C    0.055672
    31  C    0.110686
    32  C   -0.270327
    33  C   -0.378599
    34  C   -0.126071
    35  C    0.116336
    36  C   -0.356259
    37  C   -0.126276
    38  C   -0.072088
    39  C   -0.115029
    40  C   -0.105981
    41  C   -0.094031
    42  C   -0.096810
    43  C    0.085883
    44  C   -0.366297
    45  H    0.107055
    46  H    0.121941
    47  H    0.090353
    48  H    0.077741
    49  H    0.097116
    50  H    0.101120
    51  H    0.115629
    52  H    0.137889
    53  H    0.116953
    54  H    0.119111
    55  H    0.083482
    56  H    0.105387
    57  H    0.111935
    58  H    0.105557
    59  H    0.096948
    60  H    0.303699
    61  H    0.072914
    62  H    0.130866
    63  H    0.112918
    64  H    0.118219
    65  H    0.079700
    66  H    0.075049
    67  H    0.079842
    68  H    0.102940
    69  H    0.055166
    70  H    0.116234
    71  H    0.108838
    72  H    0.091905
    73  H    0.125588
    74  H    0.108183
    75  H    0.116948
    76  H    0.081336
    77  H    0.088801
    78  H    0.103353
    79  H    0.074390
    80  H    0.123749
    81  H    0.083719
    82  H    0.318031
    83  H    0.297748
    84  H    0.113285
    85  H    0.120791
    86  H    0.124630
    87  H    0.108268
    88  H    0.077692
    89  H    0.096842
    90  H    0.144896
    91  H    0.112292
    92  H    0.073595
    93  H    0.071550
    94  H    0.093369
    95  H    0.077348
    96  H    0.079602
    97  H    0.083792
    98  H    0.105206
    99  H    0.132323
   100  H    0.124174
 Sum of Mulliken charges =  -0.00000

 Dipole moment (field-independent basis, Debye):
    X=              2.5800    Y=             -0.0254    Z=              0.5602  Tot=              2.6402
 Quadrupole moment (field-independent basis, Debye-Ang):
   XX=           -288.5669   YY=           -263.4252   ZZ=           -273.5327
   XY=              3.1877   XZ=             36.8216   YZ=              1.4336

 Normal termination of Gaussian 16 at Wed Jul 31 22:54:40 2019.
