 Gaussian 16, Revision A.03,
 Gaussian 16:  ES64L-G16RevA.03 25-Dec-2016

 -------------------------------------
 # td=(NStates=1) CAM-B3LYP/6-31G(d,p)
 -------------------------------------

 --
 TD
 --
 Symbolic Z-matrix:
 Charge =  0 Multiplicity = 1

                         Standard orientation:
 ---------------------------------------------------------------------
 Center     Atomic      Atomic             Coordinates (Angstroms)
 Number     Number       Type             X           Y           Z
 ---------------------------------------------------------------------
      1          8           0      -11.765505    0.350752   -1.446061
      2          8           0      -13.037027   -2.671134    1.187497
      3          8           0       10.597702   -0.912688   -2.268918
      4          8           0       14.346035   -1.116304   -0.129663
      5          6           0      -11.079867   -0.171251   -0.290386
      6          6           0      -11.750685   -1.100752   -1.335250
      7          6           0      -11.660103    0.168959    1.012575
      8          6           0      -13.160225   -1.582084   -1.050648
      9          6           0      -13.183522   -0.209424    1.045000
     10          6           0      -13.508277   -1.532401    0.401152
     11          6           0      -10.855476   -1.777206   -2.360915
     12          6           0       -9.657676   -0.050437   -0.296309
     13          6           0      -10.983176   -0.403111    2.207736
     14          6           0      -11.458757    1.778670    1.210981
     15          6           0       -8.548195   -0.816520    0.043365
     16          6           0       -7.169304   -0.559008    0.156334
     17          6           0       -6.339883   -1.631849    0.344462
     18          6           0       -6.537252    0.703434   -0.120327
     19          6           0       -5.196502    1.009164   -0.116652
     20          6           0       11.815168   -0.098353    1.425895
     21          6           0       11.600328   -0.565632   -1.265133
     22          6           0       12.564656   -1.528558    1.462513
     23          6           0       13.281172   -1.973283    0.183394
     24          6           0       12.287177   -1.908809   -1.048711
     25          6           0       11.100178    0.053576    0.079653
     26          6           0       10.846958   -0.048258    2.642128
     27          6           0       12.975940    1.027568    1.544631
     28          6           0       12.576110    0.451494   -1.949051
     29          6           0       -4.718229    2.304146   -0.266851
     30          6           0        9.920092    0.527199   -0.033692
     31          6           0       -3.340359    2.602751   -0.296545
     32          6           0        8.628886    1.050008   -0.093601
     33          6           0       -3.048907    4.019980   -0.732863
     34          6           0       -2.270276    1.707336   -0.035536
     35          6           0        7.409108    0.192579   -0.103538
     36          6           0        7.576946   -1.319477   -0.025407
     37          6           0        6.248430    0.965542   -0.103218
     38          6           0       -0.894172    1.918637   -0.303394
     39          6           0        5.018400    0.405539   -0.055748
     40          6           0        0.049054    1.014536   -0.125561
     41          6           0        3.824364    0.992918   -0.007837
     42          6           0        1.443353    1.247468   -0.066515
     43          6           0        2.570639    0.433186    0.037949
     44          6           0        2.316814   -0.975155    0.200771
     45          1           0      -13.127464   -2.639718   -1.360750
     46          1           0      -13.993547   -1.046213   -1.521282
     47          1           0      -13.483986   -0.046700    2.402916
     48          1           0      -13.833881    0.535280    0.440818
     49          1           0      -14.672345   -1.639637    0.545792
     50          1           0      -10.317598   -2.663238   -2.009802
     51          1           0      -11.408116   -2.148874   -3.368923
     52          1           0      -10.190951   -1.085190   -2.814924
     53          1           0       -9.349405    0.976866   -0.728536
     54          1           0      -10.072407   -0.004403    2.182532
     55          1           0      -11.429319   -0.202159    3.315586
     56          1           0      -10.925783   -1.565022    1.965358
     57          1           0      -11.793328    2.544692    0.443430
     58          1           0      -11.971250    2.074537    2.161344
     59          1           0      -10.322322    1.686312    1.042169
     60          1           0      -12.179403   -2.818537    0.912447
     61          1           0       -8.941636   -1.798031    0.562519
     62          1           0       -5.555648   -1.924800   -0.419296
     63          1           0       -5.704897   -1.483594    1.248851
     64          1           0       -6.752929   -2.624880    0.733582
     65          1           0       -7.373606    1.453655   -0.418049
     66          1           0       -4.540652    0.124287   -0.023595
     67          1           0       12.990410   -1.468323    2.429136
     68          1           0       11.700465   -2.319049    1.799357
     69          1           0       13.472894   -3.083313    0.156532
     70          1           0       12.666967   -2.281950   -1.965694
     71          1           0       11.450436   -2.657182   -0.657451
     72          1           0       11.357712   -0.302121    3.449686
     73          1           0       10.247915    0.857703    2.554284
     74          1           0       10.154609   -0.895437    2.178878
     75          1           0       13.814433    0.987213    0.839982
     76          1           0       12.460226    1.863716    1.327987
     77          1           0       13.438844    0.991586    2.598730
     78          1           0       12.926291    0.060168   -2.986021
     79          1           0       11.867966    1.318817   -2.206183
     80          1           0       13.442319    0.677015   -1.046327
     81          1           0       -5.357486    2.990010   -0.435269
     82          1           0       10.306417   -0.096730   -2.425491
     83          1           0       15.100402   -1.061480    0.519872
     84          1           0        8.391484    2.113529    0.058494
     85          1           0       -2.371934    4.367982   -0.018201
     86          1           0       -2.672871    4.158442   -1.763703
     87          1           0       -3.901315    4.735096   -0.722198
     88          1           0       -2.379768    0.679016    0.432313
     89          1           0        6.488007   -1.829890   -0.099570
     90          1           0        8.511630   -1.599404   -0.654044
     91          1           0        7.853662   -1.417009    1.058070
     92          1           0        6.243433    2.096395    0.145376
     93          1           0       -0.580888    2.920687   -0.595418
     94          1           0        4.927768   -0.723482    0.027016
     95          1           0       -0.165104   -0.017092    0.131606
     96          1           0        3.898746    2.037264   -0.173135
     97          1           0        1.680911    2.223340   -0.283250
     98          1           0        1.267671   -1.156762    0.070080
     99          1           0        2.916796   -1.569878   -0.555207
    100          1           0        2.504186   -1.447251    1.285633
 ---------------------------------------------------------------------

 SCF Done:  E(RCAM-B3LYP) =  -1857.28414246     A.U. after   16 cycles

 Excitation energies and oscillator strengths:

 Excited State   1:      Singlet-A      1.9948 eV  621.53 nm  f=3.0646  <S**2>=0.000
     163 ->166         0.14196
     164 ->165         0.69313
 This state for optimization and/or second-order correction.
 Total Energy, E(TD-HF/TD-DFT) =  -1857.21083451
 Copying the excited state density for this state as the 1-particle RhoCI density.

 The electronic state is 1-A.
 Alpha  occ. eigenvalues --  -19.23041 -19.22415 -19.21193 -19.20302 -10.32950
 Alpha  occ. eigenvalues --  -10.32823 -10.32426 -10.32284 -10.31029 -10.29607
 Alpha  occ. eigenvalues --  -10.28705 -10.28277 -10.27922 -10.27796 -10.27767
 Alpha  occ. eigenvalues --  -10.27653 -10.27493 -10.27398 -10.27295 -10.27139
 Alpha  occ. eigenvalues --  -10.27119 -10.27019 -10.26951 -10.26843 -10.26780
 Alpha  occ. eigenvalues --  -10.26596 -10.26509 -10.26492 -10.26360 -10.26273
 Alpha  occ. eigenvalues --  -10.26027 -10.25895 -10.25889 -10.25750 -10.25617
 Alpha  occ. eigenvalues --  -10.25506 -10.25503 -10.25426 -10.25298 -10.25132
 Alpha  occ. eigenvalues --  -10.25111 -10.25043 -10.24810 -10.24357  -1.14547
 Alpha  occ. eigenvalues --   -1.11793  -1.10704  -1.09295  -0.93181  -0.92937
 Alpha  occ. eigenvalues --   -0.92775  -0.91747  -0.91069  -0.90302  -0.88172
 Alpha  occ. eigenvalues --   -0.87591  -0.86042  -0.85854  -0.84763  -0.83686
 Alpha  occ. eigenvalues --   -0.82958  -0.81039  -0.79817  -0.78462  -0.77244
 Alpha  occ. eigenvalues --   -0.76806  -0.76496  -0.76271  -0.76068  -0.75725
 Alpha  occ. eigenvalues --   -0.75157  -0.74356  -0.73118  -0.70550  -0.70214
 Alpha  occ. eigenvalues --   -0.68640  -0.67291  -0.65239  -0.64682  -0.64175
 Alpha  occ. eigenvalues --   -0.63771  -0.62308  -0.61457  -0.60492  -0.59812
 Alpha  occ. eigenvalues --   -0.59422  -0.58481  -0.58019  -0.57881  -0.56318
 Alpha  occ. eigenvalues --   -0.55602  -0.55365  -0.55215  -0.55037  -0.54635
 Alpha  occ. eigenvalues --   -0.53958  -0.53191  -0.52858  -0.52223  -0.51893
 Alpha  occ. eigenvalues --   -0.51581  -0.51261  -0.50847  -0.49767  -0.49563
 Alpha  occ. eigenvalues --   -0.49526  -0.49082  -0.48926  -0.48638  -0.48203
 Alpha  occ. eigenvalues --   -0.48137  -0.48005  -0.47893  -0.47619  -0.47400
 Alpha  occ. eigenvalues --   -0.46901  -0.46725  -0.46604  -0.46106  -0.45583
 Alpha  occ. eigenvalues --   -0.45240  -0.44942  -0.44562  -0.44286  -0.43625
 Alpha  occ. eigenvalues --   -0.43581  -0.43202  -0.42954  -0.42745  -0.42406
 Alpha  occ. eigenvalues --   -0.42349  -0.41864  -0.41607  -0.41304  -0.40999
 Alpha  occ. eigenvalues --   -0.40852  -0.40338  -0.40023  -0.39722  -0.39694
 Alpha  occ. eigenvalues --   -0.39611  -0.39433  -0.39043  -0.38768  -0.38592
 Alpha  occ. eigenvalues --   -0.38376  -0.38216  -0.37644  -0.37333  -0.36590
 Alpha  occ. eigenvalues --   -0.36541  -0.35722  -0.34856  -0.34115  -0.33976
 Alpha  occ. eigenvalues --   -0.33795  -0.32890  -0.32707  -0.31667  -0.30499
 Alpha  occ. eigenvalues --   -0.30090  -0.27711  -0.23471  -0.19263
 Alpha virt. eigenvalues --   -0.06508  -0.01772   0.02884   0.05973   0.07312
 Alpha virt. eigenvalues --    0.09217   0.09829   0.10206   0.10622   0.11186
 Alpha virt. eigenvalues --    0.11727   0.12107   0.13000   0.13241   0.13586

 Mulliken charges:
               1
     1  O   -0.505456
     2  O   -0.540111
     3  O   -0.523548
     4  O   -0.544410
     5  C    0.243818
     6  C    0.223103
     7  C   -0.005995
     8  C   -0.202557
     9  C   -0.137337
    10  C    0.129949
    11  C   -0.345499
    12  C   -0.149046
    13  C   -0.257215
    14  C   -0.302493
    15  C   -0.098191
    16  C    0.140905
    17  C   -0.420350
    18  C   -0.112544
    19  C   -0.063016
    20  C   -0.017929
    21  C    0.196655
    22  C   -0.193033
    23  C    0.166657
    24  C   -0.166820
    25  C   -0.093033
    26  C   -0.288452
    27  C   -0.302999
    28  C   -0.280517
    29  C   -0.067175
    30  C    0.149021
    31  C    0.067503
    32  C   -0.257518
    33  C   -0.383826
    34  C   -0.127892
    35  C    0.111849
    36  C   -0.374451
    37  C   -0.112663
    38  C   -0.069327
    39  C   -0.070579
    40  C   -0.069431
    41  C   -0.119846
    42  C   -0.144410
    43  C    0.157016
    44  C   -0.381043
    45  H    0.112129
    46  H    0.132979
    47  H    0.041049
    48  H    0.094275
    49  H    0.090457
    50  H    0.118811
    51  H    0.089482
    52  H    0.144934
    53  H    0.097494
    54  H    0.121999
    55  H    0.097811
    56  H    0.062861
    57  H    0.108240
    58  H    0.105289
    59  H    0.094837
    60  H    0.289121
    61  H    0.061266
    62  H    0.126306
    63  H    0.120727
    64  H    0.100978
    65  H    0.070511
    66  H    0.091185
    67  H    0.096980
    68  H    0.065632
    69  H    0.088127
    70  H    0.121155
    71  H    0.088506
    72  H    0.109929
    73  H    0.121523
    74  H    0.099506
    75  H    0.110627
    76  H    0.117512
    77  H    0.081765
    78  H    0.105201
    79  H    0.074632
    80  H    0.116799
    81  H    0.068564
    82  H    0.288087
    83  H    0.313974
    84  H    0.111074
    85  H    0.131662
    86  H    0.125087
    87  H    0.107066
    88  H    0.083363
    89  H    0.106665
    90  H    0.150825
    91  H    0.134582
    92  H    0.084134
    93  H    0.083892
    94  H    0.060828
    95  H    0.070206
    96  H    0.066023
    97  H    0.060261
    98  H    0.111938
    99  H    0.112432
   100  H    0.100938
 Sum of Mulliken charges =  -0.00000

 Dipole moment (field-independent basis, Debye):
    X=              6.1439    Y=             -0.1371    Z=              1.5711  Tot=              6.3431
 Quadrupole moment (field-independent basis, Debye-Ang):
   XX=           -257.4572   YY=           -262.4733   ZZ=           -276.7638
   XY=             -6.5867   XZ=             41.6092   YZ=             -0.5329

 Normal termination of Gaussian 16 at Sun Jul 28 23:23:13 2019.
