 Gaussian 16, Revision A.03,
 Gaussian 16:  ES64L-G16RevA.03 25-Dec-2016

 -------------------------------------
 # td=(NStates=1) CAM-B3LYP/6-31G(d,p)
 -------------------------------------

 --
 TD
 --
 Symbolic Z-matrix:
 Charge =  0 Multiplicity = 1

                         Standard orientation:
 ---------------------------------------------------------------------
 Center     Atomic      Atomic             Coordinates (Angstroms)
 Number     Number       Type             X           Y           Z
 ---------------------------------------------------------------------
      1          8           0      -11.865927    0.174409   -1.464774
      2          8           0      -13.062457   -2.285201    1.616225
      3          8           0       10.590518   -1.220987   -1.952307
      4          8           0       14.564655   -0.983918   -0.193455
      5          6           0      -11.167332   -0.082583   -0.275671
      6          6           0      -11.768808   -1.162262   -1.033146
      7          6           0      -11.809088    0.507678    1.065235
      8          6           0      -13.139359   -1.818892   -0.693888
      9          6           0      -13.287608   -0.007238    0.982700
     10          6           0      -13.572190   -1.395869    0.644104
     11          6           0      -10.857954   -1.971774   -2.053225
     12          6           0       -9.694615    0.132207   -0.408559
     13          6           0      -10.992547   -0.028807    2.214712
     14          6           0      -11.773801    1.974708    0.890989
     15          6           0       -8.688634   -0.661310    0.075102
     16          6           0       -7.279100   -0.600673   -0.018894
     17          6           0       -6.475646   -1.732633    0.384947
     18          6           0       -6.700414    0.646908   -0.225567
     19          6           0       -5.326881    0.774939   -0.269073
     20          6           0       12.004098    0.328796    1.327162
     21          6           0       11.664209   -0.755131   -1.153656
     22          6           0       12.890139   -0.986372    1.585985
     23          6           0       13.448666   -1.734375    0.375126
     24          6           0       12.435596   -2.009381   -0.716320
     25          6           0       11.092840    0.036418    0.074305
     26          6           0       11.107597    0.460701    2.575864
     27          6           0       12.877189    1.462600    1.162968
     28          6           0       12.416319    0.235790   -2.067231
     29          6           0       -4.690108    2.090536   -0.559025
     30          6           0        9.847318    0.476241    0.054752
     31          6           0       -3.388361    2.454176   -0.577214
     32          6           0        8.631029    0.936220   -0.036091
     33          6           0       -2.984160    3.865516   -0.848734
     34          6           0       -2.304314    1.491155   -0.341879
     35          6           0        7.506201    0.113156    0.188286
     36          6           0        7.620624   -1.400557    0.225373
     37          6           0        6.308209    0.744576    0.021131
     38          6           0       -0.885279    1.702282   -0.413171
     39          6           0        5.038413    0.188964    0.040568
     40          6           0        0.129571    0.747044   -0.353764
     41          6           0        3.844801    0.788022   -0.103026
     42          6           0        1.412875    1.113195   -0.277122
     43          6           0        2.563507    0.240609   -0.162008
     44          6           0        2.312808   -1.261960   -0.009575
     45          1           0      -12.889298   -2.912988   -0.782723
     46          1           0      -13.880851   -1.677826   -1.382140
     47          1           0      -13.730026    0.344602    1.985696
     48          1           0      -13.804815    0.582880    0.266163
     49          1           0      -14.681901   -1.619902    0.822859
     50          1           0      -10.239620   -2.645429   -1.498560
     51          1           0      -11.490906   -2.527850   -2.633079
     52          1           0      -10.180898   -1.046019   -2.624199
     53          1           0       -9.368615    1.054194   -1.046749
     54          1           0      -10.022899    0.590573    2.121030
     55          1           0      -11.455284    0.168875    3.161792
     56          1           0      -10.559821   -1.114136    2.198449
     57          1           0      -12.154530    2.271301   -0.113849
     58          1           0      -12.196877    2.602988    1.524363
     59          1           0      -10.735281    2.548590    0.842443
     60          1           0      -12.089033   -2.484133    1.299906
     61          1           0       -8.924782   -1.461015    0.400767
     62          1           0       -5.884669   -1.986496   -0.400365
     63          1           0       -5.915904   -1.569333    1.288804
     64          1           0       -7.043467   -2.758511    0.624301
     65          1           0       -7.218805    1.674401   -0.476308
     66          1           0       -4.744088   -0.112769   -0.208939
     67          1           0       13.791832   -0.596180    2.080442
     68          1           0       12.276314   -1.649780    2.252293
     69          1           0       14.066572   -2.677694    0.872246
     70          1           0       12.792611   -2.592216   -1.557586
     71          1           0       11.511070   -2.517509   -0.461818
     72          1           0       11.712131    0.492156    3.374572
     73          1           0       10.388652    1.364286    2.793609
     74          1           0       10.677227   -0.468352    2.797329
     75          1           0       13.751838    1.102501    0.286460
     76          1           0       12.384029    2.317934    0.611171
     77          1           0       13.206568    1.858977    2.167315
     78          1           0       12.689563   -0.100786   -2.997224
     79          1           0       11.813324    1.072195   -2.316817
     80          1           0       13.545863    0.477773   -1.711457
     81          1           0       -5.522920    2.919316   -0.722575
     82          1           0        9.870571   -0.462033   -1.847812
     83          1           0       15.157264   -0.891897    0.660543
     84          1           0        8.665454    2.039223   -0.280108
     85          1           0       -2.563765    4.197057    0.181679
     86          1           0       -2.263631    4.165434   -1.810910
     87          1           0       -4.058874    4.154697   -1.078204
     88          1           0       -2.819402    0.421224   -0.193015
     89          1           0        6.759840   -1.938299   -0.159996
     90          1           0        8.505305   -1.797279   -0.281957
     91          1           0        7.709168   -1.752125    1.310207
     92          1           0        6.220247    1.857792   -0.172704
     93          1           0       -0.296855    2.591110   -0.733466
     94          1           0        5.077407   -0.969312    0.207405
     95          1           0       -0.090329   -0.395842   -0.149250
     96          1           0        3.773847    1.899987    0.026066
     97          1           0        1.802145    2.148357   -0.230455
     98          1           0        1.252348   -1.421050    0.082006
     99          1           0        2.384650   -1.895393   -0.987435
    100          1           0        3.033142   -1.766408    0.819481
 ---------------------------------------------------------------------

 SCF Done:  E(RCAM-B3LYP) =  -1857.26814382     A.U. after   17 cycles

 Excitation energies and oscillator strengths:

 Excited State   1:      Singlet-A      1.6564 eV  748.53 nm  f=2.9371  <S**2>=0.000
     163 ->166        -0.10898
     164 ->165         0.71447
     164 <-165        -0.16139
 This state for optimization and/or second-order correction.
 Total Energy, E(TD-HF/TD-DFT) =  -1857.20727315
 Copying the excited state density for this state as the 1-particle RhoCI density.

 The electronic state is 1-A.
 Alpha  occ. eigenvalues --  -19.22665 -19.22287 -19.21068 -19.20886 -10.33026
 Alpha  occ. eigenvalues --  -10.32225 -10.32019 -10.31930 -10.30119 -10.28286
 Alpha  occ. eigenvalues --  -10.28225 -10.28133 -10.28092 -10.28089 -10.28018
 Alpha  occ. eigenvalues --  -10.27731 -10.27695 -10.27671 -10.27540 -10.27401
 Alpha  occ. eigenvalues --  -10.27201 -10.27172 -10.27157 -10.27097 -10.27089
 Alpha  occ. eigenvalues --  -10.26921 -10.26633 -10.26620 -10.26617 -10.26486
 Alpha  occ. eigenvalues --  -10.26353 -10.26266 -10.26233 -10.26172 -10.26136
 Alpha  occ. eigenvalues --  -10.25818 -10.25788 -10.25537 -10.25344 -10.24689
 Alpha  occ. eigenvalues --  -10.24354 -10.24275 -10.23961 -10.22820  -1.17487
 Alpha  occ. eigenvalues --   -1.09047  -1.08735  -1.08529  -0.93229  -0.93190
 Alpha  occ. eigenvalues --   -0.92308  -0.91616  -0.91127  -0.90566  -0.88164
 Alpha  occ. eigenvalues --   -0.87117  -0.85861  -0.85745  -0.85132  -0.82834
 Alpha  occ. eigenvalues --   -0.82253  -0.80884  -0.80276  -0.78043  -0.77357
 Alpha  occ. eigenvalues --   -0.77102  -0.77051  -0.76888  -0.76440  -0.76187
 Alpha  occ. eigenvalues --   -0.76089  -0.74919  -0.72883  -0.70569  -0.69435
 Alpha  occ. eigenvalues --   -0.68195  -0.67346  -0.66190  -0.64888  -0.63945
 Alpha  occ. eigenvalues --   -0.63653  -0.61556  -0.60517  -0.59965  -0.59796
 Alpha  occ. eigenvalues --   -0.59349  -0.58225  -0.57831  -0.57557  -0.56491
 Alpha  occ. eigenvalues --   -0.55849  -0.54994  -0.54913  -0.54326  -0.54201
 Alpha  occ. eigenvalues --   -0.53926  -0.53697  -0.52928  -0.52593  -0.51881
 Alpha  occ. eigenvalues --   -0.51399  -0.51131  -0.51009  -0.50615  -0.49872
 Alpha  occ. eigenvalues --   -0.49275  -0.49061  -0.48966  -0.48264  -0.48180
 Alpha  occ. eigenvalues --   -0.47960  -0.47796  -0.47519  -0.47402  -0.46742
 Alpha  occ. eigenvalues --   -0.46546  -0.46493  -0.46272  -0.45809  -0.45508
 Alpha  occ. eigenvalues --   -0.44953  -0.44609  -0.44197  -0.44087  -0.43757
 Alpha  occ. eigenvalues --   -0.43719  -0.43461  -0.43204  -0.43051  -0.42778
 Alpha  occ. eigenvalues --   -0.42069  -0.41951  -0.41615  -0.41494  -0.41401
 Alpha  occ. eigenvalues --   -0.41099  -0.40821  -0.40515  -0.39962  -0.39847
 Alpha  occ. eigenvalues --   -0.39749  -0.39587  -0.39447  -0.39291  -0.39056
 Alpha  occ. eigenvalues --   -0.38533  -0.38267  -0.37807  -0.37327  -0.37077
 Alpha  occ. eigenvalues --   -0.36719  -0.36350  -0.35472  -0.34831  -0.34050
 Alpha  occ. eigenvalues --   -0.32050  -0.31853  -0.31744  -0.31461  -0.31328
 Alpha  occ. eigenvalues --   -0.29886  -0.28200  -0.24269  -0.18228
 Alpha virt. eigenvalues --   -0.08089  -0.01452   0.03147   0.06195   0.07274
 Alpha virt. eigenvalues --    0.08756   0.09537   0.10578   0.11668   0.12012
 Alpha virt. eigenvalues --    0.12220   0.12961   0.13225   0.13661   0.13890

 Mulliken charges:
               1
     1  O   -0.491269
     2  O   -0.551126
     3  O   -0.579458
     4  O   -0.542315
     5  C    0.219145
     6  C    0.184586
     7  C    0.038956
     8  C   -0.210872
     9  C   -0.170142
    10  C    0.153560
    11  C   -0.314989
    12  C   -0.132074
    13  C   -0.300503
    14  C   -0.324955
    15  C    0.001307
    16  C    0.052656
    17  C   -0.389518
    18  C   -0.087878
    19  C   -0.070948
    20  C    0.051575
    21  C    0.250998
    22  C   -0.191918
    23  C    0.146334
    24  C   -0.194393
    25  C   -0.106813
    26  C   -0.317089
    27  C   -0.303123
    28  C   -0.296800
    29  C   -0.163236
    30  C    0.138403
    31  C    0.111656
    32  C   -0.269973
    33  C   -0.345386
    34  C   -0.122638
    35  C    0.098786
    36  C   -0.383838
    37  C   -0.079108
    38  C   -0.101707
    39  C   -0.085878
    40  C   -0.076479
    41  C   -0.130237
    42  C   -0.113261
    43  C    0.118496
    44  C   -0.361988
    45  H    0.102448
    46  H    0.129741
    47  H    0.089739
    48  H    0.111427
    49  H    0.089388
    50  H    0.106560
    51  H    0.114402
    52  H    0.111585
    53  H    0.091836
    54  H    0.105563
    55  H    0.112538
    56  H    0.082420
    57  H    0.125748
    58  H    0.115454
    59  H    0.081669
    60  H    0.291734
    61  H    0.018181
    62  H    0.144403
    63  H    0.141384
    64  H    0.092226
    65  H    0.088483
    66  H    0.088897
    67  H    0.076553
    68  H    0.099840
    69  H    0.062346
    70  H    0.123729
    71  H    0.126493
    72  H    0.104076
    73  H    0.098726
    74  H    0.106406
    75  H    0.100532
    76  H    0.099907
    77  H    0.096479
    78  H    0.115246
    79  H    0.088842
    80  H    0.104537
    81  H    0.076270
    82  H    0.310467
    83  H    0.309882
    84  H    0.125456
    85  H    0.127913
    86  H    0.108052
    87  H    0.098828
    88  H    0.068705
    89  H    0.125183
    90  H    0.135235
    91  H    0.115022
    92  H    0.075272
    93  H    0.096173
    94  H    0.068090
    95  H    0.083705
    96  H    0.075180
    97  H    0.081353
    98  H    0.107094
    99  H    0.109370
   100  H    0.106665
 Sum of Mulliken charges =  -0.00000

 Dipole moment (field-independent basis, Debye):
    X=              1.1717    Y=             -0.3366    Z=              2.1990  Tot=              2.5143
 Quadrupole moment (field-independent basis, Debye-Ang):
   XX=           -284.9742   YY=           -259.9260   ZZ=           -280.6138
   XY=              4.3931   XZ=             42.1055   YZ=             -0.5799

 Normal termination of Gaussian 16 at Wed Jul 31 17:07:14 2019.
