 Gaussian 16, Revision A.03,
 Gaussian 16:  ES64L-G16RevA.03 25-Dec-2016

 -------------------------------------
 # td=(NStates=1) CAM-B3LYP/6-31G(d,p)
 -------------------------------------

 --
 TD
 --
 Symbolic Z-matrix:
 Charge =  0 Multiplicity = 1

                         Standard orientation:
 ---------------------------------------------------------------------
 Center     Atomic      Atomic             Coordinates (Angstroms)
 Number     Number       Type             X           Y           Z
 ---------------------------------------------------------------------
      1          8           0      -11.690333    0.216571   -1.548618
      2          8           0      -13.299275   -2.204098    1.542848
      3          8           0       10.774916   -1.138649   -2.085438
      4          8           0       14.468565   -0.823681   -0.026747
      5          6           0      -11.076849   -0.138394   -0.324160
      6          6           0      -11.738646   -1.239145   -1.137577
      7          6           0      -11.746419    0.546098    0.810342
      8          6           0      -13.141802   -1.745330   -0.813543
      9          6           0      -13.234635    0.208734    0.832059
     10          6           0      -13.625160   -1.291160    0.521897
     11          6           0      -10.803762   -2.205093   -1.853423
     12          6           0       -9.586725    0.068408   -0.303041
     13          6           0      -11.134222    0.177381    2.149847
     14          6           0      -11.595588    2.159550    0.702108
     15          6           0       -8.659132   -0.784746    0.149072
     16          6           0       -7.175029   -0.640064    0.174775
     17          6           0       -6.424038   -1.816757    0.727617
     18          6           0       -6.636313    0.556147   -0.153214
     19          6           0       -5.208164    0.741784   -0.185545
     20          6           0       11.795025    0.260978    1.305806
     21          6           0       11.787715   -0.611759   -1.140990
     22          6           0       12.741048   -1.018223    1.548582
     23          6           0       13.426324   -1.732082    0.492949
     24          6           0       12.537832   -1.958958   -0.666061
     25          6           0       11.097908    0.084139    0.031276
     26          6           0       10.971580    0.516624    2.544479
     27          6           0       12.840902    1.461617    1.345576
     28          6           0       12.561794    0.399352   -1.934287
     29          6           0       -4.657740    1.989224   -0.342524
     30          6           0        9.834137    0.394469   -0.174607
     31          6           0       -3.337476    2.386712   -0.474620
     32          6           0        8.554167    0.860061   -0.230738
     33          6           0       -3.030694    3.871463   -0.668382
     34          6           0       -2.265360    1.389835   -0.451689
     35          6           0        7.412258   -0.034556   -0.102629
     36          6           0        7.831113   -1.364548    0.293734
     37          6           0        6.227792    0.632379   -0.300909
     38          6           0       -0.953204    1.780420   -0.491682
     39          6           0        4.940601   -0.001509   -0.031621
     40          6           0        0.015424    0.802123   -0.194474
     41          6           0        3.818875    0.649296   -0.169095
     42          6           0        1.357119    1.089685   -0.303645
     43          6           0        2.442954    0.155627   -0.126908
     44          6           0        2.301570   -1.363634    0.019197
     45          1           0      -13.180803   -2.845649   -0.838880
     46          1           0      -13.901021   -1.218007   -1.586395
     47          1           0      -13.932156    0.612446    1.763309
     48          1           0      -13.788602    0.724373    0.047564
     49          1           0      -14.749783   -1.536367    0.484612
     50          1           0      -10.831004   -3.213976   -1.232217
     51          1           0      -11.373588   -2.330399   -2.732372
     52          1           0       -9.746557   -1.783328   -1.930247
     53          1           0       -9.318446    0.890209   -0.966278
     54          1           0      -10.119222    0.417516    2.193582
     55          1           0      -11.704311    0.478890    3.067482
     56          1           0      -11.117334   -0.874669    2.235831
     57          1           0      -11.937816    2.537570   -0.346663
     58          1           0      -12.283713    2.703061    1.387850
     59          1           0      -10.654824    2.245374    0.723623
     60          1           0      -12.312853   -2.110021    1.857229
     61          1           0       -9.135778   -1.776419    0.573160
     62          1           0       -6.009103   -2.244768   -0.247748
     63          1           0       -5.595380   -1.352150    1.225065
     64          1           0       -7.137747   -2.489781    1.217458
     65          1           0       -7.219006    1.391145   -0.310954
     66          1           0       -4.672745   -0.223573    0.084110
     67          1           0       13.241120   -0.673690    2.482998
     68          1           0       11.993937   -1.784324    2.315919
     69          1           0       13.858728   -2.644722    0.596559
     70          1           0       13.229878   -2.532631   -1.408422
     71          1           0       11.553873   -2.510361   -0.388436
     72          1           0       11.533500    0.456456    3.520830
     73          1           0       10.357797    1.496432    2.506409
     74          1           0       10.044616   -0.172737    2.639278
     75          1           0       13.547608    1.601186    0.522993
     76          1           0       12.255274    2.448926    1.215354
     77          1           0       13.390666    1.497127    2.348871
     78          1           0       13.095492   -0.138485   -2.945558
     79          1           0       12.176966    1.226245   -2.294055
     80          1           0       13.522296    0.695228   -1.471670
     81          1           0       -5.279080    2.883001   -0.607559
     82          1           0       10.183689   -0.273353   -2.185029
     83          1           0       15.422720   -1.119219    0.599143
     84          1           0        8.609008    1.845888   -0.546143
     85          1           0       -2.340011    4.283443   -0.028529
     86          1           0       -2.479166    3.973502   -1.596173
     87          1           0       -3.871969    4.416603   -0.980695
     88          1           0       -2.579118    0.444789   -0.159759
     89          1           0        7.055933   -1.998328    0.411732
     90          1           0        8.655891   -1.716605   -0.363322
     91          1           0        8.272564   -1.185873    1.259878
     92          1           0        6.314170    1.650720   -0.748241
     93          1           0       -0.746427    2.778096   -0.735813
     94          1           0        4.969973   -1.089002    0.208958
     95          1           0       -0.290884   -0.270758    0.147467
     96          1           0        3.736665    1.733089   -0.249615
     97          1           0        1.679394    2.007798   -0.439062
     98          1           0        1.202151   -1.705928   -0.246540
     99          1           0        3.208175   -1.815054   -0.727951
    100          1           0        2.374284   -1.626974    1.177021
 ---------------------------------------------------------------------

 SCF Done:  E(RCAM-B3LYP) =  -1857.29406770     A.U. after   15 cycles

 Excitation energies and oscillator strengths:

 Excited State   1:      Singlet-A      2.0560 eV  603.04 nm  f=2.8630  <S**2>=0.000
     163 ->166         0.11672
     164 ->165         0.70289
     164 <-165        -0.11566
 This state for optimization and/or second-order correction.
 Total Energy, E(TD-HF/TD-DFT) =  -1857.21851133
 Copying the excited state density for this state as the 1-particle RhoCI density.

 The electronic state is 1-A.
 Alpha  occ. eigenvalues --  -19.23037 -19.21865 -19.20664 -19.20600 -10.32436
 Alpha  occ. eigenvalues --  -10.32087 -10.31275 -10.30506 -10.30304 -10.28985
 Alpha  occ. eigenvalues --  -10.28808 -10.27944 -10.27844 -10.27531 -10.27510
 Alpha  occ. eigenvalues --  -10.27460 -10.27454 -10.27403 -10.27276 -10.27151
 Alpha  occ. eigenvalues --  -10.27030 -10.26934 -10.26887 -10.26722 -10.26678
 Alpha  occ. eigenvalues --  -10.26609 -10.26523 -10.26471 -10.26399 -10.26361
 Alpha  occ. eigenvalues --  -10.26281 -10.26233 -10.26085 -10.25858 -10.25669
 Alpha  occ. eigenvalues --  -10.25542 -10.25463 -10.25381 -10.25341 -10.24949
 Alpha  occ. eigenvalues --  -10.24242 -10.24102 -10.23941 -10.23518  -1.13368
 Alpha  occ. eigenvalues --   -1.07871  -1.06954  -1.06209  -0.93165  -0.92581
 Alpha  occ. eigenvalues --   -0.92027  -0.91510  -0.90602  -0.90068  -0.87788
 Alpha  occ. eigenvalues --   -0.86671  -0.85720  -0.85353  -0.84668  -0.83549
 Alpha  occ. eigenvalues --   -0.82315  -0.80849  -0.80735  -0.79183  -0.77762
 Alpha  occ. eigenvalues --   -0.77456  -0.76865  -0.75777  -0.75502  -0.75448
 Alpha  occ. eigenvalues --   -0.74431  -0.74351  -0.72724  -0.70619  -0.69518
 Alpha  occ. eigenvalues --   -0.68530  -0.66802  -0.65075  -0.64584  -0.64412
 Alpha  occ. eigenvalues --   -0.63820  -0.61793  -0.60639  -0.60230  -0.59479
 Alpha  occ. eigenvalues --   -0.58761  -0.58160  -0.58020  -0.56875  -0.56373
 Alpha  occ. eigenvalues --   -0.56049  -0.55789  -0.55542  -0.54825  -0.53951
 Alpha  occ. eigenvalues --   -0.53248  -0.53006  -0.52669  -0.52018  -0.51705
 Alpha  occ. eigenvalues --   -0.50903  -0.50487  -0.50201  -0.49802  -0.49300
 Alpha  occ. eigenvalues --   -0.49062  -0.49023  -0.48576  -0.48418  -0.47946
 Alpha  occ. eigenvalues --   -0.47768  -0.47707  -0.47324  -0.47183  -0.47034
 Alpha  occ. eigenvalues --   -0.46880  -0.46682  -0.46328  -0.46250  -0.45708
 Alpha  occ. eigenvalues --   -0.45467  -0.44913  -0.44582  -0.44388  -0.44061
 Alpha  occ. eigenvalues --   -0.43992  -0.43882  -0.43626  -0.42462  -0.42244
 Alpha  occ. eigenvalues --   -0.42019  -0.41942  -0.41465  -0.41274  -0.41113
 Alpha  occ. eigenvalues --   -0.40964  -0.40607  -0.40282  -0.40065  -0.40023
 Alpha  occ. eigenvalues --   -0.39312  -0.39052  -0.38865  -0.38493  -0.38282
 Alpha  occ. eigenvalues --   -0.38170  -0.38019  -0.37520  -0.37238  -0.36192
 Alpha  occ. eigenvalues --   -0.35960  -0.35598  -0.34795  -0.34157  -0.33442
 Alpha  occ. eigenvalues --   -0.33022  -0.32084  -0.32030  -0.31702  -0.30471
 Alpha  occ. eigenvalues --   -0.29490  -0.27730  -0.24812  -0.19141
 Alpha virt. eigenvalues --   -0.06343  -0.00165   0.02844   0.06122   0.06385
 Alpha virt. eigenvalues --    0.07170   0.09843   0.10433   0.11188   0.11602
 Alpha virt. eigenvalues --    0.11998   0.12661   0.12899   0.13544   0.13743

 Mulliken charges:
               1
     1  O   -0.515538
     2  O   -0.563072
     3  O   -0.571066
     4  O   -0.544518
     5  C    0.211316
     6  C    0.219595
     7  C    0.018302
     8  C   -0.193710
     9  C   -0.201322
    10  C    0.158576
    11  C   -0.326007
    12  C   -0.127452
    13  C   -0.297664
    14  C   -0.297112
    15  C   -0.097770
    16  C    0.056344
    17  C   -0.362518
    18  C   -0.074515
    19  C   -0.089313
    20  C    0.035817
    21  C    0.225125
    22  C   -0.150567
    23  C    0.146856
    24  C   -0.185358
    25  C   -0.036867
    26  C   -0.309819
    27  C   -0.285872
    28  C   -0.295772
    29  C   -0.123490
    30  C    0.037092
    31  C    0.061476
    32  C   -0.226692
    33  C   -0.390098
    34  C   -0.087678
    35  C    0.113565
    36  C   -0.374256
    37  C   -0.113783
    38  C   -0.065343
    39  C   -0.108716
    40  C   -0.094658
    41  C   -0.086960
    42  C   -0.094391
    43  C    0.083195
    44  C   -0.357677
    45  H    0.113471
    46  H    0.106145
    47  H    0.075702
    48  H    0.111729
    49  H    0.088309
    50  H    0.093862
    51  H    0.129479
    52  H    0.127946
    53  H    0.113080
    54  H    0.118677
    55  H    0.111038
    56  H    0.057954
    57  H    0.101767
    58  H    0.107764
    59  H    0.108197
    60  H    0.303227
    61  H    0.067396
    62  H    0.126668
    63  H    0.132392
    64  H    0.120551
    65  H    0.084071
    66  H    0.080484
    67  H    0.089999
    68  H    0.035256
    69  H    0.100827
    70  H    0.106507
    71  H    0.118748
    72  H    0.102682
    73  H    0.105996
    74  H    0.094317
    75  H    0.124426
    76  H    0.078082
    77  H    0.090795
    78  H    0.069172
    79  H    0.104649
    80  H    0.134850
    81  H    0.074724
    82  H    0.300054
    83  H    0.292376
    84  H    0.114478
    85  H    0.137515
    86  H    0.124885
    87  H    0.115567
    88  H    0.076916
    89  H    0.106972
    90  H    0.151434
    91  H    0.135228
    92  H    0.091455
    93  H    0.086956
    94  H    0.092367
    95  H    0.085668
    96  H    0.073797
    97  H    0.067363
    98  H    0.098427
    99  H    0.105114
   100  H    0.114805
 Sum of Mulliken charges =  -0.00000

 Dipole moment (field-independent basis, Debye):
    X=              3.8655    Y=              0.3248    Z=              2.6019  Tot=              4.6709
 Quadrupole moment (field-independent basis, Debye-Ang):
   XX=           -279.0478   YY=           -258.2173   ZZ=           -280.2503
   XY=             -5.1021   XZ=             30.6378   YZ=             -6.0390

 Normal termination of Gaussian 16 at Thu Aug  1 21:40:13 2019.
