 Gaussian 16, Revision A.03,
 Gaussian 16:  ES64L-G16RevA.03 25-Dec-2016

 -------------------------------------
 # td=(NStates=1) CAM-B3LYP/6-31G(d,p)
 -------------------------------------

 --
 TD
 --
 Symbolic Z-matrix:
 Charge =  0 Multiplicity = 1

                         Standard orientation:
 ---------------------------------------------------------------------
 Center     Atomic      Atomic             Coordinates (Angstroms)
 Number     Number       Type             X           Y           Z
 ---------------------------------------------------------------------
      1          8           0      -11.758213    0.388503   -1.398700
      2          8           0      -12.976434   -2.596454    1.145124
      3          8           0       10.713737   -0.700275   -2.155068
      4          8           0       14.449593   -1.163195    0.125183
      5          6           0      -10.931611   -0.140510   -0.368617
      6          6           0      -11.531973   -1.008219   -1.354816
      7          6           0      -11.573947    0.230449    1.126170
      8          6           0      -12.980315   -1.582317   -1.017599
      9          6           0      -13.129810   -0.213227    0.988659
     10          6           0      -13.428257   -1.571891    0.435853
     11          6           0      -10.734676   -1.660337   -2.402064
     12          6           0       -9.468677    0.102825   -0.374124
     13          6           0      -10.954338   -0.505656    2.381887
     14          6           0      -11.557717    1.761804    1.081589
     15          6           0       -8.586154   -0.848837    0.053567
     16          6           0       -7.114674   -0.634739    0.161014
     17          6           0       -6.181931   -1.881267    0.142344
     18          6           0       -6.510712    0.653297    0.132301
     19          6           0       -5.119201    0.933325    0.010261
     20          6           0       11.723810   -0.113852    1.376608
     21          6           0       11.771172   -0.377688   -1.218819
     22          6           0       12.381602   -1.575671    1.444976
     23          6           0       13.301013   -1.950094    0.357602
     24          6           0       12.440747   -1.832312   -0.974403
     25          6           0       10.944115   -0.055600    0.091696
     26          6           0       10.703231   -0.118742    2.476426
     27          6           0       12.704845    0.999104    1.546277
     28          6           0       12.680293    0.646822   -1.656333
     29          6           0       -4.748570    2.254610   -0.087788
     30          6           0        9.742777    0.541896   -0.080607
     31          6           0       -3.435887    2.658624   -0.198615
     32          6           0        8.574712    0.964833   -0.072182
     33          6           0       -2.996857    4.133093   -0.377580
     34          6           0       -2.340661    1.740970   -0.238059
     35          6           0        7.376920    0.212603   -0.299417
     36          6           0        7.640141   -1.337281   -0.402131
     37          6           0        6.206593    0.862296   -0.154280
     38          6           0       -1.018357    2.017192   -0.186718
     39          6           0        4.935153    0.224858   -0.059679
     40          6           0        0.046927    1.061479   -0.266077
     41          6           0        3.696135    0.867558   -0.244666
     42          6           0        1.397490    1.228668   -0.237452
     43          6           0        2.432465    0.348685   -0.092491
     44          6           0        2.158953   -1.005270    0.177278
     45          1           0      -12.888665   -2.905568   -1.206056
     46          1           0      -13.716874   -1.177092   -1.673283
     47          1           0      -13.482622   -0.125764    2.062419
     48          1           0      -13.719815    0.431387    0.258432
     49          1           0      -14.548297   -1.690345    0.469766
     50          1           0      -10.404158   -2.726615   -2.047324
     51          1           0      -11.520996   -2.050771   -3.148836
     52          1           0       -9.917352   -1.015016   -2.834495
     53          1           0       -8.961272    0.966651   -0.764362
     54          1           0      -10.102148    0.188223    2.734139
     55          1           0      -11.436816   -0.310181    3.325785
     56          1           0      -10.949129   -1.575244    2.330744
     57          1           0      -12.006156    1.942619    0.181196
     58          1           0      -12.068463    2.112601    1.971815
     59          1           0      -10.528092    2.038624    1.197462
     60          1           0      -12.045143   -2.681715    0.785093
     61          1           0       -9.006564   -1.904365    0.242171
     62          1           0       -5.666625   -1.939921   -0.823135
     63          1           0       -5.391318   -1.934787    0.908653
     64          1           0       -6.821502   -2.767190    0.335752
     65          1           0       -7.240772    1.481881   -0.059635
     66          1           0       -4.371517    0.161938    0.280114
     67          1           0       13.049723   -1.749245    2.449923
     68          1           0       11.650421   -2.267794    1.568229
     69          1           0       13.408082   -2.966709    0.394458
     70          1           0       13.035164   -2.004532   -1.840145
     71          1           0       11.463325   -2.581561   -1.026695
     72          1           0       11.203042   -0.227745    3.433956
     73          1           0       10.253957    0.830140    2.581718
     74          1           0        9.869907   -0.953862    2.377698
     75          1           0       13.726198    0.896331    1.092756
     76          1           0       12.386141    2.086054    1.429418
     77          1           0       13.214129    0.937614    2.535216
     78          1           0       12.770660    0.398821   -2.810913
     79          1           0       12.205592    1.550139   -1.855529
     80          1           0       13.391372    0.865049   -1.157435
     81          1           0       -5.644700    2.964912   -0.183722
     82          1           0       10.187332    0.005961   -2.355603
     83          1           0       14.672578   -1.129067    0.989457
     84          1           0        8.515184    2.025918   -0.227152
     85          1           0       -2.358398    4.531238    0.477332
     86          1           0       -2.326127    4.107876   -1.397112
     87          1           0       -3.803767    4.779627   -0.723165
     88          1           0       -2.712411    0.802570    0.076639
     89          1           0        6.765349   -1.959363   -0.363720
     90          1           0        8.139412   -1.466223   -1.398641
     91          1           0        8.228090   -1.731729    0.486816
     92          1           0        6.218790    1.976286   -0.176727
     93          1           0       -0.752203    3.137325   -0.199327
     94          1           0        4.840274   -0.772733    0.107425
     95          1           0       -0.477644    0.261708   -0.424502
     96          1           0        3.649656    1.938251   -0.274348
     97          1           0        1.619623    2.288669   -0.474149
     98          1           0        1.032552   -1.237826    0.138213
     99          1           0        2.370980   -1.880258   -0.503212
    100          1           0        2.483923   -1.592725    1.274170
 ---------------------------------------------------------------------

 SCF Done:  E(RCAM-B3LYP) =  -1857.26622046     A.U. after   16 cycles

 Excitation energies and oscillator strengths:

 Excited State   1:      Singlet-A      1.8940 eV  654.60 nm  f=2.7675  <S**2>=0.000
     163 ->166        -0.11496
     164 ->165         0.70416
     164 <-165        -0.12505
 This state for optimization and/or second-order correction.
 Total Energy, E(TD-HF/TD-DFT) =  -1857.19661548
 Copying the excited state density for this state as the 1-particle RhoCI density.

 The electronic state is 1-A.
 Alpha  occ. eigenvalues --  -19.22990 -19.22654 -19.22149 -19.19418 -10.32792
 Alpha  occ. eigenvalues --  -10.32398 -10.31228 -10.30222 -10.30000 -10.28865
 Alpha  occ. eigenvalues --  -10.28611 -10.28166 -10.28128 -10.27931 -10.27899
 Alpha  occ. eigenvalues --  -10.27634 -10.27395 -10.27256 -10.27184 -10.27175
 Alpha  occ. eigenvalues --  -10.27143 -10.27062 -10.26929 -10.26762 -10.26733
 Alpha  occ. eigenvalues --  -10.26574 -10.26452 -10.26185 -10.26106 -10.26099
 Alpha  occ. eigenvalues --  -10.25786 -10.25754 -10.25692 -10.25626 -10.25489
 Alpha  occ. eigenvalues --  -10.25428 -10.25417 -10.25319 -10.25194 -10.25153
 Alpha  occ. eigenvalues --  -10.24687 -10.24334 -10.23362 -10.22094  -1.17296
 Alpha  occ. eigenvalues --   -1.13837  -1.13347  -1.09358  -0.93366  -0.93158
 Alpha  occ. eigenvalues --   -0.92335  -0.91269  -0.90378  -0.88927  -0.87689
 Alpha  occ. eigenvalues --   -0.86152  -0.85992  -0.85785  -0.84941  -0.84118
 Alpha  occ. eigenvalues --   -0.82646  -0.81324  -0.80604  -0.78492  -0.77337
 Alpha  occ. eigenvalues --   -0.77264  -0.76587  -0.76506  -0.76152  -0.75361
 Alpha  occ. eigenvalues --   -0.75139  -0.74206  -0.73446  -0.70383  -0.69693
 Alpha  occ. eigenvalues --   -0.68747  -0.67246  -0.65752  -0.65516  -0.64007
 Alpha  occ. eigenvalues --   -0.63887  -0.62330  -0.61361  -0.60901  -0.60154
 Alpha  occ. eigenvalues --   -0.59172  -0.58351  -0.58114  -0.57664  -0.56750
 Alpha  occ. eigenvalues --   -0.56037  -0.55711  -0.55093  -0.55076  -0.54688
 Alpha  occ. eigenvalues --   -0.54322  -0.53941  -0.53470  -0.53315  -0.52847
 Alpha  occ. eigenvalues --   -0.51548  -0.51361  -0.51303  -0.51184  -0.50831
 Alpha  occ. eigenvalues --   -0.50147  -0.49697  -0.49328  -0.48784  -0.48545
 Alpha  occ. eigenvalues --   -0.48442  -0.48121  -0.47935  -0.47108  -0.46790
 Alpha  occ. eigenvalues --   -0.46533  -0.46355  -0.45988  -0.45942  -0.45130
 Alpha  occ. eigenvalues --   -0.44997  -0.44547  -0.44398  -0.44022  -0.43995
 Alpha  occ. eigenvalues --   -0.43511  -0.43256  -0.42832  -0.42666  -0.42435
 Alpha  occ. eigenvalues --   -0.42372  -0.41777  -0.41485  -0.41420  -0.41388
 Alpha  occ. eigenvalues --   -0.41037  -0.40761  -0.40377  -0.40083  -0.39855
 Alpha  occ. eigenvalues --   -0.39851  -0.39729  -0.39355  -0.38945  -0.38380
 Alpha  occ. eigenvalues --   -0.38342  -0.37924  -0.37887  -0.37349  -0.36945
 Alpha  occ. eigenvalues --   -0.36294  -0.36110  -0.35302  -0.34634  -0.33606
 Alpha  occ. eigenvalues --   -0.33196  -0.32391  -0.32154  -0.31422  -0.30909
 Alpha  occ. eigenvalues --   -0.28482  -0.27753  -0.24609  -0.19019
 Alpha virt. eigenvalues --   -0.07157  -0.00682   0.03035   0.06398   0.06834
 Alpha virt. eigenvalues --    0.08731   0.10529   0.10821   0.11954   0.12395
 Alpha virt. eigenvalues --    0.12438   0.13422   0.13561   0.13717   0.14395

 Mulliken charges:
               1
     1  O   -0.500510
     2  O   -0.504144
     3  O   -0.566497
     4  O   -0.500295
     5  C    0.190319
     6  C    0.251196
     7  C    0.010920
     8  C   -0.216524
     9  C   -0.176175
    10  C    0.171730
    11  C   -0.337347
    12  C   -0.116806
    13  C   -0.323451
    14  C   -0.304081
    15  C   -0.070302
    16  C    0.047918
    17  C   -0.374263
    18  C   -0.120765
    19  C   -0.059639
    20  C    0.038942
    21  C    0.241869
    22  C   -0.196927
    23  C    0.136731
    24  C   -0.190853
    25  C   -0.047733
    26  C   -0.298085
    27  C   -0.334414
    28  C   -0.265936
    29  C   -0.119641
    30  C    0.158258
    31  C    0.080611
    32  C   -0.297864
    33  C   -0.372995
    34  C   -0.094573
    35  C    0.095369
    36  C   -0.357509
    37  C   -0.100634
    38  C   -0.102452
    39  C   -0.093734
    40  C   -0.064086
    41  C   -0.129509
    42  C   -0.143147
    43  C    0.219363
    44  C   -0.410847
    45  H    0.030554
    46  H    0.130373
    47  H    0.085723
    48  H    0.091760
    49  H    0.085097
    50  H    0.103032
    51  H    0.112301
    52  H    0.133290
    53  H    0.105273
    54  H    0.098871
    55  H    0.113741
    56  H    0.109678
    57  H    0.144139
    58  H    0.101446
    59  H    0.098942
    60  H    0.300332
    61  H    0.070745
    62  H    0.132529
    63  H    0.121736
    64  H    0.103609
    65  H    0.073489
    66  H    0.102497
    67  H    0.047793
    68  H    0.120305
    69  H    0.099644
    70  H    0.107346
    71  H    0.091601
    72  H    0.090567
    73  H    0.111174
    74  H    0.091951
    75  H    0.112369
    76  H    0.111052
    77  H    0.090039
    78  H    0.096361
    79  H    0.095645
    80  H    0.117569
    81  H    0.092556
    82  H    0.289050
    83  H    0.294198
    84  H    0.099023
    85  H    0.128928
    86  H    0.104777
    87  H    0.110081
    88  H    0.066362
    89  H    0.106853
    90  H    0.137363
    91  H    0.116039
    92  H    0.083345
    93  H    0.070043
    94  H    0.081316
    95  H    0.061250
    96  H    0.074101
    97  H    0.083830
    98  H    0.105882
    99  H    0.124197
   100  H    0.086747
 Sum of Mulliken charges =  -0.00000

 Dipole moment (field-independent basis, Debye):
    X=              1.5151    Y=             -0.0713    Z=              1.4494  Tot=              2.0980
 Quadrupole moment (field-independent basis, Debye-Ang):
   XX=           -293.1002   YY=           -259.0790   ZZ=           -275.1867
   XY=              6.2615   XZ=             33.6110   YZ=             -1.7549

 Normal termination of Gaussian 16 at Thu Aug  1 14:06:44 2019.
