 Gaussian 16, Revision A.03,
 Gaussian 16:  ES64L-G16RevA.03 25-Dec-2016

 -------------------------------------
 # td=(NStates=1) CAM-B3LYP/6-31G(d,p)
 -------------------------------------

 --
 TD
 --
 Symbolic Z-matrix:
 Charge =  0 Multiplicity = 1

                         Standard orientation:
 ---------------------------------------------------------------------
 Center     Atomic      Atomic             Coordinates (Angstroms)
 Number     Number       Type             X           Y           Z
 ---------------------------------------------------------------------
      1          8           0      -11.763277    0.309811   -1.400981
      2          8           0      -12.771792   -2.692503    1.056787
      3          8           0       10.662520   -0.721240   -2.321786
      4          8           0       14.511239   -1.061847   -0.235096
      5          6           0      -11.003615   -0.248236   -0.235905
      6          6           0      -11.663160   -1.047428   -1.357979
      7          6           0      -11.713337    0.094040    1.055907
      8          6           0      -13.018435   -1.763846   -1.096599
      9          6           0      -13.216429   -0.283637    0.998551
     10          6           0      -13.419179   -1.668260    0.337296
     11          6           0      -10.767818   -1.725192   -2.266661
     12          6           0       -9.626970    0.104518   -0.370409
     13          6           0      -10.968896   -0.551225    2.307523
     14          6           0      -11.721438    1.633658    1.308697
     15          6           0       -8.640353   -0.697613    0.029595
     16          6           0       -7.185161   -0.404975    0.019538
     17          6           0       -6.367912   -1.700718    0.380239
     18          6           0       -6.626090    0.743024   -0.213557
     19          6           0       -5.238547    1.043207   -0.071716
     20          6           0       11.888090   -0.266435    1.342146
     21          6           0       11.692851   -0.522757   -1.260797
     22          6           0       12.621009   -1.626875    1.325783
     23          6           0       13.391476   -1.891769    0.083486
     24          6           0       12.478338   -1.858290   -1.203598
     25          6           0       11.026655   -0.148740    0.053032
     26          6           0       10.974836   -0.356195    2.537824
     27          6           0       12.737320    0.941734    1.761355
     28          6           0       12.550855    0.762507   -1.725726
     29          6           0       -4.679346    2.367066   -0.319373
     30          6           0        9.882298    0.505267    0.058462
     31          6           0       -3.386838    2.680717   -0.420710
     32          6           0        8.656082    0.970249   -0.032541
     33          6           0       -3.096734    4.085696   -0.457552
     34          6           0       -2.313217    1.783410   -0.178211
     35          6           0        7.391196    0.128117   -0.014352
     36          6           0        7.491869   -1.306611   -0.115717
     37          6           0        6.147841    0.883093   -0.011680
     38          6           0       -1.038876    1.960909   -0.158061
     39          6           0        4.857815    0.322736   -0.054351
     40          6           0       -0.015227    1.065671   -0.099032
     41          6           0        3.799785    1.067024    0.058001
     42          6           0        1.379865    1.293291   -0.122986
     43          6           0        2.470349    0.480471    0.019178
     44          6           0        2.292842   -0.924625    0.079824
     45          1           0      -12.888712   -2.723458   -1.482326
     46          1           0      -13.589179   -1.207442   -1.849930
     47          1           0      -13.767876   -0.350428    2.064552
     48          1           0      -13.595816    0.341714    0.395751
     49          1           0      -14.585067   -1.954573    0.393349
     50          1           0      -10.376179   -2.564695   -1.821917
     51          1           0      -11.208011   -1.835413   -3.288707
     52          1           0      -10.146389   -1.053128   -2.524735
     53          1           0       -9.542905    1.086559   -0.668669
     54          1           0       -9.973200   -0.219547    2.181037
     55          1           0      -11.565892   -0.212949    3.311248
     56          1           0      -10.920073   -1.652887    2.261139
     57          1           0      -12.008975    2.108226    0.372788
     58          1           0      -12.389494    2.109326    2.046040
     59          1           0      -10.643024    2.088551    1.462245
     60          1           0      -11.896350   -2.522006    0.743757
     61          1           0       -9.068449   -1.673432    0.398109
     62          1           0       -5.399576   -2.101009   -0.101353
     63          1           0       -6.093520   -1.574124    1.634288
     64          1           0       -6.903614   -2.590106    0.459624
     65          1           0       -7.149228    1.767984   -0.301695
     66          1           0       -4.542905    0.251057   -0.012665
     67          1           0       13.223816   -1.641184    2.112270
     68          1           0       12.054954   -2.559714    1.778985
     69          1           0       14.001556   -2.877138    0.087261
     70          1           0       13.105418   -1.797854   -2.115181
     71          1           0       11.779299   -2.601698   -1.248335
     72          1           0       11.521488   -0.632274    3.558682
     73          1           0       10.498932    0.420163    2.732989
     74          1           0       10.267420   -1.208375    2.411482
     75          1           0       13.589563    1.057298    1.130718
     76          1           0       12.080138    1.831047    1.717513
     77          1           0       13.142918    0.796509    2.834799
     78          1           0       12.848200    0.335351   -2.646900
     79          1           0       11.789837    1.674303   -1.704668
     80          1           0       13.254268    1.147975   -0.891768
     81          1           0       -5.688440    2.985018   -0.605831
     82          1           0       10.067188    0.018239   -2.044736
     83          1           0       15.185700   -0.909881    0.505830
     84          1           0        8.451273    2.051126   -0.145681
     85          1           0       -2.538318    4.567784    0.424493
     86          1           0       -2.203860    4.424609   -1.228286
     87          1           0       -3.953426    4.517281   -0.828092
     88          1           0       -2.550984    0.721988   -0.266589
     89          1           0        6.723844   -1.986714   -0.828726
     90          1           0        8.604891   -1.428249   -0.435735
     91          1           0        7.657227   -1.736325    0.855340
     92          1           0        6.138996    2.047756   -0.008015
     93          1           0       -0.668011    2.982474   -0.102752
     94          1           0        4.904132   -0.733394   -0.025368
     95          1           0       -0.241068    0.054088   -0.010355
     96          1           0        3.810363    2.122630    0.039563
     97          1           0        1.444021    2.424804    0.105258
     98          1           0        1.143693   -1.028790   -0.004561
     99          1           0        2.854432   -1.587707   -0.566660
    100          1           0        2.702683   -1.180988    1.136165
 ---------------------------------------------------------------------

 SCF Done:  E(RCAM-B3LYP) =  -1857.25820853     A.U. after   15 cycles

 Excitation energies and oscillator strengths:

 Excited State   1:      Singlet-A      2.0039 eV  618.71 nm  f=2.7162  <S**2>=0.000
     163 ->166        -0.11268
     164 ->165         0.70584
     164 <-165        -0.12548
 This state for optimization and/or second-order correction.
 Total Energy, E(TD-HF/TD-DFT) =  -1857.18456639
 Copying the excited state density for this state as the 1-particle RhoCI density.

 The electronic state is 1-A.
 Alpha  occ. eigenvalues --  -19.22398 -19.21744 -19.20943 -19.20581 -10.32021
 Alpha  occ. eigenvalues --  -10.31968 -10.31954 -10.31350 -10.30870 -10.29205
 Alpha  occ. eigenvalues --  -10.28669 -10.28598 -10.28552 -10.28161 -10.28101
 Alpha  occ. eigenvalues --  -10.27973 -10.27821 -10.27705 -10.27461 -10.27447
 Alpha  occ. eigenvalues --  -10.27269 -10.27030 -10.27001 -10.26664 -10.26615
 Alpha  occ. eigenvalues --  -10.26433 -10.26397 -10.26150 -10.26135 -10.25983
 Alpha  occ. eigenvalues --  -10.25750 -10.25696 -10.25606 -10.25524 -10.25515
 Alpha  occ. eigenvalues --  -10.25394 -10.25297 -10.25270 -10.25140 -10.25099
 Alpha  occ. eigenvalues --  -10.24779 -10.24442 -10.24083 -10.23142  -1.16338
 Alpha  occ. eigenvalues --   -1.11090  -1.08830  -1.07390  -0.93908  -0.93795
 Alpha  occ. eigenvalues --   -0.93124  -0.92147  -0.90790  -0.90314  -0.88836
 Alpha  occ. eigenvalues --   -0.87439  -0.86974  -0.86368  -0.86031  -0.84427
 Alpha  occ. eigenvalues --   -0.82787  -0.81321  -0.81030  -0.79887  -0.77650
 Alpha  occ. eigenvalues --   -0.77284  -0.76861  -0.76491  -0.76433  -0.75762
 Alpha  occ. eigenvalues --   -0.75250  -0.74732  -0.73213  -0.70628  -0.69750
 Alpha  occ. eigenvalues --   -0.68974  -0.67448  -0.65565  -0.65201  -0.64502
 Alpha  occ. eigenvalues --   -0.63991  -0.62761  -0.61776  -0.61304  -0.60624
 Alpha  occ. eigenvalues --   -0.59062  -0.58750  -0.58305  -0.57162  -0.56669
 Alpha  occ. eigenvalues --   -0.56519  -0.56098  -0.55667  -0.55085  -0.54796
 Alpha  occ. eigenvalues --   -0.54314  -0.53766  -0.53328  -0.52918  -0.52546
 Alpha  occ. eigenvalues --   -0.51948  -0.51752  -0.51336  -0.50817  -0.50503
 Alpha  occ. eigenvalues --   -0.50297  -0.49790  -0.49403  -0.49229  -0.48259
 Alpha  occ. eigenvalues --   -0.48092  -0.47983  -0.47514  -0.46794  -0.46565
 Alpha  occ. eigenvalues --   -0.46458  -0.46301  -0.46020  -0.46010  -0.45749
 Alpha  occ. eigenvalues --   -0.45450  -0.45349  -0.44742  -0.44553  -0.44029
 Alpha  occ. eigenvalues --   -0.43936  -0.43830  -0.43477  -0.43336  -0.42980
 Alpha  occ. eigenvalues --   -0.42717  -0.42584  -0.42158  -0.41404  -0.40944
 Alpha  occ. eigenvalues --   -0.40866  -0.40560  -0.40387  -0.40144  -0.40092
 Alpha  occ. eigenvalues --   -0.39903  -0.39631  -0.39455  -0.39344  -0.38856
 Alpha  occ. eigenvalues --   -0.38732  -0.38128  -0.37969  -0.37617  -0.37291
 Alpha  occ. eigenvalues --   -0.36908  -0.36137  -0.35260  -0.34689  -0.33737
 Alpha  occ. eigenvalues --   -0.32862  -0.32458  -0.32032  -0.31748  -0.31039
 Alpha  occ. eigenvalues --   -0.29854  -0.28812  -0.24997  -0.19505
 Alpha virt. eigenvalues --   -0.07057  -0.00894   0.02847   0.05021   0.06902
 Alpha virt. eigenvalues --    0.09463   0.09496   0.09753   0.11473   0.11848
 Alpha virt. eigenvalues --    0.12408   0.12475   0.13169   0.13474   0.13879

 Mulliken charges:
               1
     1  O   -0.511523
     2  O   -0.524400
     3  O   -0.570130
     4  O   -0.572633
     5  C    0.103363
     6  C    0.240352
     7  C    0.014681
     8  C   -0.196531
     9  C   -0.138072
    10  C    0.119557
    11  C   -0.312076
    12  C   -0.060380
    13  C   -0.297882
    14  C   -0.329957
    15  C   -0.098534
    16  C    0.108796
    17  C   -0.366686
    18  C   -0.128560
    19  C   -0.062582
    20  C    0.002866
    21  C    0.182984
    22  C   -0.178449
    23  C    0.157294
    24  C   -0.164245
    25  C   -0.039152
    26  C   -0.274149
    27  C   -0.298583
    28  C   -0.263382
    29  C   -0.140751
    30  C    0.100949
    31  C    0.125274
    32  C   -0.273211
    33  C   -0.371336
    34  C   -0.106543
    35  C    0.115748
    36  C   -0.395875
    37  C   -0.129362
    38  C   -0.049794
    39  C   -0.051471
    40  C   -0.090611
    41  C   -0.088370
    42  C   -0.141772
    43  C    0.128058
    44  C   -0.373226
    45  H    0.111591
    46  H    0.118269
    47  H    0.092341
    48  H    0.111562
    49  H    0.070747
    50  H    0.115548
    51  H    0.098349
    52  H    0.129438
    53  H    0.106379
    54  H    0.115398
    55  H    0.092162
    56  H    0.093632
    57  H    0.122696
    58  H    0.112777
    59  H    0.081077
    60  H    0.295411
    61  H    0.081785
    62  H    0.117833
    63  H    0.081749
    64  H    0.123351
    65  H    0.081690
    66  H    0.085408
    67  H    0.098263
    68  H    0.097642
    69  H    0.069760
    70  H    0.116763
    71  H    0.125204
    72  H    0.070043
    73  H    0.110632
    74  H    0.090284
    75  H    0.108568
    76  H    0.114549
    77  H    0.094433
    78  H    0.128194
    79  H    0.073968
    80  H    0.112133
    81  H    0.076966
    82  H    0.306227
    83  H    0.307882
    84  H    0.112735
    85  H    0.128038
    86  H    0.081990
    87  H    0.117092
    88  H    0.068915
    89  H    0.111142
    90  H    0.120982
    91  H    0.135558
    92  H    0.073593
    93  H    0.062830
    94  H    0.085395
    95  H    0.068088
    96  H    0.085749
    97  H    0.062707
    98  H    0.100478
    99  H    0.127277
   100  H    0.117030
 Sum of Mulliken charges =  -0.00000

 Dipole moment (field-independent basis, Debye):
    X=              3.9539    Y=             -0.1707    Z=              2.6742  Tot=              4.7764
 Quadrupole moment (field-independent basis, Debye-Ang):
   XX=           -271.2757   YY=           -262.5564   ZZ=           -280.5225
   XY=             -7.4807   XZ=             52.6186   YZ=              1.6380

 Normal termination of Gaussian 16 at Fri Aug  2 08:20:00 2019.
