 Gaussian 16, Revision A.03,
 Gaussian 16:  ES64L-G16RevA.03 25-Dec-2016

 -------------------------------------
 # td=(NStates=1) CAM-B3LYP/6-31G(d,p)
 -------------------------------------

 --
 TD
 --
 Symbolic Z-matrix:
 Charge =  0 Multiplicity = 1

                         Standard orientation:
 ---------------------------------------------------------------------
 Center     Atomic      Atomic             Coordinates (Angstroms)
 Number     Number       Type             X           Y           Z
 ---------------------------------------------------------------------
      1          8           0      -11.736831    0.317749   -1.615154
      2          8           0      -13.246728   -2.428600    1.347948
      3          8           0       10.717603   -0.806131   -2.199869
      4          8           0       14.453090   -0.901590   -0.149875
      5          6           0      -11.056860   -0.091731   -0.343174
      6          6           0      -11.689940   -1.018782   -1.258100
      7          6           0      -11.823757    0.366468    0.909707
      8          6           0      -13.127504   -1.652439   -0.946400
      9          6           0      -13.266575   -0.038590    0.899635
     10          6           0      -13.650906   -1.445250    0.415717
     11          6           0      -10.889784   -1.884452   -2.160644
     12          6           0       -9.665793    0.224526   -0.380536
     13          6           0      -11.062806   -0.218046    2.185406
     14          6           0      -11.812993    1.860721    0.965734
     15          6           0       -8.702668   -0.778488    0.084956
     16          6           0       -7.297555   -0.589438    0.144188
     17          6           0       -6.576910   -1.778646    0.517767
     18          6           0       -6.610009    0.611362   -0.027120
     19          6           0       -5.252927    0.832457    0.024633
     20          6           0       11.864942    0.027346    1.424804
     21          6           0       11.734224   -0.463926   -1.189114
     22          6           0       12.618373   -1.396352    1.358985
     23          6           0       13.494560   -1.760486    0.202322
     24          6           0       12.466348   -1.778798   -0.999046
     25          6           0       11.073259    0.081773    0.104137
     26          6           0       10.947804   -0.071973    2.645382
     27          6           0       12.847763    1.194185    1.440146
     28          6           0       12.571374    0.489984   -1.843160
     29          6           0       -4.647549    1.994991   -0.283392
     30          6           0        9.884501    0.497274    0.083515
     31          6           0       -3.252787    2.486755   -0.339856
     32          6           0        8.645253    0.990893   -0.137838
     33          6           0       -2.884226    3.919282   -0.596537
     34          6           0       -2.213958    1.669199   -0.170977
     35          6           0        7.432039    0.108896   -0.064396
     36          6           0        7.765856   -1.281883    0.076023
     37          6           0        6.222401    0.616151   -0.171223
     38          6           0       -0.878193    1.877623   -0.207649
     39          6           0        4.971959    0.036232   -0.132636
     40          6           0        0.205053    0.985696   -0.097762
     41          6           0        3.878337    0.819404   -0.152197
     42          6           0        1.531201    1.253978   -0.181161
     43          6           0        2.528011    0.308451    0.024616
     44          6           0        2.306519   -1.259704    0.178210
     45          1           0      -13.036160   -2.716511   -1.206962
     46          1           0      -13.666847   -1.137463   -1.617801
     47          1           0      -13.862036   -0.034524    1.768269
     48          1           0      -13.875903    0.675105    0.206378
     49          1           0      -14.847490   -1.722569    0.277096
     50          1           0      -10.328680   -2.765828   -1.858273
     51          1           0      -11.472086   -2.483410   -2.963014
     52          1           0      -10.223572   -1.189504   -2.602559
     53          1           0       -9.305818    0.977723   -1.063640
     54          1           0      -10.012442   -0.019113    2.162265
     55          1           0      -11.431898    0.187666    2.995121
     56          1           0      -10.934188   -1.164854    2.369436
     57          1           0      -12.298054    2.313721    0.008274
     58          1           0      -12.273681    2.152200    1.845840
     59          1           0      -10.807220    2.324488    1.092494
     60          1           0      -12.345173   -2.736218    0.948063
     61          1           0       -9.279296   -1.625777    0.638969
     62          1           0       -5.857446   -2.345000   -0.271542
     63          1           0       -5.909891   -1.273753    1.378861
     64          1           0       -7.201475   -2.460604    0.979794
     65          1           0       -7.260865    1.566951   -0.348686
     66          1           0       -4.626767   -0.090790    0.230977
     67          1           0       13.480552   -1.562809    2.123359
     68          1           0       11.914847   -2.221211    1.477899
     69          1           0       13.882804   -2.771187    0.218848
     70          1           0       13.108530   -2.051178   -1.881895
     71          1           0       11.727116   -2.536891   -1.021803
     72          1           0       11.719151   -0.089125    3.477296
     73          1           0       10.379466    0.773650    2.819489
     74          1           0       10.385040   -1.083104    2.869063
     75          1           0       13.257176    1.276972    0.527193
     76          1           0       12.222011    2.058291    1.613704
     77          1           0       13.427284    0.870258    2.223440
     78          1           0       12.703687   -0.041858   -2.649288
     79          1           0       12.085503    1.360604   -2.375971
     80          1           0       13.462041    0.686026   -1.400607
     81          1           0       -5.582404    2.732018   -0.588456
     82          1           0        9.910206   -0.177979   -2.199839
     83          1           0       15.023532   -0.869946    0.657343
     84          1           0        8.707753    1.976963   -0.512915
     85          1           0       -2.123499    4.076430    0.237018
     86          1           0       -2.366894    3.954640   -1.520351
     87          1           0       -3.650190    4.888325   -0.359460
     88          1           0       -2.562815    0.539229   -0.201179
     89          1           0        6.802752   -1.822696   -0.104753
     90          1           0        8.651993   -1.740610   -0.359234
     91          1           0        7.758956   -1.444044    1.142177
     92          1           0        6.069886    1.653556   -0.094205
     93          1           0       -0.718750    3.123459   -0.197052
     94          1           0        4.854910   -0.991403    0.215378
     95          1           0       -0.109139   -0.077753   -0.044542
     96          1           0        3.935195    1.745784   -0.399031
     97          1           0        1.879372    2.271909   -0.288877
     98          1           0        1.384991   -1.711110    0.416378
     99          1           0        2.911849   -1.658918   -0.828230
    100          1           0        3.070584   -1.487641    0.957534
 ---------------------------------------------------------------------

 SCF Done:  E(RCAM-B3LYP) =  -1857.26663525     A.U. after   15 cycles

 Excitation energies and oscillator strengths:

 Excited State   1:      Singlet-A      2.2084 eV  561.41 nm  f=3.1392  <S**2>=0.000
     163 ->166         0.14760
     164 ->165         0.69134
 This state for optimization and/or second-order correction.
 Total Energy, E(TD-HF/TD-DFT) =  -1857.18547689
 Copying the excited state density for this state as the 1-particle RhoCI density.

 The electronic state is 1-A.
 Alpha  occ. eigenvalues --  -19.23659 -19.21824 -19.21510 -19.20128 -10.31724
 Alpha  occ. eigenvalues --  -10.31317 -10.31115 -10.30812 -10.30685 -10.29084
 Alpha  occ. eigenvalues --  -10.28761 -10.28442 -10.28134 -10.28035 -10.27924
 Alpha  occ. eigenvalues --  -10.27779 -10.27467 -10.27326 -10.27319 -10.27143
 Alpha  occ. eigenvalues --  -10.27019 -10.26972 -10.26968 -10.26849 -10.26521
 Alpha  occ. eigenvalues --  -10.26351 -10.26348 -10.26268 -10.26032 -10.26018
 Alpha  occ. eigenvalues --  -10.25915 -10.25846 -10.25812 -10.25142 -10.24780
 Alpha  occ. eigenvalues --  -10.24752 -10.24577 -10.24360 -10.24303 -10.24176
 Alpha  occ. eigenvalues --  -10.24117 -10.23637 -10.21779 -10.20796  -1.15353
 Alpha  occ. eigenvalues --   -1.14544  -1.08897  -1.06887  -0.93661  -0.93119
 Alpha  occ. eigenvalues --   -0.92742  -0.91951  -0.91199  -0.90786  -0.87862
 Alpha  occ. eigenvalues --   -0.87155  -0.86718  -0.86095  -0.85195  -0.83804
 Alpha  occ. eigenvalues --   -0.83143  -0.82095  -0.80819  -0.78712  -0.78079
 Alpha  occ. eigenvalues --   -0.78078  -0.77589  -0.77080  -0.76216  -0.76080
 Alpha  occ. eigenvalues --   -0.76067  -0.74892  -0.73544  -0.70658  -0.69896
 Alpha  occ. eigenvalues --   -0.69124  -0.66312  -0.65350  -0.65073  -0.64619
 Alpha  occ. eigenvalues --   -0.63583  -0.62845  -0.62115  -0.60200  -0.59274
 Alpha  occ. eigenvalues --   -0.59108  -0.58646  -0.58487  -0.57914  -0.56443
 Alpha  occ. eigenvalues --   -0.56108  -0.55832  -0.55589  -0.55418  -0.54579
 Alpha  occ. eigenvalues --   -0.53990  -0.53876  -0.53438  -0.53224  -0.52086
 Alpha  occ. eigenvalues --   -0.51884  -0.51570  -0.50869  -0.50674  -0.50149
 Alpha  occ. eigenvalues --   -0.49905  -0.49828  -0.49601  -0.49318  -0.49044
 Alpha  occ. eigenvalues --   -0.48797  -0.48243  -0.48169  -0.48095  -0.47800
 Alpha  occ. eigenvalues --   -0.47015  -0.46779  -0.46513  -0.46474  -0.45869
 Alpha  occ. eigenvalues --   -0.44961  -0.44503  -0.44427  -0.44160  -0.43757
 Alpha  occ. eigenvalues --   -0.43538  -0.43382  -0.43188  -0.42904  -0.42742
 Alpha  occ. eigenvalues --   -0.42422  -0.41862  -0.41623  -0.41488  -0.41109
 Alpha  occ. eigenvalues --   -0.40883  -0.40843  -0.40759  -0.40428  -0.40350
 Alpha  occ. eigenvalues --   -0.39957  -0.39643  -0.39533  -0.39267  -0.39117
 Alpha  occ. eigenvalues --   -0.38298  -0.37744  -0.37556  -0.37199  -0.36478
 Alpha  occ. eigenvalues --   -0.35520  -0.35173  -0.34898  -0.34300  -0.33934
 Alpha  occ. eigenvalues --   -0.33425  -0.32791  -0.32283  -0.31532  -0.30713
 Alpha  occ. eigenvalues --   -0.30619  -0.27583  -0.24342  -0.20021
 Alpha virt. eigenvalues --   -0.06235  -0.01403   0.02713   0.06732   0.08430
 Alpha virt. eigenvalues --    0.09334   0.09568   0.09965   0.11529   0.12174
 Alpha virt. eigenvalues --    0.12604   0.12813   0.13201   0.13795   0.14397

 Mulliken charges:
               1
     1  O   -0.513931
     2  O   -0.540811
     3  O   -0.608516
     4  O   -0.503939
     5  C    0.188493
     6  C    0.250959
     7  C    0.031415
     8  C   -0.218157
     9  C   -0.174961
    10  C    0.144149
    11  C   -0.349575
    12  C   -0.108323
    13  C   -0.319373
    14  C   -0.309031
    15  C   -0.125269
    16  C    0.103850
    17  C   -0.366840
    18  C   -0.106116
    19  C   -0.044155
    20  C   -0.002758
    21  C    0.251597
    22  C   -0.189672
    23  C    0.137792
    24  C   -0.205371
    25  C   -0.080248
    26  C   -0.299293
    27  C   -0.280787
    28  C   -0.285036
    29  C   -0.137915
    30  C    0.129342
    31  C    0.095192
    32  C   -0.266124
    33  C   -0.381663
    34  C   -0.087720
    35  C    0.106040
    36  C   -0.391530
    37  C   -0.104419
    38  C   -0.093110
    39  C   -0.079997
    40  C   -0.094376
    41  C   -0.088486
    42  C   -0.107027
    43  C    0.089210
    44  C   -0.364372
    45  H    0.092642
    46  H    0.135605
    47  H    0.115804
    48  H    0.088123
    49  H    0.065382
    50  H    0.109365
    51  H    0.093895
    52  H    0.128229
    53  H    0.119510
    54  H    0.106671
    55  H    0.107657
    56  H    0.102807
    57  H    0.116217
    58  H    0.111236
    59  H    0.097919
    60  H    0.300572
    61  H    0.083338
    62  H    0.108470
    63  H    0.106412
    64  H    0.113990
    65  H    0.071717
    66  H    0.085238
    67  H    0.046530
    68  H    0.109935
    69  H    0.080655
    70  H    0.099590
    71  H    0.114662
    72  H    0.088315
    73  H    0.118189
    74  H    0.102250
    75  H    0.129418
    76  H    0.105967
    77  H    0.099307
    78  H    0.128559
    79  H    0.078764
    80  H    0.130277
    81  H    0.065741
    82  H    0.308058
    83  H    0.307076
    84  H    0.112262
    85  H    0.126918
    86  H    0.143578
    87  H    0.093558
    88  H    0.063513
    89  H    0.100501
    90  H    0.141670
    91  H    0.131604
    92  H    0.077679
    93  H    0.053269
    94  H    0.077600
    95  H    0.081362
    96  H    0.070731
    97  H    0.086278
    98  H    0.126271
    99  H    0.113927
   100  H    0.126051
 Sum of Mulliken charges =  -0.00000

 Dipole moment (field-independent basis, Debye):
    X=              5.4740    Y=             -1.0475    Z=              2.4483  Tot=              6.0873
 Quadrupole moment (field-independent basis, Debye-Ang):
   XX=           -278.6825   YY=           -258.2025   ZZ=           -280.6837
   XY=              0.3893   XZ=             36.2855   YZ=             -1.2371

 Normal termination of Gaussian 16 at Mon Jul 29 12:51:48 2019.
