 Gaussian 16, Revision A.03,
 Gaussian 16:  ES64L-G16RevA.03 25-Dec-2016

 -------------------------------------
 # td=(NStates=1) CAM-B3LYP/6-31G(d,p)
 -------------------------------------

 --
 TD
 --
 Symbolic Z-matrix:
 Charge =  0 Multiplicity = 1

                         Standard orientation:
 ---------------------------------------------------------------------
 Center     Atomic      Atomic             Coordinates (Angstroms)
 Number     Number       Type             X           Y           Z
 ---------------------------------------------------------------------
      1          8           0       11.787354    0.504395    1.366965
      2          8           0       12.850336   -2.737130   -0.924008
      3          8           0      -10.506126   -0.582619    2.221882
      4          8           0      -14.375641   -1.250253    0.397611
      5          6           0       11.040304   -0.095463    0.333469
      6          6           0       11.776441   -0.946178    1.365337
      7          6           0       11.692328    0.153672   -1.097195
      8          6           0       13.088296   -1.563023    1.228842
      9          6           0       13.102854   -0.412055   -1.084349
     10          6           0       13.416759   -1.611612   -0.357675
     11          6           0       10.898772   -1.511918    2.576485
     12          6           0        9.562752    0.119023    0.369431
     13          6           0       10.932830   -0.829616   -2.157473
     14          6           0       11.543170    1.494819   -1.459858
     15          6           0        8.605795   -0.743486    0.010455
     16          6           0        7.126957   -0.568114   -0.045142
     17          6           0        6.132139   -1.649126   -0.200719
     18          6           0        6.628905    0.706982    0.167932
     19          6           0        5.230841    0.956206    0.184153
     20          6           0      -11.893774   -0.276683   -1.249227
     21          6           0      -11.628107   -0.435244    1.366042
     22          6           0      -12.563559   -1.563583   -1.244745
     23          6           0      -13.242196   -2.004194    0.093783
     24          6           0      -12.242993   -1.782876    1.291346
     25          6           0      -11.070090    0.088108   -0.047636
     26          6           0      -11.014483   -0.237404   -2.524543
     27          6           0      -13.035989    0.861088   -1.316286
     28          6           0      -12.574949    0.643890    2.008190
     29          6           0        4.691737    2.278257    0.292683
     30          6           0       -9.857954    0.558843   -0.001350
     31          6           0        3.336988    2.722063    0.383531
     32          6           0       -8.596543    1.021407   -0.088775
     33          6           0        3.092927    4.129971    0.489803
     34          6           0        2.325195    1.785649    0.295994
     35          6           0       -7.391228    0.123350   -0.179060
     36          6           0       -7.669072   -1.222306   -0.248703
     37          6           0       -6.187435    0.782540   -0.144712
     38          6           0        0.918108    2.067545    0.130080
     39          6           0       -4.903698    0.223847   -0.264573
     40          6           0       -0.071473    1.108668   -0.028111
     41          6           0       -3.701929    0.944442   -0.223345
     42          6           0       -1.426189    1.358641   -0.135254
     43          6           0       -2.386947    0.388092   -0.266445
     44          6           0       -2.108205   -0.982868   -0.631190
     45          1           0       13.077487   -2.537109    1.434467
     46          1           0       13.896939   -1.218650    1.906099
     47          1           0       13.578715   -0.563875   -2.092412
     48          1           0       13.726117    0.284307   -0.716522
     49          1           0       14.637676   -1.596868   -0.284075
     50          1           0       10.734339   -2.629515    2.467420
     51          1           0       11.596201   -1.218036    3.488250
     52          1           0       10.129505   -1.002488    2.753974
     53          1           0        9.530251    1.111556    0.613677
     54          1           0        9.849821   -0.368801   -2.184234
     55          1           0       11.316547   -0.591329   -3.140178
     56          1           0       11.076183   -1.965275   -1.881174
     57          1           0       12.164079    2.018834   -0.723458
     58          1           0       12.095657    1.727359   -2.480801
     59          1           0       10.436877    2.031034   -1.448978
     60          1           0       11.990642   -2.785756   -0.707262
     61          1           0        8.842322   -1.713564   -0.364013
     62          1           0        5.695566   -1.913475    0.762733
     63          1           0        5.465813   -1.444464   -1.027629
     64          1           0        6.513724   -2.669124   -0.456688
     65          1           0        7.463082    1.383461    0.242713
     66          1           0        4.634182    0.138758    0.070010
     67          1           0      -13.353363   -1.548576   -2.013105
     68          1           0      -11.849195   -2.272179   -1.380087
     69          1           0      -13.487546   -3.060019    0.017155
     70          1           0      -12.809561   -2.215464    2.137654
     71          1           0      -11.584413   -2.543371    0.815607
     72          1           0      -11.838452   -0.108836   -3.386429
     73          1           0      -10.393384    0.609349   -2.643029
     74          1           0      -10.276622   -1.248118   -2.691403
     75          1           0      -13.786850    0.877813   -0.564520
     76          1           0      -12.328875    1.866309   -1.727092
     77          1           0      -13.712475    0.629166   -2.181270
     78          1           0      -12.865621    0.158724    2.918896
     79          1           0      -12.244916    1.701140    2.163743
     80          1           0      -13.682191    0.733976    1.509710
     81          1           0        5.390343    3.227415    0.254842
     82          1           0       -9.998379    0.223571    2.422426
     83          1           0      -14.834910   -1.336782   -0.407372
     84          1           0       -8.435224    2.153925    0.053618
     85          1           0        2.608419    4.513140   -0.352529
     86          1           0        2.400019    4.415464    1.298948
     87          1           0        4.032818    4.698356    0.468277
     88          1           0        2.491510    0.760865    0.077320
     89          1           0       -6.791271   -1.903105    0.018924
     90          1           0       -8.365271   -1.788124    0.432989
     91          1           0       -8.184498   -1.411057   -1.233476
     92          1           0       -6.410901    1.846713   -0.021797
     93          1           0        0.642745    3.079716    0.112888
     94          1           0       -4.937883   -0.789695    0.080802
     95          1           0        0.366181    0.068774    0.009296
     96          1           0       -3.962310    1.904010   -0.221273
     97          1           0       -1.711152    2.484549   -0.334318
     98          1           0       -0.977640   -1.291812   -1.256626
     99          1           0       -1.964109   -1.554751    0.454757
    100          1           0       -3.107843   -1.321328   -1.112168
 ---------------------------------------------------------------------

 SCF Done:  E(RCAM-B3LYP) =  -1857.26959202     A.U. after   15 cycles

 Excitation energies and oscillator strengths:

 Excited State   1:      Singlet-A      2.1357 eV  580.52 nm  f=2.9296  <S**2>=0.000
     163 ->166        -0.13986
     164 ->165         0.69375
 This state for optimization and/or second-order correction.
 Total Energy, E(TD-HF/TD-DFT) =  -1857.19110468
 Copying the excited state density for this state as the 1-particle RhoCI density.

 The electronic state is 1-A.
 Alpha  occ. eigenvalues --  -19.22153 -19.22120 -19.21433 -19.20043 -10.32604
 Alpha  occ. eigenvalues --  -10.31963 -10.31852 -10.31682 -10.31190 -10.29448
 Alpha  occ. eigenvalues --  -10.28159 -10.27803 -10.27639 -10.27355 -10.27066
 Alpha  occ. eigenvalues --  -10.27060 -10.27035 -10.27017 -10.27005 -10.26916
 Alpha  occ. eigenvalues --  -10.26692 -10.26668 -10.26525 -10.26452 -10.26450
 Alpha  occ. eigenvalues --  -10.26450 -10.26107 -10.25982 -10.25800 -10.25770
 Alpha  occ. eigenvalues --  -10.25642 -10.25639 -10.25617 -10.25574 -10.25522
 Alpha  occ. eigenvalues --  -10.25464 -10.25458 -10.25237 -10.25090 -10.24968
 Alpha  occ. eigenvalues --  -10.24947 -10.24825 -10.24726 -10.23333  -1.15177
 Alpha  occ. eigenvalues --   -1.13266  -1.12823  -1.08805  -0.93524  -0.92729
 Alpha  occ. eigenvalues --   -0.92211  -0.91698  -0.91222  -0.90717  -0.87355
 Alpha  occ. eigenvalues --   -0.87000  -0.86001  -0.85497  -0.85039  -0.83239
 Alpha  occ. eigenvalues --   -0.82193  -0.81334  -0.80154  -0.78805  -0.77531
 Alpha  occ. eigenvalues --   -0.76854  -0.76629  -0.75895  -0.75580  -0.75103
 Alpha  occ. eigenvalues --   -0.75040  -0.74671  -0.72706  -0.70381  -0.70042
 Alpha  occ. eigenvalues --   -0.69072  -0.67369  -0.66373  -0.65299  -0.64108
 Alpha  occ. eigenvalues --   -0.63344  -0.62130  -0.61271  -0.60497  -0.60300
 Alpha  occ. eigenvalues --   -0.59180  -0.58944  -0.58272  -0.57991  -0.57320
 Alpha  occ. eigenvalues --   -0.56184  -0.55659  -0.55152  -0.54629  -0.54299
 Alpha  occ. eigenvalues --   -0.54029  -0.53663  -0.53033  -0.52376  -0.52204
 Alpha  occ. eigenvalues --   -0.51854  -0.51542  -0.51299  -0.50721  -0.50318
 Alpha  occ. eigenvalues --   -0.49656  -0.49474  -0.49204  -0.48924  -0.48550
 Alpha  occ. eigenvalues --   -0.48093  -0.47991  -0.47860  -0.47282  -0.46924
 Alpha  occ. eigenvalues --   -0.46584  -0.46236  -0.46193  -0.45235  -0.45057
 Alpha  occ. eigenvalues --   -0.44796  -0.44753  -0.44483  -0.43936  -0.43901
 Alpha  occ. eigenvalues --   -0.43658  -0.43449  -0.42917  -0.42674  -0.42633
 Alpha  occ. eigenvalues --   -0.42470  -0.41985  -0.41833  -0.41509  -0.41414
 Alpha  occ. eigenvalues --   -0.41277  -0.41103  -0.40757  -0.40533  -0.40184
 Alpha  occ. eigenvalues --   -0.39970  -0.39508  -0.39399  -0.39156  -0.38699
 Alpha  occ. eigenvalues --   -0.37923  -0.37576  -0.36786  -0.36481  -0.36114
 Alpha  occ. eigenvalues --   -0.35499  -0.34725  -0.34285  -0.33768  -0.33486
 Alpha  occ. eigenvalues --   -0.33282  -0.32294  -0.31471  -0.31236  -0.30603
 Alpha  occ. eigenvalues --   -0.29603  -0.27737  -0.23881  -0.19523
 Alpha virt. eigenvalues --   -0.05998  -0.00762   0.03330   0.06583   0.06927
 Alpha virt. eigenvalues --    0.09395   0.09697   0.11172   0.11468   0.11674
 Alpha virt. eigenvalues --    0.12216   0.12353   0.13409   0.13511   0.13665

 Mulliken charges:
               1
     1  O   -0.509741
     2  O   -0.507787
     3  O   -0.575665
     4  O   -0.512802
     5  C    0.183441
     6  C    0.199503
     7  C    0.046099
     8  C   -0.219916
     9  C   -0.152871
    10  C    0.126034
    11  C   -0.293327
    12  C   -0.097118
    13  C   -0.297958
    14  C   -0.321590
    15  C   -0.072552
    16  C    0.058734
    17  C   -0.398169
    18  C   -0.069800
    19  C   -0.086531
    20  C    0.029865
    21  C    0.297160
    22  C   -0.192676
    23  C    0.110404
    24  C   -0.184373
    25  C   -0.091711
    26  C   -0.293251
    27  C   -0.299743
    28  C   -0.322566
    29  C   -0.131687
    30  C    0.167996
    31  C    0.131010
    32  C   -0.306076
    33  C   -0.398239
    34  C   -0.120996
    35  C    0.177197
    36  C   -0.414320
    37  C   -0.116463
    38  C   -0.081526
    39  C   -0.130593
    40  C   -0.086023
    41  C   -0.079770
    42  C   -0.122235
    43  C    0.129682
    44  C   -0.352213
    45  H    0.121317
    46  H    0.116467
    47  H    0.099870
    48  H    0.099738
    49  H    0.073215
    50  H    0.095728
    51  H    0.090224
    52  H    0.122264
    53  H    0.108432
    54  H    0.091461
    55  H    0.105371
    56  H    0.068797
    57  H    0.123905
    58  H    0.090060
    59  H    0.091688
    60  H    0.297150
    61  H    0.078615
    62  H    0.137392
    63  H    0.134218
    64  H    0.097616
    65  H    0.078756
    66  H    0.093577
    67  H    0.086155
    68  H    0.102733
    69  H    0.084011
    70  H    0.121131
    71  H    0.102082
    72  H    0.077976
    73  H    0.123123
    74  H    0.079724
    75  H    0.136783
    76  H    0.075959
    77  H    0.075067
    78  H    0.114005
    79  H    0.100237
    80  H    0.106861
    81  H    0.070300
    82  H    0.307337
    83  H    0.294861
    84  H    0.101558
    85  H    0.136586
    86  H    0.130376
    87  H    0.109399
    88  H    0.075763
    89  H    0.098647
    90  H    0.143646
    91  H    0.119977
    92  H    0.070390
    93  H    0.069278
    94  H    0.087437
    95  H    0.074269
    96  H    0.078226
    97  H    0.087147
    98  H    0.097480
    99  H    0.103301
   100  H    0.125480
 Sum of Mulliken charges =  -0.00000

 Dipole moment (field-independent basis, Debye):
    X=             -3.0781    Y=             -0.5576    Z=             -1.6391  Tot=              3.5316
 Quadrupole moment (field-independent basis, Debye-Ang):
   XX=           -268.5214   YY=           -257.2374   ZZ=           -280.0925
   XY=              9.7463   XZ=             25.2320   YZ=             -0.7086

 Normal termination of Gaussian 16 at Wed Jul 31 04:40:16 2019.
