 Gaussian 16, Revision A.03,
 Gaussian 16:  ES64L-G16RevA.03 25-Dec-2016

 -------------------------------------
 # td=(NStates=1) CAM-B3LYP/6-31G(d,p)
 -------------------------------------

 --
 TD
 --
 Symbolic Z-matrix:
 Charge =  0 Multiplicity = 1

                         Standard orientation:
 ---------------------------------------------------------------------
 Center     Atomic      Atomic             Coordinates (Angstroms)
 Number     Number       Type             X           Y           Z
 ---------------------------------------------------------------------
      1          8           0      -11.782578    0.324611   -1.565185
      2          8           0      -13.075564   -2.469813    1.414043
      3          8           0       10.739688   -0.896307   -2.166199
      4          8           0       14.439977   -1.048960   -0.153867
      5          6           0      -11.090392   -0.088579   -0.372534
      6          6           0      -11.720640   -1.043042   -1.275838
      7          6           0      -11.744887    0.401615    0.898724
      8          6           0      -13.116896   -1.751185   -0.864755
      9          6           0      -13.333399   -0.027885    0.991358
     10          6           0      -13.564443   -1.431323    0.529660
     11          6           0      -10.873288   -1.834205   -2.327374
     12          6           0       -9.560575    0.094865   -0.532992
     13          6           0      -11.066662   -0.145135    2.226499
     14          6           0      -11.605111    1.953766    1.059094
     15          6           0       -8.717655   -0.724218    0.045892
     16          6           0       -7.253658   -0.611464    0.003523
     17          6           0       -6.449295   -1.822795    0.427852
     18          6           0       -6.649687    0.631204   -0.106829
     19          6           0       -5.224701    0.824198   -0.156911
     20          6           0       11.936486   -0.070518    1.376096
     21          6           0       11.697952   -0.504907   -1.235303
     22          6           0       12.667254   -1.407417    1.395020
     23          6           0       13.401105   -1.852566    0.095391
     24          6           0       12.422796   -1.792424   -0.992165
     25          6           0       11.083461    0.033106    0.056384
     26          6           0       10.966744    0.002097    2.479580
     27          6           0       12.860277    1.168975    1.386328
     28          6           0       12.416875    0.536099   -2.056862
     29          6           0       -4.724357    2.089050   -0.358721
     30          6           0        9.883188    0.518030    0.046969
     31          6           0       -3.372084    2.448351   -0.340204
     32          6           0        8.659488    1.029573   -0.076015
     33          6           0       -2.975102    3.882460   -0.567481
     34          6           0       -2.336609    1.485171   -0.090492
     35          6           0        7.488544    0.263566   -0.042816
     36          6           0        7.731545   -1.208785    0.332928
     37          6           0        6.299374    0.785142   -0.098060
     38          6           0       -0.932790    1.793223   -0.307247
     39          6           0        5.052440    0.184509    0.128201
     40          6           0        0.011474    0.833535   -0.041033
     41          6           0        3.826666    0.839451    0.008898
     42          6           0        1.412902    1.133294   -0.164043
     43          6           0        2.565787    0.294046    0.071551
     44          6           0        2.367922   -1.153815    0.218437
     45          1           0      -12.951975   -2.834548   -0.914032
     46          1           0      -13.959183   -1.398599   -1.529228
     47          1           0      -13.682755    0.217502    1.964821
     48          1           0      -13.892293    0.491765    0.260218
     49          1           0      -14.621108   -1.698750    0.742821
     50          1           0      -10.619588   -2.799138   -1.890175
     51          1           0      -11.541526   -1.844209   -3.160956
     52          1           0       -9.877934   -1.190030   -2.544352
     53          1           0       -9.298002    0.989389   -0.843499
     54          1           0      -10.021888    0.274387    2.238549
     55          1           0      -11.654000    0.315745    2.981754
     56          1           0      -11.119625   -1.277652    2.130910
     57          1           0      -11.932893    2.286842    0.016685
     58          1           0      -12.141894    2.272125    1.741306
     59          1           0      -10.581615    2.201055    0.798890
     60          1           0      -12.223388   -2.877796    0.940550
     61          1           0       -9.078133   -1.659773    0.523498
     62          1           0       -5.862844   -2.152037   -0.456945
     63          1           0       -5.724214   -1.563556    1.270234
     64          1           0       -7.177989   -2.703152    0.953718
     65          1           0       -7.118999    1.520203   -0.338777
     66          1           0       -4.650639   -0.022182    0.175616
     67          1           0       13.443539   -1.261342    2.318007
     68          1           0       11.873349   -2.187173    1.646333
     69          1           0       13.738909   -2.974195    0.121359
     70          1           0       12.950296   -2.166823   -2.055442
     71          1           0       11.659602   -2.593641   -0.760887
     72          1           0       11.494745    0.052953    3.423489
     73          1           0       10.442205    0.920899    2.568097
     74          1           0       10.148236   -0.733463    2.360567
     75          1           0       13.777898    1.223363    0.798565
     76          1           0       12.396975    2.146931    1.591206
     77          1           0       13.201931    1.215087    2.538418
     78          1           0       12.806971    0.203107   -2.950430
     79          1           0       11.860355    1.341782   -2.330576
     80          1           0       13.329531    1.032516   -1.276867
     81          1           0       -5.154271    2.939038   -0.843767
     82          1           0       10.051271   -0.246897   -2.248191
     83          1           0       15.108227   -0.796647    0.615117
     84          1           0        8.354683    2.042943   -0.479062
     85          1           0       -2.531964    4.404516    0.336302
     86          1           0       -2.252366    3.978216   -1.498549
     87          1           0       -3.838522    4.333725   -0.823969
     88          1           0       -2.699718    0.469383   -0.041517
     89          1           0        6.854463   -1.791356    0.242277
     90          1           0        8.591296   -1.603962   -0.211927
     91          1           0        8.231006   -1.326534    1.393759
     92          1           0        6.383623    1.894895   -0.213672
     93          1           0       -0.542654    2.792245   -0.582676
     94          1           0        5.149195   -0.832521    0.393203
     95          1           0       -0.288959   -0.200799   -0.013007
     96          1           0        3.593175    1.831915   -0.212396
     97          1           0        1.586834    2.232950   -0.327814
     98          1           0        1.349559   -1.265761    0.281400
     99          1           0        2.679849   -1.705594   -0.720419
    100          1           0        2.770735   -1.723941    1.046882
 ---------------------------------------------------------------------

 SCF Done:  E(RCAM-B3LYP) =  -1857.35386856     A.U. after   15 cycles

 Excitation energies and oscillator strengths:

 Excited State   1:      Singlet-A      2.1209 eV  584.59 nm  f=3.0606  <S**2>=0.000
     163 ->166        -0.13643
     164 ->165         0.69465
 This state for optimization and/or second-order correction.
 Total Energy, E(TD-HF/TD-DFT) =  -1857.27592776
 Copying the excited state density for this state as the 1-particle RhoCI density.

 The electronic state is 1-A.
 Alpha  occ. eigenvalues --  -19.22240 -19.22162 -19.21026 -19.19765 -10.32459
 Alpha  occ. eigenvalues --  -10.31539 -10.31257 -10.31103 -10.30158 -10.28506
 Alpha  occ. eigenvalues --  -10.28351 -10.27881 -10.27393 -10.27378 -10.27309
 Alpha  occ. eigenvalues --  -10.27260 -10.27239 -10.27180 -10.27179 -10.27133
 Alpha  occ. eigenvalues --  -10.26937 -10.26899 -10.26748 -10.26718 -10.26665
 Alpha  occ. eigenvalues --  -10.26608 -10.26510 -10.26449 -10.26246 -10.26116
 Alpha  occ. eigenvalues --  -10.26104 -10.26012 -10.25910 -10.25744 -10.25510
 Alpha  occ. eigenvalues --  -10.25158 -10.25109 -10.25095 -10.24671 -10.24423
 Alpha  occ. eigenvalues --  -10.24171 -10.24115 -10.23653 -10.23034  -1.16267
 Alpha  occ. eigenvalues --   -1.11547  -1.10696  -1.07342  -0.93753  -0.92723
 Alpha  occ. eigenvalues --   -0.92501  -0.91471  -0.90856  -0.89440  -0.87721
 Alpha  occ. eigenvalues --   -0.86564  -0.86140  -0.85583  -0.84997  -0.82829
 Alpha  occ. eigenvalues --   -0.82111  -0.80734  -0.80176  -0.78359  -0.77426
 Alpha  occ. eigenvalues --   -0.76918  -0.76678  -0.76616  -0.76324  -0.75798
 Alpha  occ. eigenvalues --   -0.75619  -0.74206  -0.73540  -0.71029  -0.70215
 Alpha  occ. eigenvalues --   -0.68947  -0.67437  -0.65496  -0.64866  -0.64595
 Alpha  occ. eigenvalues --   -0.63719  -0.62874  -0.61214  -0.60548  -0.60250
 Alpha  occ. eigenvalues --   -0.59433  -0.58544  -0.58078  -0.57233  -0.56513
 Alpha  occ. eigenvalues --   -0.56158  -0.55739  -0.55575  -0.55284  -0.55133
 Alpha  occ. eigenvalues --   -0.53647  -0.53272  -0.53151  -0.52612  -0.51927
 Alpha  occ. eigenvalues --   -0.51820  -0.51341  -0.50978  -0.50378  -0.50196
 Alpha  occ. eigenvalues --   -0.49437  -0.49218  -0.49141  -0.48576  -0.48417
 Alpha  occ. eigenvalues --   -0.48210  -0.47996  -0.47305  -0.47218  -0.47012
 Alpha  occ. eigenvalues --   -0.46768  -0.46709  -0.46322  -0.45856  -0.45501
 Alpha  occ. eigenvalues --   -0.45401  -0.45054  -0.44850  -0.44684  -0.44121
 Alpha  occ. eigenvalues --   -0.43778  -0.43598  -0.42887  -0.42858  -0.42642
 Alpha  occ. eigenvalues --   -0.42502  -0.42365  -0.41625  -0.41355  -0.41020
 Alpha  occ. eigenvalues --   -0.40785  -0.40717  -0.40326  -0.40265  -0.40213
 Alpha  occ. eigenvalues --   -0.39531  -0.39497  -0.39376  -0.39305  -0.38780
 Alpha  occ. eigenvalues --   -0.38583  -0.38346  -0.38058  -0.37200  -0.37025
 Alpha  occ. eigenvalues --   -0.36019  -0.35375  -0.35025  -0.34301  -0.33867
 Alpha  occ. eigenvalues --   -0.32292  -0.31973  -0.31588  -0.30900  -0.30483
 Alpha  occ. eigenvalues --   -0.30259  -0.28457  -0.24410  -0.19648
 Alpha virt. eigenvalues --   -0.06303  -0.01175   0.03361   0.06042   0.06589
 Alpha virt. eigenvalues --    0.08679   0.09004   0.10096   0.11752   0.11976
 Alpha virt. eigenvalues --    0.12742   0.13212   0.13662   0.13822   0.14081

 Mulliken charges:
               1
     1  O   -0.497257
     2  O   -0.567057
     3  O   -0.558505
     4  O   -0.539575
     5  C    0.188518
     6  C    0.215900
     7  C   -0.006630
     8  C   -0.242014
     9  C   -0.178196
    10  C    0.170289
    11  C   -0.313091
    12  C   -0.101006
    13  C   -0.278041
    14  C   -0.294305
    15  C   -0.054350
    16  C    0.061476
    17  C   -0.374357
    18  C   -0.086511
    19  C   -0.080750
    20  C    0.049973
    21  C    0.264965
    22  C   -0.196161
    23  C    0.201415
    24  C   -0.178202
    25  C   -0.104302
    26  C   -0.320986
    27  C   -0.311279
    28  C   -0.259657
    29  C   -0.098598
    30  C    0.162116
    31  C    0.053154
    32  C   -0.300593
    33  C   -0.359806
    34  C   -0.111298
    35  C    0.149443
    36  C   -0.379470
    37  C   -0.092661
    38  C   -0.091588
    39  C   -0.116362
    40  C   -0.067579
    41  C   -0.073755
    42  C   -0.160697
    43  C    0.106208
    44  C   -0.374642
    45  H    0.104717
    46  H    0.120347
    47  H    0.103658
    48  H    0.110495
    49  H    0.097543
    50  H    0.099461
    51  H    0.124287
    52  H    0.113726
    53  H    0.091440
    54  H    0.098955
    55  H    0.100286
    56  H    0.090490
    57  H    0.105218
    58  H    0.099753
    59  H    0.103214
    60  H    0.289854
    61  H    0.074264
    62  H    0.132327
    63  H    0.126345
    64  H    0.088147
    65  H    0.081088
    66  H    0.089771
    67  H    0.061686
    68  H    0.093258
    69  H    0.058108
    70  H    0.089994
    71  H    0.111341
    72  H    0.095353
    73  H    0.119084
    74  H    0.108276
    75  H    0.123895
    76  H    0.118402
    77  H    0.057223
    78  H    0.118263
    79  H    0.100082
    80  H    0.051164
    81  H    0.083812
    82  H    0.298243
    83  H    0.320394
    84  H    0.100876
    85  H    0.128976
    86  H    0.108591
    87  H    0.107031
    88  H    0.080881
    89  H    0.105817
    90  H    0.127458
    91  H    0.102649
    92  H    0.065669
    93  H    0.095041
    94  H    0.087735
    95  H    0.092377
    96  H    0.069216
    97  H    0.076425
    98  H    0.106794
    99  H    0.117654
   100  H    0.118667
 Sum of Mulliken charges =  -0.00000

 Dipole moment (field-independent basis, Debye):
    X=              1.8353    Y=              0.3169    Z=              1.1973  Tot=              2.2141
 Quadrupole moment (field-independent basis, Debye-Ang):
   XX=           -277.7788   YY=           -259.0729   ZZ=           -280.4708
   XY=              8.0736   XZ=             36.7688   YZ=             -0.4174

 Normal termination of Gaussian 16 at Fri Aug  2 10:14:28 2019.
