 Gaussian 16, Revision A.03,
 Gaussian 16:  ES64L-G16RevA.03 25-Dec-2016

 -------------------------------------
 # td=(NStates=1) CAM-B3LYP/6-31G(d,p)
 -------------------------------------

 --
 TD
 --
 Symbolic Z-matrix:
 Charge =  0 Multiplicity = 1

                         Standard orientation:
 ---------------------------------------------------------------------
 Center     Atomic      Atomic             Coordinates (Angstroms)
 Number     Number       Type             X           Y           Z
 ---------------------------------------------------------------------
      1          8           0      -11.721966    0.345716   -1.505504
      2          8           0      -13.020098   -2.393911    1.417690
      3          8           0       10.782189   -1.272525   -2.037547
      4          8           0       14.473882   -0.973305   -0.031773
      5          6           0      -11.091966   -0.054678   -0.302162
      6          6           0      -11.615455   -1.143789   -1.231688
      7          6           0      -11.896141    0.388232    0.935728
      8          6           0      -13.057705   -1.763043   -0.997557
      9          6           0      -13.336732   -0.023286    0.868833
     10          6           0      -13.540253   -1.473459    0.433117
     11          6           0      -10.759964   -1.833142   -2.259115
     12          6           0       -9.678869    0.125713   -0.226736
     13          6           0      -11.268164   -0.091745    2.173994
     14          6           0      -11.791684    1.961727    1.040912
     15          6           0       -8.751855   -0.699031    0.243332
     16          6           0       -7.280430   -0.524635    0.176527
     17          6           0       -6.505464   -1.773244    0.600409
     18          6           0       -6.587225    0.616808   -0.183947
     19          6           0       -5.287383    0.907008   -0.156426
     20          6           0       11.992320    0.369436    1.257029
     21          6           0       11.783102   -0.734942   -1.226400
     22          6           0       12.680863   -1.015404    1.586126
     23          6           0       13.455364   -1.744626    0.444012
     24          6           0       12.494235   -1.963376   -0.706473
     25          6           0       11.170926    0.116211   -0.076507
     26          6           0       11.059717    0.688678    2.451549
     27          6           0       13.006675    1.390899    1.151527
     28          6           0       12.591766    0.096225   -2.133960
     29          6           0       -4.620756    2.064992   -0.571777
     30          6           0        9.882945    0.481062   -0.094849
     31          6           0       -3.281948    2.353233   -0.507363
     32          6           0        8.582231    0.922969   -0.289207
     33          6           0       -2.988429    3.739447   -0.814862
     34          6           0       -2.285310    1.486906   -0.437243
     35          6           0        7.419222    0.078833   -0.008432
     36          6           0        7.479975   -1.279884    0.355408
     37          6           0        6.253379    0.664133   -0.168216
     38          6           0       -0.898961    1.819856   -0.389113
     39          6           0        4.931788    0.055523    0.004574
     40          6           0        0.031157    0.803793   -0.081909
     41          6           0        3.769353    0.780092   -0.176149
     42          6           0        1.451643    1.048970   -0.239262
     43          6           0        2.499520    0.234957    0.154852
     44          6           0        2.272554   -1.160356    0.639390
     45          1           0      -13.121236   -2.798727   -1.190905
     46          1           0      -13.647911   -1.362053   -1.750339
     47          1           0      -14.116476    0.066449    1.747205
     48          1           0      -13.682701    0.565669   -0.006187
     49          1           0      -14.648655   -1.695365    0.530679
     50          1           0      -10.465250   -2.684965   -1.674973
     51          1           0      -11.435856   -2.025533   -3.124693
     52          1           0       -9.837907   -1.388822   -2.591002
     53          1           0       -9.121487    1.045032   -0.671608
     54          1           0      -10.364389    0.667731    2.628922
     55          1           0      -11.989886    0.162052    3.202134
     56          1           0      -10.997537   -1.128683    2.056101
     57          1           0      -12.200751    2.382733    0.075705
     58          1           0      -12.610399    2.204336    1.803703
     59          1           0      -10.774232    2.308564    1.316524
     60          1           0      -12.226804   -2.536106    1.213495
     61          1           0       -8.994186   -1.793072    0.476499
     62          1           0       -6.047559   -2.209534   -0.245779
     63          1           0       -5.587895   -1.350430    1.047669
     64          1           0       -7.037652   -2.532700    1.204574
     65          1           0       -7.297408    1.520740   -0.269520
     66          1           0       -4.619490   -0.029841    0.127811
     67          1           0       13.479996   -0.787483    2.241626
     68          1           0       11.985511   -1.697748    2.326557
     69          1           0       13.874365   -2.631880    0.913781
     70          1           0       13.205378   -2.339290   -1.474220
     71          1           0       11.751386   -2.773575   -0.555012
     72          1           0       11.734703    0.800163    3.396405
     73          1           0       10.237379    1.590008    2.279580
     74          1           0       10.459773   -0.297210    2.704004
     75          1           0       13.624808    1.307762    0.116035
     76          1           0       12.288231    2.269333    1.086430
     77          1           0       13.817534    1.383056    1.922398
     78          1           0       12.962461   -0.649708   -2.803108
     79          1           0       11.929745    0.840262   -2.750893
     80          1           0       13.377442    0.591386   -1.347564
     81          1           0       -5.247747    2.943419   -0.770899
     82          1           0       10.107233   -0.686623   -2.337315
     83          1           0       15.001696   -1.054726    0.757499
     84          1           0        8.362558    1.852812   -0.857124
     85          1           0       -2.776423    4.278902    0.191421
     86          1           0       -2.039582    3.954767   -1.556511
     87          1           0       -3.904342    4.385636   -1.298898
     88          1           0       -2.311423    0.477742   -0.082214
     89          1           0        6.515598   -1.816728    0.263494
     90          1           0        8.092840   -1.924618   -0.432898
     91          1           0        8.014679   -1.489344    1.398693
     92          1           0        6.295283    1.832314   -0.421942
     93          1           0       -0.724488    2.918479   -0.883777
     94          1           0        4.998243   -0.948417    0.460436
     95          1           0       -0.336338   -0.163764   -0.037092
     96          1           0        3.962576    1.808302   -0.477230
     97          1           0        1.815616    2.135331   -0.543971
     98          1           0        1.150374   -1.327887    1.210790
     99          1           0        2.260893   -1.954342   -0.173415
    100          1           0        3.043414   -1.363979    1.458211
 ---------------------------------------------------------------------

 SCF Done:  E(RCAM-B3LYP) =  -1857.30480827     A.U. after   15 cycles

 Excitation energies and oscillator strengths:

 Excited State   1:      Singlet-A      2.2653 eV  547.32 nm  f=2.9889  <S**2>=0.000
     163 ->166        -0.13313
     164 ->165         0.69282
 This state for optimization and/or second-order correction.
 Total Energy, E(TD-HF/TD-DFT) =  -1857.22156021
 Copying the excited state density for this state as the 1-particle RhoCI density.

 The electronic state is 1-A.
 Alpha  occ. eigenvalues --  -19.23044 -19.21941 -19.20192 -19.19637 -10.33260
 Alpha  occ. eigenvalues --  -10.32568 -10.31344 -10.31262 -10.31159 -10.28623
 Alpha  occ. eigenvalues --  -10.28282 -10.28109 -10.28087 -10.27898 -10.27705
 Alpha  occ. eigenvalues --  -10.27660 -10.27628 -10.27490 -10.27245 -10.27224
 Alpha  occ. eigenvalues --  -10.27215 -10.27109 -10.26959 -10.26911 -10.26764
 Alpha  occ. eigenvalues --  -10.26682 -10.26404 -10.26370 -10.26313 -10.26290
 Alpha  occ. eigenvalues --  -10.26241 -10.26202 -10.26110 -10.26104 -10.26001
 Alpha  occ. eigenvalues --  -10.25961 -10.25860 -10.25745 -10.25588 -10.25485
 Alpha  occ. eigenvalues --  -10.25353 -10.25008 -10.24691 -10.24521  -1.14636
 Alpha  occ. eigenvalues --   -1.13695  -1.12364  -1.10241  -0.93501  -0.92656
 Alpha  occ. eigenvalues --   -0.92170  -0.92036  -0.91152  -0.90590  -0.87757
 Alpha  occ. eigenvalues --   -0.87085  -0.86736  -0.85985  -0.84301  -0.83221
 Alpha  occ. eigenvalues --   -0.82153  -0.81648  -0.80488  -0.77808  -0.77059
 Alpha  occ. eigenvalues --   -0.76772  -0.76297  -0.75582  -0.75392  -0.75037
 Alpha  occ. eigenvalues --   -0.74457  -0.74230  -0.72890  -0.70477  -0.69457
 Alpha  occ. eigenvalues --   -0.68727  -0.67052  -0.65781  -0.64590  -0.64176
 Alpha  occ. eigenvalues --   -0.63094  -0.61705  -0.60643  -0.59835  -0.59819
 Alpha  occ. eigenvalues --   -0.59274  -0.58893  -0.58456  -0.57471  -0.57355
 Alpha  occ. eigenvalues --   -0.56164  -0.55251  -0.55016  -0.54168  -0.53891
 Alpha  occ. eigenvalues --   -0.53409  -0.53083  -0.52389  -0.52143  -0.51599
 Alpha  occ. eigenvalues --   -0.51323  -0.50924  -0.50394  -0.50318  -0.49968
 Alpha  occ. eigenvalues --   -0.49586  -0.49143  -0.48894  -0.48805  -0.48660
 Alpha  occ. eigenvalues --   -0.48513  -0.48185  -0.47994  -0.47258  -0.47175
 Alpha  occ. eigenvalues --   -0.46882  -0.46618  -0.46192  -0.46085  -0.45312
 Alpha  occ. eigenvalues --   -0.45012  -0.44674  -0.44381  -0.44199  -0.43692
 Alpha  occ. eigenvalues --   -0.43070  -0.43049  -0.42433  -0.42165  -0.42114
 Alpha  occ. eigenvalues --   -0.41720  -0.41459  -0.41271  -0.41087  -0.40816
 Alpha  occ. eigenvalues --   -0.40456  -0.40158  -0.40063  -0.39972  -0.39961
 Alpha  occ. eigenvalues --   -0.39262  -0.38954  -0.38634  -0.38491  -0.38062
 Alpha  occ. eigenvalues --   -0.37897  -0.37773  -0.37419  -0.37181  -0.37165
 Alpha  occ. eigenvalues --   -0.36247  -0.35996  -0.35795  -0.34712  -0.33925
 Alpha  occ. eigenvalues --   -0.32740  -0.32397  -0.32000  -0.31539  -0.31011
 Alpha  occ. eigenvalues --   -0.29855  -0.28169  -0.24194  -0.19991
 Alpha virt. eigenvalues --   -0.05904  -0.00723   0.03294   0.06564   0.06786
 Alpha virt. eigenvalues --    0.09323   0.09721   0.10159   0.11225   0.11655
 Alpha virt. eigenvalues --    0.12463   0.12622   0.13108   0.13254   0.13528

 Mulliken charges:
               1
     1  O   -0.522019
     2  O   -0.512929
     3  O   -0.574711
     4  O   -0.498470
     5  C    0.252215
     6  C    0.164317
     7  C    0.030237
     8  C   -0.218866
     9  C   -0.178715
    10  C    0.123433
    11  C   -0.316777
    12  C   -0.112989
    13  C   -0.254172
    14  C   -0.311505
    15  C   -0.062610
    16  C    0.068881
    17  C   -0.390385
    18  C   -0.095138
    19  C   -0.077010
    20  C    0.039099
    21  C    0.269800
    22  C   -0.191515
    23  C    0.115998
    24  C   -0.182193
    25  C   -0.080515
    26  C   -0.295790
    27  C   -0.274816
    28  C   -0.256116
    29  C   -0.131351
    30  C    0.100392
    31  C    0.167660
    32  C   -0.274107
    33  C   -0.391113
    34  C   -0.126318
    35  C    0.188177
    36  C   -0.391307
    37  C   -0.123306
    38  C   -0.061403
    39  C   -0.112745
    40  C   -0.122978
    41  C   -0.103548
    42  C   -0.122878
    43  C    0.125179
    44  C   -0.365091
    45  H    0.114346
    46  H    0.139292
    47  H    0.103564
    48  H    0.112001
    49  H    0.093014
    50  H    0.108477
    51  H    0.117286
    52  H    0.135443
    53  H    0.103234
    54  H    0.071592
    55  H    0.072330
    56  H    0.080400
    57  H    0.112703
    58  H    0.100714
    59  H    0.108970
    60  H    0.274700
    61  H    0.064795
    62  H    0.136747
    63  H    0.121389
    64  H    0.116385
    65  H    0.071942
    66  H    0.065946
    67  H    0.066061
    68  H    0.074511
    69  H    0.081628
    70  H    0.104589
    71  H    0.120204
    72  H    0.089271
    73  H    0.101028
    74  H    0.091648
    75  H    0.098703
    76  H    0.098838
    77  H    0.095255
    78  H    0.115457
    79  H    0.078928
    80  H    0.094095
    81  H    0.080004
    82  H    0.298832
    83  H    0.307269
    84  H    0.114272
    85  H    0.123469
    86  H    0.102855
    87  H    0.095574
    88  H    0.074705
    89  H    0.113246
    90  H    0.111051
    91  H    0.108804
    92  H    0.060681
    93  H    0.076734
    94  H    0.085454
    95  H    0.098771
    96  H    0.092586
    97  H    0.076449
    98  H    0.084691
    99  H    0.130486
   100  H    0.116577
 Sum of Mulliken charges =  -0.00000

 Dipole moment (field-independent basis, Debye):
    X=              1.4965    Y=             -1.4021    Z=              0.9661  Tot=              2.2669
 Quadrupole moment (field-independent basis, Debye-Ang):
   XX=           -267.2260   YY=           -262.1847   ZZ=           -278.2521
   XY=              0.5327   XZ=             38.2267   YZ=             -1.9411

 Normal termination of Gaussian 16 at Wed Jul 31 00:33:47 2019.
