 Gaussian 16, Revision A.03,
 Gaussian 16:  ES64L-G16RevA.03 25-Dec-2016

 -------------------------------------
 # td=(NStates=1) CAM-B3LYP/6-31G(d,p)
 -------------------------------------

 --
 TD
 --
 Symbolic Z-matrix:
 Charge =  0 Multiplicity = 1

                         Standard orientation:
 ---------------------------------------------------------------------
 Center     Atomic      Atomic             Coordinates (Angstroms)
 Number     Number       Type             X           Y           Z
 ---------------------------------------------------------------------
      1          8           0      -11.614923    0.058685   -1.656460
      2          8           0      -13.042875   -2.197844    1.627456
      3          8           0       10.715440   -0.992503   -2.155586
      4          8           0       14.523418   -1.208041   -0.004575
      5          6           0      -11.003604   -0.285326   -0.392068
      6          6           0      -11.706631   -1.324902   -1.172484
      7          6           0      -11.641131    0.441081    0.749488
      8          6           0      -13.116767   -1.840999   -0.724023
      9          6           0      -13.150925    0.150625    0.757360
     10          6           0      -13.598088   -1.329432    0.609054
     11          6           0      -10.885055   -2.177007   -2.106169
     12          6           0       -9.592440   -0.072931   -0.417334
     13          6           0      -11.037801    0.097744    2.107411
     14          6           0      -11.609434    1.986600    0.664661
     15          6           0       -8.688827   -0.810518    0.228428
     16          6           0       -7.176792   -0.624986    0.226459
     17          6           0       -6.297102   -1.761813    0.683157
     18          6           0       -6.640732    0.624221   -0.131783
     19          6           0       -5.239582    0.805639   -0.370835
     20          6           0       11.879375    0.125750    1.253945
     21          6           0       11.662669   -0.529869   -1.242077
     22          6           0       12.613665   -1.246852    1.486736
     23          6           0       13.367473   -1.863444    0.356069
     24          6           0       12.373946   -1.936892   -0.813308
     25          6           0       11.087565    0.051538   -0.017193
     26          6           0       10.869171    0.435622    2.488332
     27          6           0       12.903455    1.229327    1.165445
     28          6           0       12.619974    0.367010   -2.096742
     29          6           0       -4.793728    2.062267   -0.586264
     30          6           0        9.839177    0.491821   -0.028929
     31          6           0       -3.370497    2.523720   -0.522420
     32          6           0        8.662258    0.883997   -0.165257
     33          6           0       -2.983607    3.980478   -0.740382
     34          6           0       -2.325683    1.558407   -0.241901
     35          6           0        7.459195    0.092940   -0.070165
     36          6           0        7.642072   -1.350711    0.122522
     37          6           0        6.279546    0.750650   -0.071912
     38          6           0       -1.035633    1.895055   -0.197353
     39          6           0        4.961864    0.117174    0.074227
     40          6           0       -0.058705    0.942775    0.035749
     41          6           0        3.746161    0.812911    0.038218
     42          6           0        1.332800    1.240880    0.024067
     43          6           0        2.417562    0.354191    0.138405
     44          6           0        2.243122   -1.171857    0.190121
     45          1           0      -13.140739   -2.903093   -0.723515
     46          1           0      -13.719790   -1.286477   -1.439493
     47          1           0      -13.677980    0.332861    1.751521
     48          1           0      -13.720398    0.800129    0.099409
     49          1           0      -14.592844   -1.649771    0.713515
     50          1           0      -10.517272   -3.068873   -1.693664
     51          1           0      -11.314762   -2.312748   -3.103896
     52          1           0      -10.026651   -1.682178   -2.299477
     53          1           0       -9.341385    0.578886   -1.259871
     54          1           0       -9.927477    0.426418    2.073541
     55          1           0      -11.626819    0.640650    2.919519
     56          1           0      -10.964929   -0.917188    2.363968
     57          1           0      -12.032541    2.712437   -0.287558
     58          1           0      -12.376071    2.325744    1.377101
     59          1           0      -10.586280    2.329014    0.841973
     60          1           0      -11.976179   -2.117046    1.619166
     61          1           0       -8.884609   -1.695436    0.905853
     62          1           0       -5.962181   -2.317910   -0.228119
     63          1           0       -5.442683   -1.541758    1.330675
     64          1           0       -6.988972   -2.452215    1.150919
     65          1           0       -7.459822    1.540799   -0.263379
     66          1           0       -4.488518   -0.097728   -0.269702
     67          1           0       13.320845   -0.886145    2.207143
     68          1           0       12.022956   -1.996548    2.064648
     69          1           0       13.396094   -2.890094    0.596125
     70          1           0       12.818326   -2.375393   -1.642938
     71          1           0       11.637109   -2.486214   -0.534122
     72          1           0       11.378572    0.693747    3.527859
     73          1           0       10.471551    1.246810    2.135760
     74          1           0       10.233285   -0.410675    2.845684
     75          1           0       13.594517    1.218209    0.636419
     76          1           0       12.480717    2.401481    0.812678
     77          1           0       13.440652    1.481310    1.926890
     78          1           0       12.812721   -0.191049   -3.042312
     79          1           0       12.286112    1.399025   -2.298408
     80          1           0       13.553133    0.462798   -1.532845
     81          1           0       -5.406278    2.776948   -0.689498
     82          1           0       10.036222   -0.125169   -1.990177
     83          1           0       14.991383   -0.888994    0.846284
     84          1           0        8.525740    2.037457   -0.295803
     85          1           0       -2.257178    4.344066    0.023818
     86          1           0       -2.491224    3.906726   -1.592122
     87          1           0       -3.625381    4.647925   -1.030183
     88          1           0       -2.701898    0.592031   -0.011795
     89          1           0        6.628352   -2.010875    0.086446
     90          1           0        8.367286   -1.787087   -0.387118
     91          1           0        7.879238   -1.470357    1.298263
     92          1           0        6.201967    1.912996   -0.125090
     93          1           0       -0.725828    2.877116   -0.120159
     94          1           0        5.019568   -0.869803    0.387825
     95          1           0       -0.427714   -0.112199   -0.219609
     96          1           0        3.978265    1.936568   -0.222822
     97          1           0        1.826485    2.271328    0.235078
     98          1           0        1.199486   -1.514306    0.455974
     99          1           0        2.379789   -1.708121   -0.999477
    100          1           0        3.225833   -1.579708    0.834895
 ---------------------------------------------------------------------

 SCF Done:  E(RCAM-B3LYP) =  -1857.21496768     A.U. after   15 cycles

 Excitation energies and oscillator strengths:

 Excited State   1:      Singlet-A      2.1956 eV  564.69 nm  f=2.8457  <S**2>=0.000
     163 ->166        -0.13127
     164 ->165         0.69535
 This state for optimization and/or second-order correction.
 Total Energy, E(TD-HF/TD-DFT) =  -1857.13427991
 Copying the excited state density for this state as the 1-particle RhoCI density.

 The electronic state is 1-A.
 Alpha  occ. eigenvalues --  -19.22997 -19.21679 -19.21033 -19.20688 -10.32493
 Alpha  occ. eigenvalues --  -10.31144 -10.30841 -10.29911 -10.29774 -10.28998
 Alpha  occ. eigenvalues --  -10.28957 -10.28957 -10.28324 -10.28190 -10.28121
 Alpha  occ. eigenvalues --  -10.28023 -10.27865 -10.27694 -10.27469 -10.27326
 Alpha  occ. eigenvalues --  -10.27284 -10.27171 -10.27092 -10.26922 -10.26794
 Alpha  occ. eigenvalues --  -10.26647 -10.26479 -10.26382 -10.26252 -10.26185
 Alpha  occ. eigenvalues --  -10.25945 -10.25893 -10.25762 -10.25674 -10.25585
 Alpha  occ. eigenvalues --  -10.25525 -10.25456 -10.25158 -10.24987 -10.24189
 Alpha  occ. eigenvalues --  -10.23793 -10.23322 -10.23262 -10.22625  -1.14247
 Alpha  occ. eigenvalues --   -1.11021  -1.08485  -1.06854  -0.93662  -0.92492
 Alpha  occ. eigenvalues --   -0.92148  -0.91920  -0.90772  -0.89894  -0.87912
 Alpha  occ. eigenvalues --   -0.86575  -0.86198  -0.85487  -0.85108  -0.83651
 Alpha  occ. eigenvalues --   -0.82649  -0.81649  -0.80794  -0.79464  -0.78494
 Alpha  occ. eigenvalues --   -0.77028  -0.76816  -0.76731  -0.76201  -0.75518
 Alpha  occ. eigenvalues --   -0.75270  -0.74991  -0.73166  -0.71166  -0.70082
 Alpha  occ. eigenvalues --   -0.68847  -0.67383  -0.65920  -0.65382  -0.65279
 Alpha  occ. eigenvalues --   -0.64424  -0.62849  -0.61534  -0.60301  -0.59605
 Alpha  occ. eigenvalues --   -0.58975  -0.58452  -0.57948  -0.56821  -0.56746
 Alpha  occ. eigenvalues --   -0.55801  -0.55224  -0.55154  -0.54952  -0.54589
 Alpha  occ. eigenvalues --   -0.53410  -0.53222  -0.53067  -0.52851  -0.52017
 Alpha  occ. eigenvalues --   -0.51274  -0.50591  -0.50420  -0.50209  -0.50026
 Alpha  occ. eigenvalues --   -0.49891  -0.49631  -0.49369  -0.49237  -0.48642
 Alpha  occ. eigenvalues --   -0.48515  -0.48430  -0.47778  -0.47245  -0.47183
 Alpha  occ. eigenvalues --   -0.46951  -0.46596  -0.46460  -0.46034  -0.45568
 Alpha  occ. eigenvalues --   -0.45230  -0.44859  -0.44615  -0.44113  -0.43944
 Alpha  occ. eigenvalues --   -0.43672  -0.43602  -0.43304  -0.43063  -0.42836
 Alpha  occ. eigenvalues --   -0.42559  -0.42218  -0.42025  -0.41720  -0.41321
 Alpha  occ. eigenvalues --   -0.40967  -0.40488  -0.40397  -0.40140  -0.39957
 Alpha  occ. eigenvalues --   -0.39636  -0.39627  -0.39002  -0.38749  -0.38440
 Alpha  occ. eigenvalues --   -0.38279  -0.38244  -0.38118  -0.37756  -0.37276
 Alpha  occ. eigenvalues --   -0.37220  -0.36762  -0.35493  -0.35104  -0.34024
 Alpha  occ. eigenvalues --   -0.32433  -0.32237  -0.32017  -0.31300  -0.30945
 Alpha  occ. eigenvalues --   -0.28795  -0.27969  -0.24992  -0.19800
 Alpha virt. eigenvalues --   -0.06067  -0.00638   0.02938   0.05889   0.06952
 Alpha virt. eigenvalues --    0.09545   0.09672   0.09930   0.11496   0.11731
 Alpha virt. eigenvalues --    0.11936   0.12697   0.13043   0.13278   0.13737

 Mulliken charges:
               1
     1  O   -0.520473
     2  O   -0.572214
     3  O   -0.562382
     4  O   -0.540209
     5  C    0.215946
     6  C    0.214742
     7  C    0.015899
     8  C   -0.193563
     9  C   -0.206184
    10  C    0.141610
    11  C   -0.328006
    12  C   -0.136198
    13  C   -0.300668
    14  C   -0.293636
    15  C   -0.070432
    16  C    0.052069
    17  C   -0.374253
    18  C   -0.115863
    19  C   -0.070490
    20  C   -0.003518
    21  C    0.230654
    22  C   -0.227474
    23  C    0.188252
    24  C   -0.180739
    25  C   -0.003824
    26  C   -0.293869
    27  C   -0.261258
    28  C   -0.308761
    29  C   -0.072947
    30  C    0.143922
    31  C    0.029405
    32  C   -0.343020
    33  C   -0.367407
    34  C   -0.095711
    35  C    0.149245
    36  C   -0.363754
    37  C   -0.123098
    38  C   -0.044975
    39  C   -0.083774
    40  C   -0.119484
    41  C   -0.119294
    42  C   -0.122080
    43  C    0.114213
    44  C   -0.336203
    45  H    0.111931
    46  H    0.118421
    47  H    0.096026
    48  H    0.116175
    49  H    0.109568
    50  H    0.105040
    51  H    0.117669
    52  H    0.125996
    53  H    0.128267
    54  H    0.106232
    55  H    0.111902
    56  H    0.089858
    57  H    0.085485
    58  H    0.113927
    59  H    0.103143
    60  H    0.296456
    61  H    0.072056
    62  H    0.127477
    63  H    0.131562
    64  H    0.107527
    65  H    0.086036
    66  H    0.096136
    67  H    0.076746
    68  H    0.099840
    69  H    0.082459
    70  H    0.108882
    71  H    0.107249
    72  H    0.075789
    73  H    0.127280
    74  H    0.105567
    75  H    0.105078
    76  H    0.050463
    77  H    0.100790
    78  H    0.115729
    79  H    0.088035
    80  H    0.119740
    81  H    0.063079
    82  H    0.294473
    83  H    0.310032
    84  H    0.108659
    85  H    0.124345
    86  H    0.149737
    87  H    0.111199
    88  H    0.073369
    89  H    0.096845
    90  H    0.142937
    91  H    0.104576
    92  H    0.076733
    93  H    0.085921
    94  H    0.070742
    95  H    0.084021
    96  H    0.070877
    97  H    0.081299
    98  H    0.114115
    99  H    0.079680
   100  H    0.096624
 Sum of Mulliken charges =  -0.00000

 Dipole moment (field-independent basis, Debye):
    X=              0.6842    Y=              1.0674    Z=              3.0132  Tot=              3.2690
 Quadrupole moment (field-independent basis, Debye-Ang):
   XX=           -283.4744   YY=           -256.9263   ZZ=           -281.3027
   XY=              3.9746   XZ=             42.0296   YZ=             -3.6231

 Normal termination of Gaussian 16 at Tue Jul 30 23:26:02 2019.
