 Gaussian 16, Revision A.03,
 Gaussian 16:  ES64L-G16RevA.03 25-Dec-2016

 -------------------------------------
 # td=(NStates=1) CAM-B3LYP/6-31G(d,p)
 -------------------------------------

 --
 TD
 --
 Symbolic Z-matrix:
 Charge =  0 Multiplicity = 1

                         Standard orientation:
 ---------------------------------------------------------------------
 Center     Atomic      Atomic             Coordinates (Angstroms)
 Number     Number       Type             X           Y           Z
 ---------------------------------------------------------------------
      1          8           0      -11.690627    0.226635   -1.567723
      2          8           0      -13.002349   -2.341187    1.489709
      3          8           0       10.560141   -1.450785   -1.879563
      4          8           0       14.611728   -0.902440   -0.014286
      5          6           0      -11.046359   -0.160752   -0.357434
      6          6           0      -11.736729   -1.214402   -1.222851
      7          6           0      -11.792203    0.428219    0.869763
      8          6           0      -13.097060   -1.775323   -0.860290
      9          6           0      -13.225285    0.066680    1.077655
     10          6           0      -13.517562   -1.371066    0.628271
     11          6           0      -10.861643   -2.028658   -2.154105
     12          6           0       -9.566525    0.092276   -0.405986
     13          6           0      -11.252795    0.035596    2.287732
     14          6           0      -11.684366    1.940889    0.848236
     15          6           0       -8.653697   -0.764503    0.015226
     16          6           0       -7.257678   -0.593509    0.137206
     17          6           0       -6.461373   -1.812022    0.545139
     18          6           0       -6.548858    0.614502   -0.082401
     19          6           0       -5.149720    0.848241   -0.107957
     20          6           0       11.966654    0.349501    1.200165
     21          6           0       11.680728   -0.839459   -1.170571
     22          6           0       12.736153   -0.963814    1.623429
     23          6           0       13.444000   -1.659355    0.463316
     24          6           0       12.525096   -1.973797   -0.673024
     25          6           0       11.041964   -0.096659   -0.005030
     26          6           0       11.099895    0.686201    2.455407
     27          6           0       12.885167    1.481125    0.914054
     28          6           0       12.428250    0.035201   -2.178473
     29          6           0       -4.728572    2.165012   -0.491044
     30          6           0        9.831231    0.390009   -0.130808
     31          6           0       -3.395041    2.604400   -0.514349
     32          6           0        8.621011    0.912523   -0.304948
     33          6           0       -3.004504    3.932950   -0.917705
     34          6           0       -2.375478    1.534896   -0.182547
     35          6           0        7.492339    0.067471   -0.002059
     36          6           0        7.570521   -1.311749    0.605283
     37          6           0        6.233808    0.680080   -0.147202
     38          6           0       -0.951194    1.747433   -0.339987
     39          6           0        4.914076    0.069778    0.012924
     40          6           0        0.093818    0.817386   -0.118106
     41          6           0        3.793172    0.773720   -0.299841
     42          6           0        1.439056    1.093990   -0.243907
     43          6           0        2.568400    0.304675   -0.013062
     44          6           0        2.315230   -1.208344    0.330442
     45          1           0      -13.232723   -2.837780   -1.112935
     46          1           0      -13.764743   -1.202235   -1.706854
     47          1           0      -13.649870    0.249382    2.117801
     48          1           0      -13.643613    0.904830    0.175341
     49          1           0      -14.645143   -1.621489    0.673155
     50          1           0      -10.788447   -3.223369   -1.744374
     51          1           0      -11.459588   -1.976100   -3.271005
     52          1           0       -9.868869   -1.499994   -2.452843
     53          1           0       -9.465854    1.227024   -0.687925
     54          1           0      -10.239095    0.377105    2.496416
     55          1           0      -11.911020    0.449691    3.149108
     56          1           0      -11.348792   -1.053202    2.389765
     57          1           0      -12.269767    2.433887   -0.015313
     58          1           0      -12.219480    2.410549    1.724115
     59          1           0      -10.486746    2.272134    1.053406
     60          1           0      -12.250437   -3.016958    1.023656
     61          1           0       -8.850798   -1.703305    0.351032
     62          1           0       -5.761630   -2.242836   -0.258366
     63          1           0       -5.520901   -1.526456    1.054405
     64          1           0       -6.905208   -2.696979    1.111237
     65          1           0       -7.112336    1.512360   -0.693550
     66          1           0       -4.332101    0.176972    0.464667
     67          1           0       13.352844   -0.595579    2.312325
     68          1           0       12.008037   -1.518750    2.181049
     69          1           0       13.882170   -2.616791    0.963688
     70          1           0       13.229609   -2.476115   -1.307409
     71          1           0       11.784484   -2.733868   -0.274482
     72          1           0       11.693135    0.867896    3.289574
     73          1           0       10.553249    1.668753    2.393082
     74          1           0       10.180976    0.108122    2.652032
     75          1           0       13.443034    1.482448   -0.130847
     76          1           0       12.254094    2.153180    0.714654
     77          1           0       13.790828    1.634383    1.800520
     78          1           0       12.893936   -0.582520   -3.044657
     79          1           0       11.603081    0.828034   -2.691925
     80          1           0       13.042369    0.524362   -1.719478
     81          1           0       -5.569417    2.916920   -0.673295
     82          1           0        9.849558   -0.731306   -2.058052
     83          1           0       15.059362   -0.298106    0.853865
     84          1           0        8.344323    1.808067   -0.708772
     85          1           0       -2.196624    4.288741   -0.176916
     86          1           0       -2.344955    3.853304   -1.828851
     87          1           0       -3.823430    4.587162   -1.226456
     88          1           0       -2.692253    0.525888   -0.172952
     89          1           0        6.701832   -2.077922    0.377111
     90          1           0        8.359833   -1.983194    0.156187
     91          1           0        7.725447   -1.465584    1.856543
     92          1           0        6.046066    1.700214   -0.598838
     93          1           0       -0.655367    2.782251   -0.568796
     94          1           0        4.854623   -0.896028    0.629689
     95          1           0       -0.364817   -0.176129    0.069559
     96          1           0        4.004340    1.891519   -0.544957
     97          1           0        1.645746    2.095858   -0.361794
     98          1           0        1.283538   -1.620132    0.507311
     99          1           0        2.879337   -1.699570   -0.516801
    100          1           0        2.833493   -1.312576    1.238676
 ---------------------------------------------------------------------

 SCF Done:  E(RCAM-B3LYP) =  -1857.20504018     A.U. after   16 cycles

 Excitation energies and oscillator strengths:

 Excited State   1:      Singlet-A      1.7098 eV  725.14 nm  f=2.6162  <S**2>=0.000
     163 ->166        -0.11499
     164 ->165         0.70684
     164 <-165        -0.13934
 This state for optimization and/or second-order correction.
 Total Energy, E(TD-HF/TD-DFT) =  -1857.14220589
 Copying the excited state density for this state as the 1-particle RhoCI density.

 The electronic state is 1-A.
 Alpha  occ. eigenvalues --  -19.22571 -19.22464 -19.21969 -19.19938 -10.32722
 Alpha  occ. eigenvalues --  -10.32006 -10.31983 -10.31839 -10.31361 -10.29283
 Alpha  occ. eigenvalues --  -10.28761 -10.28642 -10.28556 -10.28383 -10.28184
 Alpha  occ. eigenvalues --  -10.28161 -10.27935 -10.27765 -10.27747 -10.27695
 Alpha  occ. eigenvalues --  -10.27539 -10.27487 -10.27273 -10.27209 -10.27182
 Alpha  occ. eigenvalues --  -10.27073 -10.27045 -10.26993 -10.26876 -10.26859
 Alpha  occ. eigenvalues --  -10.26792 -10.26747 -10.26733 -10.26568 -10.26170
 Alpha  occ. eigenvalues --  -10.26130 -10.26092 -10.25714 -10.25473 -10.25108
 Alpha  occ. eigenvalues --  -10.24688 -10.24458 -10.24143 -10.23797  -1.13896
 Alpha  occ. eigenvalues --   -1.08644  -1.07140  -1.05758  -0.93108  -0.92636
 Alpha  occ. eigenvalues --   -0.91903  -0.91076  -0.90801  -0.90245  -0.87488
 Alpha  occ. eigenvalues --   -0.86778  -0.85672  -0.85281  -0.84694  -0.82755
 Alpha  occ. eigenvalues --   -0.82040  -0.80812  -0.79125  -0.78569  -0.77607
 Alpha  occ. eigenvalues --   -0.77219  -0.76682  -0.76183  -0.75671  -0.75444
 Alpha  occ. eigenvalues --   -0.74505  -0.73960  -0.72607  -0.69892  -0.69444
 Alpha  occ. eigenvalues --   -0.68031  -0.66773  -0.65294  -0.64412  -0.63626
 Alpha  occ. eigenvalues --   -0.63242  -0.62044  -0.60589  -0.60118  -0.59120
 Alpha  occ. eigenvalues --   -0.58322  -0.58002  -0.57882  -0.57296  -0.56240
 Alpha  occ. eigenvalues --   -0.56137  -0.55498  -0.54615  -0.54054  -0.53634
 Alpha  occ. eigenvalues --   -0.52987  -0.52770  -0.52559  -0.52081  -0.51598
 Alpha  occ. eigenvalues --   -0.51122  -0.50439  -0.50149  -0.50083  -0.49891
 Alpha  occ. eigenvalues --   -0.49304  -0.49264  -0.49128  -0.48384  -0.47783
 Alpha  occ. eigenvalues --   -0.47325  -0.46966  -0.46873  -0.46510  -0.46442
 Alpha  occ. eigenvalues --   -0.46082  -0.46073  -0.45756  -0.45700  -0.45364
 Alpha  occ. eigenvalues --   -0.45327  -0.44923  -0.44636  -0.43911  -0.43862
 Alpha  occ. eigenvalues --   -0.43528  -0.43321  -0.42953  -0.42518  -0.42189
 Alpha  occ. eigenvalues --   -0.41747  -0.41509  -0.41248  -0.41068  -0.40887
 Alpha  occ. eigenvalues --   -0.40788  -0.40419  -0.40156  -0.39951  -0.39740
 Alpha  occ. eigenvalues --   -0.39268  -0.39147  -0.38928  -0.38540  -0.38341
 Alpha  occ. eigenvalues --   -0.38052  -0.37923  -0.37721  -0.37063  -0.36867
 Alpha  occ. eigenvalues --   -0.36697  -0.35543  -0.34851  -0.33879  -0.33041
 Alpha  occ. eigenvalues --   -0.32235  -0.32142  -0.31815  -0.31279  -0.30763
 Alpha  occ. eigenvalues --   -0.30135  -0.27927  -0.24198  -0.18565
 Alpha virt. eigenvalues --   -0.07538  -0.01457   0.02804   0.05619   0.06215
 Alpha virt. eigenvalues --    0.06769   0.07240   0.09547   0.10701   0.10994
 Alpha virt. eigenvalues --    0.11775   0.12303   0.12650   0.12953   0.13224

 Mulliken charges:
               1
     1  O   -0.506462
     2  O   -0.555743
     3  O   -0.588899
     4  O   -0.573820
     5  C    0.206239
     6  C    0.244279
     7  C    0.040541
     8  C   -0.249093
     9  C   -0.171277
    10  C    0.197037
    11  C   -0.307215
    12  C   -0.117859
    13  C   -0.311778
    14  C   -0.298752
    15  C   -0.029543
    16  C    0.096317
    17  C   -0.399217
    18  C   -0.137222
    19  C   -0.065113
    20  C    0.015552
    21  C    0.258832
    22  C   -0.183245
    23  C    0.166735
    24  C   -0.179665
    25  C   -0.105542
    26  C   -0.329775
    27  C   -0.277674
    28  C   -0.249070
    29  C   -0.135864
    30  C    0.161943
    31  C    0.115780
    32  C   -0.257303
    33  C   -0.393739
    34  C   -0.127442
    35  C    0.114335
    36  C   -0.376336
    37  C   -0.128180
    38  C   -0.099680
    39  C   -0.089481
    40  C   -0.074977
    41  C   -0.110541
    42  C   -0.116770
    43  C    0.093355
    44  C   -0.365182
    45  H    0.110651
    46  H    0.112828
    47  H    0.116431
    48  H    0.065588
    49  H    0.080595
    50  H    0.071230
    51  H    0.083620
    52  H    0.135199
    53  H    0.113209
    54  H    0.093191
    55  H    0.086383
    56  H    0.113990
    57  H    0.106315
    58  H    0.100187
    59  H    0.073748
    60  H    0.311956
    61  H    0.073518
    62  H    0.114453
    63  H    0.115838
    64  H    0.111912
    65  H    0.075505
    66  H    0.099571
    67  H    0.077983
    68  H    0.108184
    69  H    0.072272
    70  H    0.123153
    71  H    0.118243
    72  H    0.106260
    73  H    0.093215
    74  H    0.115881
    75  H    0.108386
    76  H    0.119790
    77  H    0.064049
    78  H    0.110713
    79  H    0.050646
    80  H    0.118006
    81  H    0.089484
    82  H    0.307398
    83  H    0.304115
    84  H    0.112107
    85  H    0.130711
    86  H    0.133216
    87  H    0.120603
    88  H    0.089015
    89  H    0.107055
    90  H    0.131977
    91  H    0.092465
    92  H    0.071440
    93  H    0.066602
    94  H    0.093634
    95  H    0.072419
    96  H    0.088611
    97  H    0.071159
    98  H    0.113364
    99  H    0.123987
   100  H    0.129448
 Sum of Mulliken charges =  -0.00000

 Dipole moment (field-independent basis, Debye):
    X=              1.4260    Y=              0.3650    Z=              1.9284  Tot=              2.4260
 Quadrupole moment (field-independent basis, Debye-Ang):
   XX=           -295.3802   YY=           -256.5618   ZZ=           -279.6355
   XY=             30.6122   XZ=             34.8710   YZ=             -5.3447

 Normal termination of Gaussian 16 at Mon Jul 29 12:52:15 2019.
