 Gaussian 16, Revision A.03,
 Gaussian 16:  ES64L-G16RevA.03 25-Dec-2016

 -------------------------------------
 # td=(NStates=1) CAM-B3LYP/6-31G(d,p)
 -------------------------------------

 --
 TD
 --
 Symbolic Z-matrix:
 Charge =  0 Multiplicity = 1

                         Standard orientation:
 ---------------------------------------------------------------------
 Center     Atomic      Atomic             Coordinates (Angstroms)
 Number     Number       Type             X           Y           Z
 ---------------------------------------------------------------------
      1          8           0      -11.680393    0.287314   -1.567018
      2          8           0      -12.925566   -2.450959    1.460743
      3          8           0       10.524723   -0.861961   -2.056140
      4          8           0       14.497960   -0.915628   -0.345367
      5          6           0      -10.975309   -0.142912   -0.396512
      6          6           0      -11.662871   -1.095688   -1.279763
      7          6           0      -11.712506    0.272082    0.907776
      8          6           0      -13.004801   -1.782135   -0.863526
      9          6           0      -13.247399   -0.064093    1.025722
     10          6           0      -13.428033   -1.538060    0.486443
     11          6           0      -10.902261   -1.965900   -2.146899
     12          6           0       -9.524799    0.076217   -0.499049
     13          6           0      -10.918607   -0.192602    2.131180
     14          6           0      -11.600471    1.856050    1.027884
     15          6           0       -8.583541   -0.759190   -0.033341
     16          6           0       -7.199463   -0.547534    0.009957
     17          6           0       -6.306662   -1.697564    0.435832
     18          6           0       -6.638638    0.695546   -0.275323
     19          6           0       -5.300655    0.951397   -0.251874
     20          6           0       11.931676   -0.059670    1.439592
     21          6           0       11.680051   -0.582826   -1.282755
     22          6           0       12.719649   -1.306395    1.405715
     23          6           0       13.416564   -1.781709   -0.027211
     24          6           0       12.405530   -1.836935   -1.026772
     25          6           0       11.041175   -0.029389    0.123260
     26          6           0       10.955535   -0.077393    2.589863
     27          6           0       12.804119    1.132141    1.439898
     28          6           0       12.534532    0.511839   -2.042177
     29          6           0       -4.804762    2.216165   -0.375601
     30          6           0        9.873510    0.494120    0.053080
     31          6           0       -3.379884    2.627876   -0.444610
     32          6           0        8.649959    0.884538   -0.072757
     33          6           0       -3.005957    4.036466   -0.556621
     34          6           0       -2.397782    1.522197   -0.267597
     35          6           0        7.564804    0.132088    0.145710
     36          6           0        7.587583   -1.325038    0.391641
     37          6           0        6.282198    0.703861    0.009416
     38          6           0       -1.049483    1.878440   -0.213869
     39          6           0        4.967378    0.180030   -0.020265
     40          6           0        0.004140    0.967924   -0.020327
     41          6           0        3.778627    0.912802   -0.023802
     42          6           0        1.309322    1.296497   -0.074679
     43          6           0        2.364664    0.385237    0.096795
     44          6           0        2.185393   -1.107098    0.158299
     45          1           0      -12.877138   -2.762183   -0.870024
     46          1           0      -13.860005   -1.548786   -1.385668
     47          1           0      -13.614414   -0.160627    1.924067
     48          1           0      -13.904975    0.211189    0.163035
     49          1           0      -14.457453   -1.675628    0.579830
     50          1           0      -10.447983   -2.897993   -1.820533
     51          1           0      -11.343372   -2.264182   -2.979112
     52          1           0       -9.916182   -1.439647   -2.600669
     53          1           0       -9.351606    0.894261   -1.009902
     54          1           0       -9.989266    0.497919    2.062882
     55          1           0      -11.531494    0.019965    3.007654
     56          1           0      -10.827786   -1.270501    2.212558
     57          1           0      -12.125434    2.521464    0.285991
     58          1           0      -12.159187    2.047834    1.986293
     59          1           0      -10.609341    2.255023    1.160813
     60          1           0      -11.974834   -2.805311    1.153413
     61          1           0       -9.003909   -1.739683    0.487384
     62          1           0       -5.472877   -1.855470   -0.379426
     63          1           0       -5.860908   -1.784778    1.523819
     64          1           0       -7.017255   -2.695842    0.335108
     65          1           0       -7.344636    1.429184   -0.282569
     66          1           0       -4.664214   -0.046306    0.063034
     67          1           0       13.509240   -1.366749    2.251433
     68          1           0       12.132695   -2.149748    1.636991
     69          1           0       13.834406   -2.881335   -0.078326
     70          1           0       12.712668   -2.090909   -2.140653
     71          1           0       11.687067   -2.838243   -0.713082
     72          1           0       11.487872    0.098771    3.592140
     73          1           0       10.225030    0.640146    2.322165
     74          1           0       10.376742   -0.975877    2.704364
     75          1           0       13.636315    1.027666    0.715164
     76          1           0       12.435693    2.097589    1.105849
     77          1           0       13.205728    1.243284    2.504376
     78          1           0       12.770365    0.177368   -3.019474
     79          1           0       11.663509    1.467581   -2.059469
     80          1           0       13.509641    0.641375   -1.563410
     81          1           0       -5.307462    3.041774   -0.648395
     82          1           0        9.941537   -0.112011   -2.054439
     83          1           0       15.315173   -1.167034    0.297789
     84          1           0        8.399165    1.909222   -0.160647
     85          1           0       -2.398206    4.315083    0.258031
     86          1           0       -2.321339    4.298818   -1.289217
     87          1           0       -3.706971    4.779685   -0.773107
     88          1           0       -2.564060    0.464061   -0.310184
     89          1           0        6.643918   -1.800935    0.157230
     90          1           0        8.321061   -1.689181   -0.295323
     91          1           0        7.812881   -1.668880    1.447015
     92          1           0        6.046814    1.789211   -0.282047
     93          1           0       -0.798214    2.992332   -0.328109
     94          1           0        4.768021   -0.855917    0.079530
     95          1           0       -0.542529   -0.041935    0.148577
     96          1           0        3.783469    1.997444    0.088845
     97          1           0        1.344358    2.563683   -0.010087
     98          1           0        1.126959   -1.261953    0.614437
     99          1           0        2.365449   -1.571389   -0.754221
    100          1           0        3.128342   -1.521327    0.904114
 ---------------------------------------------------------------------

 SCF Done:  E(RCAM-B3LYP) =  -1857.25807352     A.U. after   15 cycles

 Excitation energies and oscillator strengths:

 Excited State   1:      Singlet-A      1.9225 eV  644.90 nm  f=3.0144  <S**2>=0.000
     163 ->166         0.13025
     164 ->165         0.69869
     164 <-165        -0.10725
 This state for optimization and/or second-order correction.
 Total Energy, E(TD-HF/TD-DFT) =  -1857.18742147
 Copying the excited state density for this state as the 1-particle RhoCI density.

 The electronic state is 1-A.
 Alpha  occ. eigenvalues --  -19.23102 -19.22195 -19.21283 -19.19887 -10.32382
 Alpha  occ. eigenvalues --  -10.32135 -10.31875 -10.31170 -10.29051 -10.28812
 Alpha  occ. eigenvalues --  -10.28605 -10.28502 -10.27979 -10.27612 -10.27596
 Alpha  occ. eigenvalues --  -10.27447 -10.27327 -10.27324 -10.27272 -10.26981
 Alpha  occ. eigenvalues --  -10.26956 -10.26815 -10.26800 -10.26713 -10.26634
 Alpha  occ. eigenvalues --  -10.26496 -10.26457 -10.26252 -10.26011 -10.26007
 Alpha  occ. eigenvalues --  -10.25740 -10.25662 -10.25543 -10.25156 -10.25056
 Alpha  occ. eigenvalues --  -10.24901 -10.24489 -10.24462 -10.24451 -10.24145
 Alpha  occ. eigenvalues --  -10.24112 -10.24078 -10.24045 -10.23989  -1.16002
 Alpha  occ. eigenvalues --   -1.09688  -1.09006  -1.07867  -0.93590  -0.92757
 Alpha  occ. eigenvalues --   -0.92251  -0.91529  -0.90365  -0.89894  -0.88298
 Alpha  occ. eigenvalues --   -0.87526  -0.87256  -0.86202  -0.84783  -0.83388
 Alpha  occ. eigenvalues --   -0.82577  -0.81736  -0.80153  -0.79155  -0.77816
 Alpha  occ. eigenvalues --   -0.77513  -0.76923  -0.76495  -0.75434  -0.75005
 Alpha  occ. eigenvalues --   -0.74536  -0.74442  -0.72285  -0.70759  -0.70168
 Alpha  occ. eigenvalues --   -0.68553  -0.67006  -0.65557  -0.65431  -0.63817
 Alpha  occ. eigenvalues --   -0.62804  -0.61828  -0.60928  -0.60343  -0.59763
 Alpha  occ. eigenvalues --   -0.58854  -0.58584  -0.58251  -0.57727  -0.57317
 Alpha  occ. eigenvalues --   -0.56396  -0.56219  -0.55810  -0.55413  -0.54927
 Alpha  occ. eigenvalues --   -0.54823  -0.53644  -0.53116  -0.52203  -0.51466
 Alpha  occ. eigenvalues --   -0.51224  -0.51099  -0.50589  -0.50290  -0.49911
 Alpha  occ. eigenvalues --   -0.49888  -0.49010  -0.48767  -0.48551  -0.48118
 Alpha  occ. eigenvalues --   -0.47989  -0.47869  -0.47509  -0.47340  -0.47020
 Alpha  occ. eigenvalues --   -0.46569  -0.46144  -0.46118  -0.45931  -0.45419
 Alpha  occ. eigenvalues --   -0.44951  -0.44716  -0.44556  -0.43834  -0.43641
 Alpha  occ. eigenvalues --   -0.43446  -0.42878  -0.42553  -0.42355  -0.42176
 Alpha  occ. eigenvalues --   -0.41889  -0.41637  -0.41174  -0.41143  -0.40992
 Alpha  occ. eigenvalues --   -0.40687  -0.40284  -0.40166  -0.40028  -0.39976
 Alpha  occ. eigenvalues --   -0.39920  -0.39224  -0.39072  -0.38753  -0.38603
 Alpha  occ. eigenvalues --   -0.38483  -0.38372  -0.38027  -0.37951  -0.36865
 Alpha  occ. eigenvalues --   -0.36712  -0.36485  -0.35747  -0.34802  -0.33751
 Alpha  occ. eigenvalues --   -0.32735  -0.32146  -0.32005  -0.31106  -0.30428
 Alpha  occ. eigenvalues --   -0.29312  -0.27048  -0.23725  -0.18934
 Alpha virt. eigenvalues --   -0.06728  -0.01426   0.02301   0.06860   0.07624
 Alpha virt. eigenvalues --    0.08074   0.08702   0.10337   0.10863   0.11752
 Alpha virt. eigenvalues --    0.12534   0.12754   0.13137   0.13453   0.13582

 Mulliken charges:
               1
     1  O   -0.507943
     2  O   -0.568734
     3  O   -0.566626
     4  O   -0.551309
     5  C    0.184314
     6  C    0.279666
     7  C    0.012611
     8  C   -0.215294
     9  C   -0.158912
    10  C    0.119603
    11  C   -0.359989
    12  C   -0.096757
    13  C   -0.285686
    14  C   -0.314260
    15  C   -0.072003
    16  C    0.086539
    17  C   -0.377898
    18  C   -0.066155
    19  C   -0.066820
    20  C    0.042749
    21  C    0.255011
    22  C   -0.187773
    23  C    0.160026
    24  C   -0.174689
    25  C   -0.113677
    26  C   -0.305781
    27  C   -0.304572
    28  C   -0.286830
    29  C   -0.104706
    30  C    0.166228
    31  C    0.059251
    32  C   -0.309345
    33  C   -0.402276
    34  C   -0.109934
    35  C    0.153620
    36  C   -0.378732
    37  C   -0.120865
    38  C   -0.084241
    39  C   -0.089637
    40  C   -0.066567
    41  C   -0.107464
    42  C   -0.114484
    43  C    0.062689
    44  C   -0.351191
    45  H    0.113338
    46  H    0.124654
    47  H    0.112588
    48  H    0.098749
    49  H    0.093263
    50  H    0.107934
    51  H    0.125073
    52  H    0.099190
    53  H    0.099784
    54  H    0.105344
    55  H    0.103307
    56  H    0.084975
    57  H    0.107739
    58  H    0.092654
    59  H    0.095497
    60  H    0.294286
    61  H    0.068434
    62  H    0.115470
    63  H    0.124638
    64  H    0.080778
    65  H    0.083628
    66  H    0.085826
    67  H    0.069905
    68  H    0.102918
    69  H    0.074486
    70  H    0.102366
    71  H    0.093878
    72  H    0.083793
    73  H    0.119281
    74  H    0.106393
    75  H    0.125056
    76  H    0.107861
    77  H    0.083282
    78  H    0.119686
    79  H    0.058212
    80  H    0.140429
    81  H    0.075822
    82  H    0.302199
    83  H    0.320557
    84  H    0.108864
    85  H    0.141804
    86  H    0.138194
    87  H    0.120469
    88  H    0.093380
    89  H    0.113584
    90  H    0.133787
    91  H    0.111245
    92  H    0.069314
    93  H    0.063915
    94  H    0.064004
    95  H    0.073710
    96  H    0.077455
    97  H    0.080187
    98  H    0.110517
    99  H    0.147595
   100  H    0.087541
 Sum of Mulliken charges =  -0.00000

 Dipole moment (field-independent basis, Debye):
    X=              2.8482    Y=             -1.1317    Z=              1.1481  Tot=              3.2728
 Quadrupole moment (field-independent basis, Debye-Ang):
   XX=           -255.7163   YY=           -253.2957   ZZ=           -281.8533
   XY=             -3.6840   XZ=             29.5034   YZ=             -1.1531

 Normal termination of Gaussian 16 at Wed Jul 31 10:56:04 2019.
