 Gaussian 16, Revision A.03,
 Gaussian 16:  ES64L-G16RevA.03 25-Dec-2016

 -------------------------------------
 # td=(NStates=1) CAM-B3LYP/6-31G(d,p)
 -------------------------------------

 --
 TD
 --
 Symbolic Z-matrix:
 Charge =  0 Multiplicity = 1

                         Standard orientation:
 ---------------------------------------------------------------------
 Center     Atomic      Atomic             Coordinates (Angstroms)
 Number     Number       Type             X           Y           Z
 ---------------------------------------------------------------------
      1          8           0      -11.566132    0.270691   -1.410658
      2          8           0      -13.168968   -2.537968    1.253204
      3          8           0       10.542868   -0.994162   -1.981255
      4          8           0       14.477383   -1.319232   -0.159738
      5          6           0      -10.987917   -0.200233   -0.215820
      6          6           0      -11.556694   -1.158611   -1.342545
      7          6           0      -11.772837    0.209245    1.001344
      8          6           0      -12.916740   -1.729945   -1.128365
      9          6           0      -13.262553   -0.178304    0.829511
     10          6           0      -13.588701   -1.552790    0.275232
     11          6           0      -10.661144   -1.976756   -2.303136
     12          6           0       -9.501379   -0.021000   -0.255401
     13          6           0      -11.139909   -0.385640    2.419363
     14          6           0      -11.629863    1.743974    1.162521
     15          6           0       -8.532507   -0.839244    0.251171
     16          6           0       -7.138155   -0.512175    0.166684
     17          6           0       -6.261879   -1.555013    0.629139
     18          6           0       -6.543919    0.715550   -0.127202
     19          6           0       -5.190120    0.991241   -0.072277
     20          6           0       12.044843    0.024760    1.323976
     21          6           0       11.631135   -0.676096   -1.193429
     22          6           0       12.607757   -1.364501    1.528750
     23          6           0       13.276293   -2.062545    0.303221
     24          6           0       12.252577   -2.000323   -0.845627
     25          6           0       11.102375    0.104874    0.100332
     26          6           0       11.206195    0.350294    2.567614
     27          6           0       12.880878    1.241129    1.229827
     28          6           0       12.549497    0.209303   -2.079283
     29          6           0       -4.757663    2.309356   -0.412697
     30          6           0        9.858491    0.550287    0.061425
     31          6           0       -3.415711    2.690899   -0.481283
     32          6           0        8.620415    0.964145   -0.053242
     33          6           0       -3.003133    4.136448   -0.736698
     34          6           0       -2.375008    1.634261   -0.402839
     35          6           0        7.441681    0.175072    0.080335
     36          6           0        7.557563   -1.243151    0.179635
     37          6           0        6.238003    0.816055   -0.038235
     38          6           0       -0.981141    2.025357   -0.389890
     39          6           0        4.838708    0.192682   -0.038649
     40          6           0       -0.045706    0.988616   -0.165331
     41          6           0        3.766536    1.036904   -0.133890
     42          6           0        1.326379    1.247506   -0.184854
     43          6           0        2.392921    0.441292   -0.074478
     44          6           0        2.191077   -1.073808    0.166145
     45          1           0      -13.065254   -2.880339   -1.316246
     46          1           0      -13.545431   -1.230815   -1.737448
     47          1           0      -13.834575    0.070097    1.831341
     48          1           0      -13.758056    0.493081   -0.047485
     49          1           0      -14.808249   -1.601255    0.152102
     50          1           0      -10.359655   -2.858026   -1.881522
     51          1           0      -11.250955   -2.108609   -3.256103
     52          1           0       -9.685558   -1.344024   -2.401949
     53          1           0       -9.228495    0.950779   -0.584237
     54          1           0      -10.126595    0.024364    2.523830
     55          1           0      -11.766560   -0.078448    3.313575
     56          1           0      -11.102336   -1.426795    2.341862
     57          1           0      -11.690712    2.417554    0.090559
     58          1           0      -12.782982    2.103047    1.696309
     59          1           0      -10.704509    2.013980    1.725263
     60          1           0      -12.227825   -2.706246    1.128722
     61          1           0       -8.728411   -1.698963    0.726759
     62          1           0       -5.477677   -1.824429   -0.138889
     63          1           0       -5.765994   -1.330097    1.715443
     64          1           0       -6.808911   -2.553154    0.878989
     65          1           0       -7.214507    1.549308   -0.235256
     66          1           0       -4.354189    0.219801    0.299574
     67          1           0       13.215417   -1.204520    2.395438
     68          1           0       11.843956   -2.005878    2.046719
     69          1           0       13.699151   -2.992799    0.457676
     70          1           0       12.695251   -2.253563   -1.684052
     71          1           0       11.362249   -2.825497   -0.684751
     72          1           0       11.865129    0.600666    3.498928
     73          1           0       10.359025    1.155014    2.483328
     74          1           0       10.735979   -0.556981    2.783798
     75          1           0       13.296320    1.025821    0.337953
     76          1           0       12.602144    2.251595    1.016995
     77          1           0       13.610108    1.274362    2.069128
     78          1           0       12.916856   -0.503209   -2.931371
     79          1           0       12.070585    1.102393   -2.531480
     80          1           0       13.593689    0.515074   -1.650675
     81          1           0       -5.514768    2.904749   -0.395747
     82          1           0       10.250037   -0.120516   -2.410049
     83          1           0       14.844669   -0.859922    0.791995
     84          1           0        8.656494    2.106592   -0.421225
     85          1           0       -2.596593    4.520591    0.215383
     86          1           0       -2.423133    4.192984   -1.659123
     87          1           0       -3.865795    4.928747   -0.695234
     88          1           0       -2.476691    0.755086   -0.262139
     89          1           0        6.766212   -1.791595   -0.462709
     90          1           0        8.352568   -1.561202   -0.455151
     91          1           0        7.561193   -1.421095    1.385050
     92          1           0        6.117086    1.789789   -0.307862
     93          1           0       -0.780851    3.074792   -0.568366
     94          1           0        4.825282   -1.025583    0.006541
     95          1           0       -0.387824   -0.130988   -0.428627
     96          1           0        3.574474    2.201530   -0.307467
     97          1           0        1.539771    2.263760   -0.410180
     98          1           0        1.204090   -1.576253   -0.068394
     99          1           0        2.906089   -1.615332   -0.472476
    100          1           0        2.464191   -1.388761    1.274205
 ---------------------------------------------------------------------

 SCF Done:  E(RCAM-B3LYP) =  -1857.23962422     A.U. after   15 cycles

 Excitation energies and oscillator strengths:

 Excited State   1:      Singlet-A      2.0008 eV  619.67 nm  f=2.3835  <S**2>=0.000
     163 ->166        -0.11138
     164 ->165         0.70440
     164 <-165        -0.12045
 This state for optimization and/or second-order correction.
 Total Energy, E(TD-HF/TD-DFT) =  -1857.16609636
 Copying the excited state density for this state as the 1-particle RhoCI density.

 The electronic state is 1-A.
 Alpha  occ. eigenvalues --  -19.22601 -19.22588 -19.21756 -19.20917 -10.32739
 Alpha  occ. eigenvalues --  -10.32269 -10.32119 -10.31968 -10.31534 -10.28464
 Alpha  occ. eigenvalues --  -10.28325 -10.28161 -10.28104 -10.27981 -10.27715
 Alpha  occ. eigenvalues --  -10.27299 -10.27274 -10.27137 -10.27085 -10.27068
 Alpha  occ. eigenvalues --  -10.26977 -10.26829 -10.26798 -10.26578 -10.26578
 Alpha  occ. eigenvalues --  -10.26574 -10.26514 -10.26357 -10.26191 -10.26163
 Alpha  occ. eigenvalues --  -10.26163 -10.26049 -10.26037 -10.25852 -10.25744
 Alpha  occ. eigenvalues --  -10.25699 -10.25440 -10.25392 -10.25258 -10.25120
 Alpha  occ. eigenvalues --  -10.25013 -10.24703 -10.24615 -10.23176  -1.15820
 Alpha  occ. eigenvalues --   -1.11103  -1.08524  -1.06360  -0.93436  -0.92425
 Alpha  occ. eigenvalues --   -0.91568  -0.91016  -0.90004  -0.89296  -0.87089
 Alpha  occ. eigenvalues --   -0.86626  -0.86189  -0.85044  -0.84129  -0.82624
 Alpha  occ. eigenvalues --   -0.81708  -0.80790  -0.80471  -0.77966  -0.77290
 Alpha  occ. eigenvalues --   -0.76324  -0.76277  -0.76014  -0.75672  -0.75187
 Alpha  occ. eigenvalues --   -0.74646  -0.73411  -0.72724  -0.70379  -0.69632
 Alpha  occ. eigenvalues --   -0.68210  -0.66520  -0.65101  -0.64583  -0.64074
 Alpha  occ. eigenvalues --   -0.63758  -0.62436  -0.61376  -0.59393  -0.58994
 Alpha  occ. eigenvalues --   -0.58657  -0.58362  -0.58173  -0.56178  -0.56118
 Alpha  occ. eigenvalues --   -0.55788  -0.54934  -0.54511  -0.54154  -0.53647
 Alpha  occ. eigenvalues --   -0.53471  -0.53180  -0.52719  -0.52678  -0.52272
 Alpha  occ. eigenvalues --   -0.51271  -0.50945  -0.50695  -0.50408  -0.49579
 Alpha  occ. eigenvalues --   -0.49567  -0.49325  -0.49172  -0.48791  -0.48263
 Alpha  occ. eigenvalues --   -0.48173  -0.48128  -0.47790  -0.46887  -0.46690
 Alpha  occ. eigenvalues --   -0.46368  -0.46208  -0.45977  -0.45496  -0.44921
 Alpha  occ. eigenvalues --   -0.44716  -0.44120  -0.43963  -0.43588  -0.43527
 Alpha  occ. eigenvalues --   -0.43337  -0.42981  -0.42647  -0.42206  -0.42168
 Alpha  occ. eigenvalues --   -0.42023  -0.41951  -0.41674  -0.41170  -0.41018
 Alpha  occ. eigenvalues --   -0.40827  -0.40743  -0.40351  -0.40203  -0.39964
 Alpha  occ. eigenvalues --   -0.39896  -0.39805  -0.38888  -0.38545  -0.38328
 Alpha  occ. eigenvalues --   -0.38200  -0.38026  -0.37371  -0.36830  -0.36310
 Alpha  occ. eigenvalues --   -0.36255  -0.35203  -0.35004  -0.34297  -0.33431
 Alpha  occ. eigenvalues --   -0.32951  -0.32403  -0.31981  -0.31207  -0.30371
 Alpha  occ. eigenvalues --   -0.29046  -0.27331  -0.23973  -0.18996
 Alpha virt. eigenvalues --   -0.06133  -0.00190   0.03141   0.06649   0.07558
 Alpha virt. eigenvalues --    0.08488   0.09762   0.10901   0.11147   0.11347
 Alpha virt. eigenvalues --    0.12285   0.12539   0.12823   0.13178   0.13901

 Mulliken charges:
               1
     1  O   -0.495448
     2  O   -0.548100
     3  O   -0.553879
     4  O   -0.573230
     5  C    0.184148
     6  C    0.229157
     7  C    0.044837
     8  C   -0.216908
     9  C   -0.171369
    10  C    0.141665
    11  C   -0.331479
    12  C   -0.111030
    13  C   -0.307785
    14  C   -0.286470
    15  C   -0.059184
    16  C    0.096456
    17  C   -0.385808
    18  C   -0.119675
    19  C   -0.065118
    20  C    0.026225
    21  C    0.273843
    22  C   -0.240536
    23  C    0.170722
    24  C   -0.168023
    25  C   -0.140440
    26  C   -0.297974
    27  C   -0.293221
    28  C   -0.330634
    29  C   -0.090600
    30  C    0.198926
    31  C    0.053359
    32  C   -0.293622
    33  C   -0.384385
    34  C   -0.034431
    35  C    0.114798
    36  C   -0.372398
    37  C   -0.096960
    38  C   -0.083541
    39  C   -0.128780
    40  C   -0.111808
    41  C   -0.100129
    42  C   -0.132204
    43  C    0.122687
    44  C   -0.370498
    45  H    0.100335
    46  H    0.130178
    47  H    0.091615
    48  H    0.083128
    49  H    0.084022
    50  H    0.123934
    51  H    0.114488
    52  H    0.118723
    53  H    0.102998
    54  H    0.108817
    55  H    0.109958
    56  H    0.090560
    57  H    0.093033
    58  H    0.066434
    59  H    0.110496
    60  H    0.304541
    61  H    0.073199
    62  H    0.121112
    63  H    0.104143
    64  H    0.087496
    65  H    0.082311
    66  H    0.095337
    67  H    0.096060
    68  H    0.117542
    69  H    0.104203
    70  H    0.118254
    71  H    0.098505
    72  H    0.074929
    73  H    0.108556
    74  H    0.094695
    75  H    0.110080
    76  H    0.120405
    77  H    0.076339
    78  H    0.099431
    79  H    0.092602
    80  H    0.131382
    81  H    0.067823
    82  H    0.310695
    83  H    0.307501
    84  H    0.099309
    85  H    0.134804
    86  H    0.138793
    87  H    0.101192
    88  H    0.030892
    89  H    0.101282
    90  H    0.147863
    91  H    0.114513
    92  H    0.074367
    93  H    0.092652
    94  H    0.098229
    95  H    0.084966
    96  H    0.098994
    97  H    0.066599
    98  H    0.105203
    99  H    0.113771
   100  H    0.109556
 Sum of Mulliken charges =  -0.00000

 Dipole moment (field-independent basis, Debye):
    X=              2.8408    Y=              0.2654    Z=              0.6666  Tot=              2.9300
 Quadrupole moment (field-independent basis, Debye-Ang):
   XX=           -290.4225   YY=           -257.2669   ZZ=           -274.7703
   XY=              4.8720   XZ=             24.0828   YZ=             -2.2145

 Normal termination of Gaussian 16 at Thu Aug  1 09:45:49 2019.
