 Gaussian 16, Revision A.03,
 Gaussian 16:  ES64L-G16RevA.03 25-Dec-2016

 -------------------------------------
 # td=(NStates=1) CAM-B3LYP/6-31G(d,p)
 -------------------------------------

 --
 TD
 --
 Symbolic Z-matrix:
 Charge =  0 Multiplicity = 1

                         Standard orientation:
 ---------------------------------------------------------------------
 Center     Atomic      Atomic             Coordinates (Angstroms)
 Number     Number       Type             X           Y           Z
 ---------------------------------------------------------------------
      1          8           0      -11.770979    0.592957   -1.424944
      2          8           0      -13.182906   -2.509018    1.160454
      3          8           0       10.656981   -0.760988   -2.269100
      4          8           0       14.423521   -0.989754   -0.152599
      5          6           0      -11.024530   -0.113993   -0.375621
      6          6           0      -11.817137   -0.906200   -1.380881
      7          6           0      -11.753344    0.329328    0.999737
      8          6           0      -13.197285   -1.509265   -1.027590
      9          6           0      -13.262842    0.012405    0.866472
     10          6           0      -13.640115   -1.408208    0.394424
     11          6           0      -11.123860   -1.680001   -2.416941
     12          6           0       -9.595052    0.093712   -0.550489
     13          6           0      -11.077939   -0.327387    2.216568
     14          6           0      -11.556851    1.818789    1.144082
     15          6           0       -8.700352   -0.700930    0.094711
     16          6           0       -7.242757   -0.640363    0.132519
     17          6           0       -6.424626   -1.963329    0.475521
     18          6           0       -6.614415    0.616189   -0.009709
     19          6           0       -5.255507    0.808454   -0.149292
     20          6           0       11.935322   -0.117923    1.308265
     21          6           0       11.769270   -0.399950   -1.341317
     22          6           0       12.621223   -1.415396    1.286310
     23          6           0       13.370340   -1.785403    0.073552
     24          6           0       12.509005   -1.660382   -1.082214
     25          6           0       11.124679    0.037779    0.031226
     26          6           0       10.916543   -0.055171    2.547702
     27          6           0       12.856540    1.162694    1.535747
     28          6           0       12.517177    0.736737   -1.877025
     29          6           0       -4.626827    2.074532   -0.335176
     30          6           0        9.949903    0.474923   -0.113030
     31          6           0       -3.274930    2.356975   -0.386713
     32          6           0        8.667048    0.912911   -0.053501
     33          6           0       -2.949801    3.887063   -0.632755
     34          6           0       -2.305315    1.404297   -0.050433
     35          6           0        7.578646    0.146008   -0.085188
     36          6           0        7.872425   -1.344327    0.028135
     37          6           0        6.255979    0.759303   -0.013317
     38          6           0       -0.942427    1.740621   -0.127272
     39          6           0        5.069946    0.084349   -0.082549
     40          6           0        0.067684    0.851467    0.202360
     41          6           0        3.846893    0.722399    0.020875
     42          6           0        1.484941    1.173124    0.051740
     43          6           0        2.515551    0.212208    0.160605
     44          6           0        2.298608   -1.325657    0.354568
     45          1           0      -13.279444   -2.528151   -1.394424
     46          1           0      -14.068373   -1.026364   -1.712654
     47          1           0      -13.641066    0.118548    1.972685
     48          1           0      -13.607052    0.787648    0.321205
     49          1           0      -14.724486   -1.426875    0.595429
     50          1           0      -10.632095   -2.413064   -1.944360
     51          1           0      -11.578573   -1.962103   -3.164823
     52          1           0      -10.373293   -0.993678   -2.882370
     53          1           0       -9.194911    0.812786   -1.292134
     54          1           0       -9.800336   -0.176601    2.244209
     55          1           0      -11.486333    0.032627    3.073786
     56          1           0      -11.251001   -1.387910    2.099610
     57          1           0      -12.103785    2.391344    0.418144
     58          1           0      -12.077159    2.240005    2.014999
     59          1           0      -10.522027    1.995641    1.205023
     60          1           0      -12.233014   -2.719031    1.061912
     61          1           0       -9.121399   -1.637331    0.644516
     62          1           0       -5.789406   -2.296550   -0.543552
     63          1           0       -5.637339   -1.782107    1.195440
     64          1           0       -7.052546   -2.729899    1.001830
     65          1           0       -7.079851    1.590497    0.007992
     66          1           0       -4.457164    0.095150    0.381809
     67          1           0       13.307273   -1.424956    2.066684
     68          1           0       11.849877   -2.043145    1.532562
     69          1           0       13.475007   -2.931227    0.122336
     70          1           0       12.977524   -1.733001   -2.073684
     71          1           0       11.511206   -2.292263   -0.973088
     72          1           0       11.545882    0.012983    3.518441
     73          1           0       10.418676    0.793515    2.598838
     74          1           0       10.275709   -0.929140    2.653055
     75          1           0       13.639159    1.122937    0.780779
     76          1           0       12.089647    1.986649    1.382707
     77          1           0       13.193395    1.187875    2.646902
     78          1           0       12.942820    0.624345   -2.989648
     79          1           0       11.722658    1.568799   -1.835555
     80          1           0       13.344367    0.942360   -1.233010
     81          1           0       -5.197927    2.870760   -0.597405
     82          1           0       10.086392   -0.003790   -2.276784
     83          1           0       14.943274   -0.908943    0.569301
     84          1           0        8.274704    1.917150   -0.109778
     85          1           0       -2.561676    4.450842    0.296470
     86          1           0       -2.233012    4.194858   -1.375820
     87          1           0       -3.782495    4.544801   -0.994204
     88          1           0       -2.540051    0.485381    0.163700
     89          1           0        6.908587   -1.744340   -0.261111
     90          1           0        8.650540   -1.633137   -0.621012
     91          1           0        8.035319   -1.448370    1.088083
     92          1           0        6.285731    1.842063   -0.125533
     93          1           0       -0.471972    2.818843   -0.384017
     94          1           0        4.883153   -1.057333   -0.016998
     95          1           0       -0.165843   -0.160573    0.459053
     96          1           0        3.753656    1.868996    0.026685
     97          1           0        1.751382    2.095070   -0.148365
     98          1           0        1.230040   -1.424969    0.499655
     99          1           0        2.636766   -1.907958   -0.473779
    100          1           0        2.867082   -1.709517    1.265154
 ---------------------------------------------------------------------

 SCF Done:  E(RCAM-B3LYP) =  -1857.32784828     A.U. after   15 cycles

 Excitation energies and oscillator strengths:

 Excited State   1:      Singlet-A      1.9610 eV  632.25 nm  f=3.3630  <S**2>=0.000
     163 ->166        -0.14768
     164 ->165         0.69230
 This state for optimization and/or second-order correction.
 Total Energy, E(TD-HF/TD-DFT) =  -1857.25578240
 Copying the excited state density for this state as the 1-particle RhoCI density.

 The electronic state is 1-A.
 Alpha  occ. eigenvalues --  -19.23274 -19.21473 -19.21132 -19.20415 -10.32450
 Alpha  occ. eigenvalues --  -10.31384 -10.31107 -10.31075 -10.30760 -10.28751
 Alpha  occ. eigenvalues --  -10.28525 -10.28205 -10.28015 -10.27898 -10.27410
 Alpha  occ. eigenvalues --  -10.27387 -10.27055 -10.27019 -10.26847 -10.26829
 Alpha  occ. eigenvalues --  -10.26725 -10.26622 -10.26572 -10.26570 -10.26559
 Alpha  occ. eigenvalues --  -10.26489 -10.26433 -10.26392 -10.26375 -10.26291
 Alpha  occ. eigenvalues --  -10.26267 -10.26138 -10.25981 -10.25729 -10.25572
 Alpha  occ. eigenvalues --  -10.25020 -10.24742 -10.24640 -10.24512 -10.24391
 Alpha  occ. eigenvalues --  -10.23998 -10.23857 -10.22857 -10.22767  -1.16102
 Alpha  occ. eigenvalues --   -1.11839  -1.09345  -1.08382  -0.94595  -0.92443
 Alpha  occ. eigenvalues --   -0.92002  -0.90748  -0.90236  -0.89486  -0.87632
 Alpha  occ. eigenvalues --   -0.87446  -0.87276  -0.86355  -0.85243  -0.83918
 Alpha  occ. eigenvalues --   -0.82724  -0.80997  -0.80509  -0.78683  -0.77801
 Alpha  occ. eigenvalues --   -0.77515  -0.76588  -0.76166  -0.76050  -0.76006
 Alpha  occ. eigenvalues --   -0.75730  -0.74028  -0.73216  -0.72107  -0.70665
 Alpha  occ. eigenvalues --   -0.68511  -0.67382  -0.65995  -0.65272  -0.64294
 Alpha  occ. eigenvalues --   -0.63521  -0.62671  -0.62028  -0.60173  -0.59984
 Alpha  occ. eigenvalues --   -0.59401  -0.59070  -0.58723  -0.57756  -0.56622
 Alpha  occ. eigenvalues --   -0.56094  -0.55779  -0.55441  -0.54786  -0.54055
 Alpha  occ. eigenvalues --   -0.53974  -0.53366  -0.53168  -0.52957  -0.52136
 Alpha  occ. eigenvalues --   -0.51986  -0.51031  -0.50910  -0.50448  -0.50232
 Alpha  occ. eigenvalues --   -0.49996  -0.49786  -0.49615  -0.49283  -0.48509
 Alpha  occ. eigenvalues --   -0.48320  -0.48034  -0.47706  -0.47503  -0.47049
 Alpha  occ. eigenvalues --   -0.46777  -0.46711  -0.45684  -0.45573  -0.45482
 Alpha  occ. eigenvalues --   -0.45060  -0.44853  -0.44347  -0.43948  -0.43859
 Alpha  occ. eigenvalues --   -0.43578  -0.43300  -0.43086  -0.42732  -0.42458
 Alpha  occ. eigenvalues --   -0.42183  -0.41979  -0.41949  -0.41429  -0.41071
 Alpha  occ. eigenvalues --   -0.40927  -0.40816  -0.40405  -0.39929  -0.39776
 Alpha  occ. eigenvalues --   -0.39643  -0.39501  -0.39357  -0.39123  -0.38835
 Alpha  occ. eigenvalues --   -0.38668  -0.38488  -0.37979  -0.37648  -0.37126
 Alpha  occ. eigenvalues --   -0.36863  -0.36379  -0.35349  -0.34729  -0.34110
 Alpha  occ. eigenvalues --   -0.33547  -0.32739  -0.31997  -0.31553  -0.30984
 Alpha  occ. eigenvalues --   -0.30657  -0.27787  -0.23055  -0.18916
 Alpha virt. eigenvalues --   -0.06525  -0.01987   0.02887   0.06300   0.06984
 Alpha virt. eigenvalues --    0.09840   0.10300   0.10562   0.11648   0.12117
 Alpha virt. eigenvalues --    0.12799   0.13263   0.13679   0.14025   0.14273

 Mulliken charges:
               1
     1  O   -0.524379
     2  O   -0.552173
     3  O   -0.567766
     4  O   -0.500707
     5  C    0.173192
     6  C    0.247982
     7  C    0.025206
     8  C   -0.224452
     9  C   -0.191021
    10  C    0.173790
    11  C   -0.320776
    12  C   -0.104173
    13  C   -0.277887
    14  C   -0.306854
    15  C   -0.089471
    16  C    0.051773
    17  C   -0.357050
    18  C   -0.107747
    19  C   -0.074299
    20  C   -0.005492
    21  C    0.208117
    22  C   -0.185620
    23  C    0.167539
    24  C   -0.183170
    25  C   -0.091922
    26  C   -0.305946
    27  C   -0.303621
    28  C   -0.268830
    29  C   -0.117335
    30  C    0.142827
    31  C    0.098998
    32  C   -0.246708
    33  C   -0.387655
    34  C   -0.094030
    35  C    0.100378
    36  C   -0.365386
    37  C   -0.123573
    38  C   -0.079855
    39  C   -0.089851
    40  C   -0.091046
    41  C   -0.119906
    42  C   -0.108786
    43  C    0.095725
    44  C   -0.370238
    45  H    0.108464
    46  H    0.101815
    47  H    0.077415
    48  H    0.124046
    49  H    0.105177
    50  H    0.122558
    51  H    0.117993
    52  H    0.115919
    53  H    0.117459
    54  H    0.073723
    55  H    0.112059
    56  H    0.069750
    57  H    0.116652
    58  H    0.092402
    59  H    0.109222
    60  H    0.304898
    61  H    0.065977
    62  H    0.107407
    63  H    0.129364
    64  H    0.112802
    65  H    0.101748
    66  H    0.070369
    67  H    0.083749
    68  H    0.110113
    69  H    0.076760
    70  H    0.109305
    71  H    0.109962
    72  H    0.075740
    73  H    0.123392
    74  H    0.105441
    75  H    0.111387
    76  H    0.108937
    77  H    0.093187
    78  H    0.095975
    79  H    0.081075
    80  H    0.124394
    81  H    0.072622
    82  H    0.299816
    83  H    0.297097
    84  H    0.087632
    85  H    0.117119
    86  H    0.123586
    87  H    0.107326
    88  H    0.077733
    89  H    0.102769
    90  H    0.139398
    91  H    0.129857
    92  H    0.086324
    93  H    0.083061
    94  H    0.086851
    95  H    0.077412
    96  H    0.064763
    97  H    0.071391
    98  H    0.109379
    99  H    0.134225
   100  H    0.117198
 Sum of Mulliken charges =  -0.00000

 Dipole moment (field-independent basis, Debye):
    X=              3.8236    Y=             -0.3741    Z=              2.3229  Tot=              4.4895
 Quadrupole moment (field-independent basis, Debye-Ang):
   XX=           -264.8093   YY=           -260.0209   ZZ=           -277.4304
   XY=              6.7103   XZ=             39.4889   YZ=             -2.3470

 Normal termination of Gaussian 16 at Tue Jul 30 22:40:42 2019.
