 Gaussian 16, Revision A.03,
 Gaussian 16:  ES64L-G16RevA.03 25-Dec-2016

 -------------------------------------
 # td=(NStates=1) CAM-B3LYP/6-31G(d,p)
 -------------------------------------

 --
 TD
 --
 Symbolic Z-matrix:
 Charge =  0 Multiplicity = 1

                         Standard orientation:
 ---------------------------------------------------------------------
 Center     Atomic      Atomic             Coordinates (Angstroms)
 Number     Number       Type             X           Y           Z
 ---------------------------------------------------------------------
      1          8           0      -11.711727    0.348293   -1.423679
      2          8           0      -12.990574   -2.436716    1.391334
      3          8           0       10.544192   -1.144478   -1.868685
      4          8           0       14.538318   -0.957635   -0.298477
      5          6           0      -11.017676   -0.131640   -0.212107
      6          6           0      -11.710012   -1.077966   -1.207104
      7          6           0      -11.641853    0.380785    1.098716
      8          6           0      -13.119979   -1.615405   -0.890874
      9          6           0      -13.184996    0.006730    1.051672
     10          6           0      -13.494421   -1.356236    0.639073
     11          6           0      -10.967287   -1.917375   -2.162352
     12          6           0       -9.553795    0.039318   -0.347915
     13          6           0      -11.021370   -0.205326    2.349786
     14          6           0      -11.593232    1.857360    1.047747
     15          6           0       -8.569298   -0.805581    0.004694
     16          6           0       -7.201969   -0.756088   -0.020439
     17          6           0       -6.367279   -2.017359    0.157381
     18          6           0       -6.616415    0.460280   -0.260382
     19          6           0       -5.208452    0.787736   -0.290172
     20          6           0       11.930662    0.075211    1.419080
     21          6           0       11.624111   -0.639035   -1.163179
     22          6           0       12.713249   -1.210791    1.559608
     23          6           0       13.385477   -1.820057    0.270573
     24          6           0       12.438448   -1.935261   -0.881801
     25          6           0       11.147903    0.056844   -0.016818
     26          6           0       11.240695    0.267122    2.622227
     27          6           0       12.953688    1.220848    1.169865
     28          6           0       12.447425    0.230210   -2.106816
     29          6           0       -4.805796    2.056748   -0.521264
     30          6           0        9.863083    0.462063    0.006514
     31          6           0       -3.409976    2.498642   -0.548179
     32          6           0        8.613002    0.912014   -0.140345
     33          6           0       -3.133333    3.989452   -0.603530
     34          6           0       -2.362871    1.603373   -0.346220
     35          6           0        7.441052    0.238327    0.055095
     36          6           0        7.542553   -1.357466    0.286610
     37          6           0        6.247247    0.783011    0.106211
     38          6           0       -1.034133    1.942121   -0.396188
     39          6           0        5.008534    0.206464    0.078329
     40          6           0       -0.016328    1.011957   -0.229329
     41          6           0        3.789377    0.897199   -0.113682
     42          6           0        1.339010    1.371567   -0.191971
     43          6           0        2.474074    0.507153   -0.054564
     44          6           0        2.269708   -0.970687    0.285588
     45          1           0      -13.119009   -2.768641   -1.045725
     46          1           0      -13.731957   -1.154152   -1.835987
     47          1           0      -13.862254    0.273281    1.984558
     48          1           0      -13.545306    0.740063    0.279011
     49          1           0      -14.640136   -1.562277    0.532139
     50          1           0      -10.666560   -2.916061   -1.633829
     51          1           0      -11.487718   -2.220627   -3.149265
     52          1           0      -10.123455   -1.312062   -2.630040
     53          1           0       -9.313368    1.015501   -0.975237
     54          1           0      -10.017161   -0.028377    2.415790
     55          1           0      -11.652194   -0.000201    3.361049
     56          1           0      -10.874769   -1.343207    2.149585
     57          1           0      -11.983540    2.322655    0.046682
     58          1           0      -12.346500    2.102449    1.711722
     59          1           0      -10.647735    2.212524    1.136959
     60          1           0      -12.154964   -2.746924    1.263874
     61          1           0       -9.114794   -1.692344    0.367301
     62          1           0       -5.563779   -2.239542   -0.691519
     63          1           0       -5.876371   -1.856755    1.047176
     64          1           0       -7.048207   -2.830271    0.282113
     65          1           0       -7.258015    1.336026   -0.167111
     66          1           0       -4.465516    0.098421    0.165779
     67          1           0       13.486102   -1.104216    2.306458
     68          1           0       12.090942   -2.078253    1.990899
     69          1           0       13.690324   -2.842018    0.479035
     70          1           0       12.911593   -2.363700   -1.830501
     71          1           0       11.475013   -2.698333   -0.393524
     72          1           0       12.047534    0.429425    3.356309
     73          1           0       10.368369    0.977803    2.544425
     74          1           0       10.411347   -0.539979    2.905323
     75          1           0       13.351445    1.064023    0.381897
     76          1           0       12.383980    2.096273    0.947731
     77          1           0       13.661384    1.267434    2.085283
     78          1           0       12.571198   -0.319548   -2.952427
     79          1           0       11.913178    1.232214   -2.190416
     80          1           0       13.527206    0.389942   -1.845436
     81          1           0       -5.524997    2.827563   -0.464769
     82          1           0       10.143946   -0.312488   -2.400756
     83          1           0       15.050928   -0.809877    0.475919
     84          1           0        8.648246    1.731366   -0.497479
     85          1           0       -2.223093    4.214862   -0.001703
     86          1           0       -2.630856    4.159091   -1.558320
     87          1           0       -3.870260    4.595197   -0.569000
     88          1           0       -2.679361    0.616346   -0.382024
     89          1           0        6.560630   -1.829510    0.305702
     90          1           0        8.212353   -1.780903   -0.185025
     91          1           0        7.856473   -1.388561    1.519983
     92          1           0        6.234439    1.851862   -0.211537
     93          1           0       -0.599215    2.795305   -0.606481
     94          1           0        4.742926   -0.827849    0.261115
     95          1           0       -0.165014   -0.097463    0.057521
     96          1           0        4.236570    1.964018   -0.518219
     97          1           0        1.476215    2.402489    0.106174
     98          1           0        1.172565   -1.060118    0.579363
     99          1           0        2.383039   -1.597298   -0.737109
    100          1           0        2.903520   -1.147859    1.001390
 ---------------------------------------------------------------------

 SCF Done:  E(RCAM-B3LYP) =  -1857.18216329     A.U. after   15 cycles

 Excitation energies and oscillator strengths:

 Excited State   1:      Singlet-A      2.0664 eV  600.00 nm  f=3.2152  <S**2>=0.000
     163 ->166         0.14034
     164 ->165         0.69394
 This state for optimization and/or second-order correction.
 Total Energy, E(TD-HF/TD-DFT) =  -1857.10622400
 Copying the excited state density for this state as the 1-particle RhoCI density.

 The electronic state is 1-A.
 Alpha  occ. eigenvalues --  -19.21879 -19.21830 -19.21757 -19.20556 -10.31966
 Alpha  occ. eigenvalues --  -10.31923 -10.31808 -10.31579 -10.31113 -10.27870
 Alpha  occ. eigenvalues --  -10.27846 -10.27769 -10.27632 -10.27565 -10.27521
 Alpha  occ. eigenvalues --  -10.27160 -10.27114 -10.27055 -10.27002 -10.26835
 Alpha  occ. eigenvalues --  -10.26823 -10.26775 -10.26713 -10.26711 -10.26709
 Alpha  occ. eigenvalues --  -10.26325 -10.26233 -10.26226 -10.26223 -10.26137
 Alpha  occ. eigenvalues --  -10.26044 -10.25870 -10.25675 -10.25642 -10.25444
 Alpha  occ. eigenvalues --  -10.25419 -10.25238 -10.25080 -10.25066 -10.25009
 Alpha  occ. eigenvalues --  -10.24410 -10.23978 -10.23031 -10.22935  -1.13361
 Alpha  occ. eigenvalues --   -1.10559  -1.10522  -1.07865  -0.93933  -0.92879
 Alpha  occ. eigenvalues --   -0.92750  -0.91982  -0.91305  -0.90601  -0.88100
 Alpha  occ. eigenvalues --   -0.86940  -0.86325  -0.85867  -0.84915  -0.83626
 Alpha  occ. eigenvalues --   -0.82950  -0.81384  -0.80755  -0.79215  -0.78288
 Alpha  occ. eigenvalues --   -0.77988  -0.77294  -0.76970  -0.76145  -0.75868
 Alpha  occ. eigenvalues --   -0.75079  -0.74812  -0.73525  -0.71028  -0.70145
 Alpha  occ. eigenvalues --   -0.69189  -0.67664  -0.65119  -0.64516  -0.64273
 Alpha  occ. eigenvalues --   -0.63765  -0.62362  -0.61592  -0.60621  -0.60302
 Alpha  occ. eigenvalues --   -0.59235  -0.58523  -0.57823  -0.57348  -0.57023
 Alpha  occ. eigenvalues --   -0.56552  -0.55846  -0.55755  -0.55080  -0.54778
 Alpha  occ. eigenvalues --   -0.53785  -0.53395  -0.53018  -0.52472  -0.52052
 Alpha  occ. eigenvalues --   -0.51886  -0.51655  -0.50659  -0.50193  -0.50053
 Alpha  occ. eigenvalues --   -0.49855  -0.49380  -0.49181  -0.49004  -0.48567
 Alpha  occ. eigenvalues --   -0.48123  -0.47952  -0.47688  -0.47517  -0.47329
 Alpha  occ. eigenvalues --   -0.46926  -0.46875  -0.46617  -0.45979  -0.45718
 Alpha  occ. eigenvalues --   -0.45577  -0.45425  -0.45192  -0.44924  -0.44663
 Alpha  occ. eigenvalues --   -0.44469  -0.44259  -0.43986  -0.43292  -0.42274
 Alpha  occ. eigenvalues --   -0.42113  -0.41867  -0.41487  -0.41305  -0.41220
 Alpha  occ. eigenvalues --   -0.41023  -0.40550  -0.39884  -0.39307  -0.39280
 Alpha  occ. eigenvalues --   -0.39126  -0.38946  -0.38523  -0.38415  -0.38380
 Alpha  occ. eigenvalues --   -0.38067  -0.37885  -0.37364  -0.37106  -0.36485
 Alpha  occ. eigenvalues --   -0.36304  -0.35483  -0.34476  -0.34128  -0.33684
 Alpha  occ. eigenvalues --   -0.33455  -0.33326  -0.32211  -0.31444  -0.31171
 Alpha  occ. eigenvalues --   -0.29199  -0.27885  -0.24338  -0.19311
 Alpha virt. eigenvalues --   -0.06383  -0.01369   0.02964   0.06211   0.06771
 Alpha virt. eigenvalues --    0.09395   0.09665   0.10041   0.11483   0.11646
 Alpha virt. eigenvalues --    0.12561   0.12913   0.13260   0.13562   0.13945

 Mulliken charges:
               1
     1  O   -0.513321
     2  O   -0.544578
     3  O   -0.552941
     4  O   -0.555014
     5  C    0.154954
     6  C    0.271154
     7  C    0.030289
     8  C   -0.220151
     9  C   -0.199942
    10  C    0.184579
    11  C   -0.339356
    12  C   -0.108883
    13  C   -0.282553
    14  C   -0.303703
    15  C   -0.078753
    16  C    0.096854
    17  C   -0.362175
    18  C   -0.134211
    19  C   -0.075546
    20  C    0.045451
    21  C    0.261996
    22  C   -0.197437
    23  C    0.126720
    24  C   -0.168634
    25  C   -0.092146
    26  C   -0.301997
    27  C   -0.265639
    28  C   -0.330290
    29  C   -0.118582
    30  C    0.108467
    31  C    0.078507
    32  C   -0.204038
    33  C   -0.366707
    34  C   -0.108079
    35  C    0.127806
    36  C   -0.322748
    37  C   -0.126786
    38  C   -0.065746
    39  C   -0.076149
    40  C   -0.080576
    41  C   -0.105645
    42  C   -0.134758
    43  C    0.054347
    44  C   -0.344452
    45  H    0.090010
    46  H    0.101080
    47  H    0.087309
    48  H    0.121408
    49  H    0.093071
    50  H    0.095624
    51  H    0.107483
    52  H    0.123001
    53  H    0.093458
    54  H    0.115478
    55  H    0.102778
    56  H    0.062427
    57  H    0.110330
    58  H    0.110568
    59  H    0.107388
    60  H    0.296281
    61  H    0.057598
    62  H    0.115736
    63  H    0.138935
    64  H    0.111304
    65  H    0.089057
    66  H    0.099699
    67  H    0.088012
    68  H    0.100219
    69  H    0.102714
    70  H    0.115767
    71  H    0.066240
    72  H    0.101480
    73  H    0.107035
    74  H    0.086002
    75  H    0.121931
    76  H    0.099931
    77  H    0.067831
    78  H    0.118815
    79  H    0.078413
    80  H    0.146214
    81  H    0.086235
    82  H    0.302972
    83  H    0.303146
    84  H    0.079862
    85  H    0.122198
    86  H    0.125776
    87  H    0.110646
    88  H    0.082599
    89  H    0.111562
    90  H    0.135770
    91  H    0.069311
    92  H    0.071214
    93  H    0.074241
    94  H    0.077713
    95  H    0.069172
    96  H    0.052771
    97  H    0.092680
    98  H    0.098193
    99  H    0.109161
   100  H    0.134563
 Sum of Mulliken charges =  -0.00000

 Dipole moment (field-independent basis, Debye):
    X=              3.5111    Y=             -0.2175    Z=              1.3937  Tot=              3.7839
 Quadrupole moment (field-independent basis, Debye-Ang):
   XX=           -274.6274   YY=           -260.6109   ZZ=           -274.2096
   XY=              1.8711   XZ=             19.5651   YZ=             -2.3956

 Normal termination of Gaussian 16 at Mon Jul 29 23:50:52 2019.
