 Gaussian 16, Revision A.03,
 Gaussian 16:  ES64L-G16RevA.03 25-Dec-2016

 -------------------------------------
 # td=(NStates=1) CAM-B3LYP/6-31G(d,p)
 -------------------------------------

 --
 TD
 --
 Symbolic Z-matrix:
 Charge =  0 Multiplicity = 1

                         Standard orientation:
 ---------------------------------------------------------------------
 Center     Atomic      Atomic             Coordinates (Angstroms)
 Number     Number       Type             X           Y           Z
 ---------------------------------------------------------------------
      1          8           0      -11.663383    0.660966   -1.086061
      2          8           0      -13.229724   -2.744403    0.736659
      3          8           0       10.728469   -0.514228   -2.265217
      4          8           0       14.524012   -0.768327   -0.217686
      5          6           0      -11.039257   -0.036307   -0.145433
      6          6           0      -11.651549   -0.687312   -1.385387
      7          6           0      -11.730673   -0.037224    1.235652
      8          6           0      -13.033736   -1.406701   -1.310612
      9          6           0      -13.224895   -0.353475    1.089936
     10          6           0      -13.582924   -1.553633    0.143944
     11          6           0      -10.918689   -1.068777   -2.654216
     12          6           0       -9.585971    0.154010   -0.226230
     13          6           0      -11.053808   -0.939891    2.327971
     14          6           0      -11.624594    1.445655    1.798606
     15          6           0       -8.597944   -0.776675    0.029321
     16          6           0       -7.261957   -0.549424   -0.007142
     17          6           0       -6.305936   -1.766149    0.018536
     18          6           0       -6.665892    0.675298   -0.129776
     19          6           0       -5.327447    0.975090   -0.123356
     20          6           0       11.879599   -0.419831    1.440024
     21          6           0       11.758720   -0.283928   -1.202953
     22          6           0       12.680896   -1.606677    1.287323
     23          6           0       13.555531   -1.764573   -0.062482
     24          6           0       12.560092   -1.559448   -1.220986
     25          6           0       11.128767   -0.069648    0.171300
     26          6           0       10.898067   -0.584290    2.644226
     27          6           0       12.708864    0.904994    1.867660
     28          6           0       12.644430    0.956563   -1.719367
     29          6           0       -4.815275    2.243497   -0.047738
     30          6           0        9.923396    0.500420    0.206417
     31          6           0       -3.346685    2.563332   -0.017216
     32          6           0        8.620123    0.938947    0.100723
     33          6           0       -2.969842    4.055369   -0.234186
     34          6           0       -2.406274    1.644345   -0.065808
     35          6           0        7.464388    0.047755   -0.023164
     36          6           0        7.648878   -1.470948   -0.081393
     37          6           0        6.217697    0.645570   -0.092911
     38          6           0       -1.013285    1.924940   -0.217146
     39          6           0        4.978879    0.089621   -0.201181
     40          6           0        0.012960    0.987638   -0.025933
     41          6           0        3.811197    0.912412   -0.287169
     42          6           0        1.400470    1.256344   -0.236727
     43          6           0        2.392549    0.358758   -0.252116
     44          6           0        2.176595   -1.182911   -0.171581
     45          1           0      -12.980888   -2.403471   -1.803113
     46          1           0      -13.676834   -0.665702   -1.903116
     47          1           0      -13.816872   -0.595402    2.013469
     48          1           0      -13.572934    0.640013    0.661231
     49          1           0      -14.645069   -1.636903    0.234985
     50          1           0      -10.302336   -2.045109   -2.501119
     51          1           0      -11.735066   -1.111357   -3.419100
     52          1           0      -10.362574   -0.017951   -3.061988
     53          1           0       -9.251690    1.163638   -0.588322
     54          1           0      -10.039461   -0.645997    2.428499
     55          1           0      -11.654086   -0.940345    3.334987
     56          1           0      -11.032206   -2.104657    1.872327
     57          1           0      -12.065629    2.229447    1.258974
     58          1           0      -12.073247    1.459477    2.770895
     59          1           0      -10.414158    1.688273    1.985683
     60          1           0      -12.198952   -3.024063    0.629264
     61          1           0       -9.022490   -1.735494    0.066933
     62          1           0       -5.504172   -1.791597   -0.939286
     63          1           0       -5.744608   -1.882846    1.057897
     64          1           0       -6.891237   -2.858597   -0.273609
     65          1           0       -7.414124    1.565477   -0.401620
     66          1           0       -4.611481    0.231294   -0.060602
     67          1           0       13.525068   -1.805296    2.172234
     68          1           0       12.099749   -2.586989    1.449611
     69          1           0       14.151419   -2.664532   -0.055366
     70          1           0       13.101748   -1.690222   -2.144010
     71          1           0       11.699244   -2.350291   -1.320012
     72          1           0       11.347733   -0.871394    3.472581
     73          1           0       10.567017    0.379555    2.876967
     74          1           0       10.236286   -1.524022    2.377302
     75          1           0       13.662221    1.229880    1.247343
     76          1           0       12.150772    2.015816    1.966473
     77          1           0       13.132050    0.637200    2.847998
     78          1           0       12.847299    0.748911   -2.776384
     79          1           0       11.946320    1.839392   -1.593783
     80          1           0       13.510864    0.950471   -1.126186
     81          1           0       -5.449198    3.113369    0.156962
     82          1           0       10.028728    0.138576   -2.113965
     83          1           0       15.114025   -0.867081    0.533542
     84          1           0        8.744317    2.030706    0.160530
     85          1           0       -2.224115    4.240091    0.615017
     86          1           0       -2.554156    4.171442   -1.218231
     87          1           0       -3.782476    4.719907    0.065570
     88          1           0       -2.654087    0.658935   -0.119367
     89          1           0        6.744957   -1.931007   -0.121616
     90          1           0        8.206461   -1.798998   -0.723701
     91          1           0        8.132678   -1.583720    0.926553
     92          1           0        6.125635    1.769636   -0.048401
     93          1           0       -0.734061    3.089287   -0.429741
     94          1           0        4.910389   -1.099068   -0.105002
     95          1           0       -0.264577   -0.048868    0.236461
     96          1           0        4.009369    2.006475   -0.514698
     97          1           0        1.664102    2.299166   -0.269854
     98          1           0        1.170727   -1.347298   -0.191735
     99          1           0        2.482976   -1.841909   -0.948163
    100          1           0        2.652850   -1.594735    0.693677
 ---------------------------------------------------------------------

 SCF Done:  E(RCAM-B3LYP) =  -1857.33350168     A.U. after   15 cycles

 Excitation energies and oscillator strengths:

 Excited State   1:      Singlet-A      2.4587 eV  504.26 nm  f=3.1542  <S**2>=0.000
     163 ->166         0.18257
     164 ->165         0.67271
 This state for optimization and/or second-order correction.
 Total Energy, E(TD-HF/TD-DFT) =  -1857.24314440
 Copying the excited state density for this state as the 1-particle RhoCI density.

 The electronic state is 1-A.
 Alpha  occ. eigenvalues --  -19.23022 -19.22250 -19.21654 -19.19742 -10.32342
 Alpha  occ. eigenvalues --  -10.31960 -10.31698 -10.31605 -10.30344 -10.29581
 Alpha  occ. eigenvalues --  -10.28902 -10.28378 -10.28158 -10.28090 -10.28036
 Alpha  occ. eigenvalues --  -10.27956 -10.27899 -10.27854 -10.27623 -10.27357
 Alpha  occ. eigenvalues --  -10.27339 -10.27244 -10.27182 -10.27095 -10.26943
 Alpha  occ. eigenvalues --  -10.26861 -10.26837 -10.26808 -10.26790 -10.26404
 Alpha  occ. eigenvalues --  -10.26394 -10.25895 -10.25697 -10.25663 -10.25657
 Alpha  occ. eigenvalues --  -10.25504 -10.25309 -10.25168 -10.24974 -10.24742
 Alpha  occ. eigenvalues --  -10.24424 -10.24339 -10.23442 -10.23214  -1.20773
 Alpha  occ. eigenvalues --   -1.11773  -1.09101  -1.06568  -0.93242  -0.92560
 Alpha  occ. eigenvalues --   -0.91461  -0.91023  -0.89878  -0.89438  -0.86741
 Alpha  occ. eigenvalues --   -0.85907  -0.85710  -0.85596  -0.83776  -0.82599
 Alpha  occ. eigenvalues --   -0.81480  -0.80044  -0.79786  -0.78560  -0.77608
 Alpha  occ. eigenvalues --   -0.76589  -0.75713  -0.75187  -0.75100  -0.74840
 Alpha  occ. eigenvalues --   -0.74419  -0.73884  -0.73326  -0.70355  -0.70108
 Alpha  occ. eigenvalues --   -0.68519  -0.66827  -0.65370  -0.65042  -0.64835
 Alpha  occ. eigenvalues --   -0.63327  -0.61576  -0.60785  -0.60019  -0.59765
 Alpha  occ. eigenvalues --   -0.58861  -0.58295  -0.58095  -0.57286  -0.56475
 Alpha  occ. eigenvalues --   -0.56206  -0.55497  -0.54675  -0.53929  -0.53862
 Alpha  occ. eigenvalues --   -0.53513  -0.52659  -0.52473  -0.52123  -0.51242
 Alpha  occ. eigenvalues --   -0.50465  -0.50404  -0.50203  -0.49958  -0.49616
 Alpha  occ. eigenvalues --   -0.49484  -0.49053  -0.48596  -0.48422  -0.48279
 Alpha  occ. eigenvalues --   -0.48100  -0.47712  -0.47471  -0.47155  -0.46674
 Alpha  occ. eigenvalues --   -0.46613  -0.46261  -0.46173  -0.45426  -0.45362
 Alpha  occ. eigenvalues --   -0.45211  -0.44898  -0.44574  -0.44160  -0.44046
 Alpha  occ. eigenvalues --   -0.43751  -0.43471  -0.42898  -0.42750  -0.42536
 Alpha  occ. eigenvalues --   -0.42389  -0.42003  -0.41781  -0.40907  -0.40827
 Alpha  occ. eigenvalues --   -0.40595  -0.40555  -0.40184  -0.39888  -0.39849
 Alpha  occ. eigenvalues --   -0.39361  -0.39273  -0.39054  -0.38937  -0.38548
 Alpha  occ. eigenvalues --   -0.38227  -0.38175  -0.37553  -0.37396  -0.37092
 Alpha  occ. eigenvalues --   -0.36569  -0.36153  -0.35526  -0.34325  -0.33248
 Alpha  occ. eigenvalues --   -0.32721  -0.32409  -0.31990  -0.31338  -0.30275
 Alpha  occ. eigenvalues --   -0.29144  -0.27322  -0.23334  -0.20373
 Alpha virt. eigenvalues --   -0.04962  -0.01591   0.02894   0.06540   0.07339
 Alpha virt. eigenvalues --    0.08043   0.09669   0.10044   0.12479   0.12614
 Alpha virt. eigenvalues --    0.12883   0.13081   0.13268   0.13540   0.14175

 Mulliken charges:
               1
     1  O   -0.466195
     2  O   -0.548605
     3  O   -0.579765
     4  O   -0.523298
     5  C    0.224973
     6  C    0.217790
     7  C    0.009439
     8  C   -0.220826
     9  C   -0.188063
    10  C    0.173247
    11  C   -0.332152
    12  C   -0.105037
    13  C   -0.274362
    14  C   -0.310355
    15  C   -0.088364
    16  C    0.114915
    17  C   -0.357178
    18  C   -0.108313
    19  C   -0.049777
    20  C    0.029506
    21  C    0.220434
    22  C   -0.202564
    23  C    0.143800
    24  C   -0.183558
    25  C   -0.025949
    26  C   -0.289505
    27  C   -0.308783
    28  C   -0.292217
    29  C   -0.123498
    30  C    0.036183
    31  C    0.054211
    32  C   -0.222742
    33  C   -0.372437
    34  C   -0.078685
    35  C    0.052247
    36  C   -0.323169
    37  C   -0.081636
    38  C   -0.103628
    39  C   -0.081717
    40  C   -0.106149
    41  C   -0.149380
    42  C   -0.104186
    43  C    0.092774
    44  C   -0.367864
    45  H    0.106125
    46  H    0.110791
    47  H    0.099338
    48  H    0.094999
    49  H    0.100530
    50  H    0.113865
    51  H    0.116761
    52  H    0.104030
    53  H    0.094321
    54  H    0.122075
    55  H    0.105006
    56  H    0.035399
    57  H    0.122519
    58  H    0.109295
    59  H    0.072872
    60  H    0.301611
    61  H    0.072594
    62  H    0.100357
    63  H    0.119086
    64  H    0.074414
    65  H    0.073168
    66  H    0.085760
    67  H    0.048415
    68  H    0.101408
    69  H    0.084436
    70  H    0.111829
    71  H    0.105070
    72  H    0.110844
    73  H    0.118997
    74  H    0.092007
    75  H    0.103447
    76  H    0.087189
    77  H    0.097302
    78  H    0.115053
    79  H    0.077445
    80  H    0.139910
    81  H    0.082053
    82  H    0.302716
    83  H    0.305743
    84  H    0.122236
    85  H    0.116858
    86  H    0.140705
    87  H    0.107720
    88  H    0.076532
    89  H    0.106080
    90  H    0.138250
    91  H    0.118581
    92  H    0.076206
    93  H    0.077191
    94  H    0.077705
    95  H    0.086398
    96  H    0.092490
    97  H    0.083981
    98  H    0.110320
    99  H    0.124797
   100  H    0.125610
 Sum of Mulliken charges =  -0.00000

 Dipole moment (field-independent basis, Debye):
    X=              1.6864    Y=             -1.0466    Z=              2.1696  Tot=              2.9405
 Quadrupole moment (field-independent basis, Debye-Ang):
   XX=           -263.5817   YY=           -258.1269   ZZ=           -277.6418
   XY=            -12.6506   XZ=             43.2809   YZ=              0.5462

 Normal termination of Gaussian 16 at Tue Jul 30 02:25:25 2019.
