 Gaussian 16, Revision A.03,
 Gaussian 16:  ES64L-G16RevA.03 25-Dec-2016

 -------------------------------------
 # td=(NStates=1) CAM-B3LYP/6-31G(d,p)
 -------------------------------------

 --
 TD
 --
 Symbolic Z-matrix:
 Charge =  0 Multiplicity = 1

                         Standard orientation:
 ---------------------------------------------------------------------
 Center     Atomic      Atomic             Coordinates (Angstroms)
 Number     Number       Type             X           Y           Z
 ---------------------------------------------------------------------
      1          8           0      -11.733571    0.313537   -1.457017
      2          8           0      -12.874861   -2.615440    1.212085
      3          8           0       10.590748   -1.118903   -2.030686
      4          8           0       14.478803   -1.192341   -0.070715
      5          6           0      -10.964183   -0.115864   -0.214476
      6          6           0      -11.518884   -1.162088   -1.220408
      7          6           0      -11.791182    0.202328    1.011179
      8          6           0      -12.875841   -1.845924   -1.137864
      9          6           0      -13.334781   -0.261340    0.884212
     10          6           0      -13.512589   -1.722912    0.395583
     11          6           0      -10.684936   -1.791344   -2.282104
     12          6           0       -9.579533    0.196135   -0.192581
     13          6           0      -11.136295   -0.314498    2.324473
     14          6           0      -11.902522    1.729061    1.117751
     15          6           0       -8.684645   -0.750639    0.081050
     16          6           0       -7.241957   -0.514486    0.228974
     17          6           0       -6.309498   -1.717560    0.442330
     18          6           0       -6.605860    0.597496   -0.039381
     19          6           0       -5.245502    1.018953   -0.049378
     20          6           0       11.937477    0.058566    1.312510
     21          6           0       11.670890   -0.690170   -1.207206
     22          6           0       12.631234   -1.250018    1.564730
     23          6           0       13.396022   -1.889498    0.367772
     24          6           0       12.459958   -2.002591   -0.732124
     25          6           0       11.077266    0.031871    0.009525
     26          6           0       11.020433    0.479614    2.535801
     27          6           0       12.961396    1.222123    1.201605
     28          6           0       12.552729    0.147662   -2.016729
     29          6           0       -4.737477    2.317605   -0.335084
     30          6           0        9.853458    0.435780    0.027337
     31          6           0       -3.354452    2.659162   -0.380364
     32          6           0        8.635971    0.921024   -0.238358
     33          6           0       -3.063611    4.134571   -0.624008
     34          6           0       -2.385736    1.717594   -0.406092
     35          6           0        7.371618    0.145957   -0.010392
     36          6           0        7.496939   -1.300681    0.268563
     37          6           0        6.224276    0.705400   -0.107124
     38          6           0       -1.075711    2.029812   -0.455334
     39          6           0        4.921445    0.130810    0.063565
     40          6           0        0.074636    0.963508   -0.346157
     41          6           0        3.778980    0.963099   -0.123507
     42          6           0        1.366061    1.304747   -0.164723
     43          6           0        2.516106    0.537091    0.039444
     44          6           0        2.239505   -1.070766    0.113037
     45          1           0      -12.962949   -2.809668   -1.380847
     46          1           0      -13.511648   -1.236130   -1.932468
     47          1           0      -13.711886   -0.583129    1.939920
     48          1           0      -13.755205    0.486859    0.228459
     49          1           0      -14.495876   -1.995175    0.598489
     50          1           0      -10.631041   -2.909636   -2.158231
     51          1           0      -11.239143   -1.563144   -3.249729
     52          1           0       -9.788054   -1.131209   -2.391342
     53          1           0       -9.436189    1.243391   -0.483633
     54          1           0      -10.279808    0.181410    2.519080
     55          1           0      -11.891809   -0.305246    3.149529
     56          1           0      -11.105802   -1.504257    2.252619
     57          1           0      -12.348919    2.213457    0.230980
     58          1           0      -12.545421    1.981810    2.078352
     59          1           0      -11.007105    2.236938    1.340020
     60          1           0      -11.922496   -2.513308    1.220020
     61          1           0       -8.926519   -1.719075    0.489400
     62          1           0       -5.745582   -1.776118   -0.465994
     63          1           0       -5.690525   -1.511807    1.284877
     64          1           0       -6.746151   -2.666082    0.723837
     65          1           0       -7.243316    1.491055   -0.154911
     66          1           0       -4.545755    0.163745    0.082970
     67          1           0       13.312035   -1.389600    2.475188
     68          1           0       11.773561   -2.000769    1.747753
     69          1           0       13.595697   -3.001793    0.668226
     70          1           0       12.958616   -2.100022   -1.784034
     71          1           0       11.848850   -2.816792   -0.581661
     72          1           0       11.791405    0.574611    3.383876
     73          1           0       10.666780    1.620497    2.620139
     74          1           0       10.469062   -0.233991    2.860336
     75          1           0       13.959196    0.951498    0.559139
     76          1           0       12.526065    2.306341    0.859483
     77          1           0       13.302199    1.254143    2.153316
     78          1           0       12.728181   -0.340838   -3.036253
     79          1           0       11.989647    1.105501   -2.311054
     80          1           0       13.583173    0.497003   -1.810113
     81          1           0       -5.449159    3.165246   -0.293772
     82          1           0       10.227410   -0.220461   -2.180119
     83          1           0       15.363144   -1.137090    0.505761
     84          1           0        8.565426    1.936209   -0.581401
     85          1           0       -2.399918    4.558111   -0.024828
     86          1           0       -2.596881    4.522296   -1.599403
     87          1           0       -4.039407    4.755712   -0.697479
     88          1           0       -2.798483    0.758588   -0.404217
     89          1           0        6.538844   -1.982705    0.223859
     90          1           0        8.239884   -1.686535   -0.447402
     91          1           0        7.879070   -1.543836    1.340208
     92          1           0        6.290315    1.717479   -0.385715
     93          1           0       -0.537582    3.060596   -0.350037
     94          1           0        5.063659   -0.963781    0.214974
     95          1           0       -0.371724   -0.020620    0.165316
     96          1           0        3.999244    2.080124   -0.443140
     97          1           0        1.605572    2.389889   -0.579606
     98          1           0        1.145502   -1.218129    0.290816
     99          1           0        2.748729   -1.513996   -0.874273
    100          1           0        2.776898   -1.449909    0.929098
 ---------------------------------------------------------------------

 SCF Done:  E(RCAM-B3LYP) =  -1857.29431674     A.U. after   16 cycles

 Excitation energies and oscillator strengths:

 Excited State   1:      Singlet-A      1.7902 eV  692.59 nm  f=2.8231  <S**2>=0.000
     163 ->166        -0.10206
     164 ->165         0.71328
     164 <-165        -0.15674
 This state for optimization and/or second-order correction.
 Total Energy, E(TD-HF/TD-DFT) =  -1857.22852970
 Copying the excited state density for this state as the 1-particle RhoCI density.

 The electronic state is 1-A.
 Alpha  occ. eigenvalues --  -19.23345 -19.21287 -19.21154 -19.20936 -10.32037
 Alpha  occ. eigenvalues --  -10.31918 -10.31807 -10.31651 -10.29987 -10.28745
 Alpha  occ. eigenvalues --  -10.28458 -10.28147 -10.27534 -10.27528 -10.27391
 Alpha  occ. eigenvalues --  -10.27382 -10.27351 -10.27338 -10.27335 -10.27312
 Alpha  occ. eigenvalues --  -10.27290 -10.27029 -10.26818 -10.26690 -10.26629
 Alpha  occ. eigenvalues --  -10.26524 -10.26491 -10.26450 -10.26329 -10.26045
 Alpha  occ. eigenvalues --  -10.25560 -10.25543 -10.25447 -10.25443 -10.25325
 Alpha  occ. eigenvalues --  -10.25255 -10.25208 -10.25103 -10.25091 -10.25067
 Alpha  occ. eigenvalues --  -10.24803 -10.24715 -10.24546 -10.23966  -1.11479
 Alpha  occ. eigenvalues --   -1.11327  -1.10490  -1.09753  -0.92959  -0.92710
 Alpha  occ. eigenvalues --   -0.92156  -0.91797  -0.90382  -0.89883  -0.86760
 Alpha  occ. eigenvalues --   -0.86483  -0.85920  -0.85166  -0.84809  -0.83054
 Alpha  occ. eigenvalues --   -0.81891  -0.80641  -0.80325  -0.78540  -0.76862
 Alpha  occ. eigenvalues --   -0.76745  -0.76152  -0.76119  -0.75579  -0.75321
 Alpha  occ. eigenvalues --   -0.75257  -0.75023  -0.72971  -0.71002  -0.70171
 Alpha  occ. eigenvalues --   -0.69306  -0.67455  -0.66063  -0.64499  -0.64159
 Alpha  occ. eigenvalues --   -0.63739  -0.62823  -0.60191  -0.59771  -0.59402
 Alpha  occ. eigenvalues --   -0.59206  -0.58234  -0.57453  -0.57067  -0.55916
 Alpha  occ. eigenvalues --   -0.55548  -0.55306  -0.54868  -0.54500  -0.54272
 Alpha  occ. eigenvalues --   -0.53329  -0.52970  -0.52755  -0.52372  -0.52043
 Alpha  occ. eigenvalues --   -0.51718  -0.51600  -0.51023  -0.50100  -0.49982
 Alpha  occ. eigenvalues --   -0.49773  -0.49541  -0.49051  -0.48911  -0.48349
 Alpha  occ. eigenvalues --   -0.48255  -0.47890  -0.47454  -0.47226  -0.46985
 Alpha  occ. eigenvalues --   -0.46370  -0.46050  -0.45617  -0.45107  -0.44734
 Alpha  occ. eigenvalues --   -0.44472  -0.44403  -0.44311  -0.44165  -0.43799
 Alpha  occ. eigenvalues --   -0.43544  -0.43248  -0.42772  -0.42473  -0.42306
 Alpha  occ. eigenvalues --   -0.42293  -0.42115  -0.41462  -0.41339  -0.41005
 Alpha  occ. eigenvalues --   -0.40226  -0.40027  -0.39856  -0.39782  -0.39397
 Alpha  occ. eigenvalues --   -0.39200  -0.38958  -0.38807  -0.38416  -0.38240
 Alpha  occ. eigenvalues --   -0.37922  -0.37570  -0.37507  -0.37317  -0.36470
 Alpha  occ. eigenvalues --   -0.36443  -0.36235  -0.35454  -0.34047  -0.33319
 Alpha  occ. eigenvalues --   -0.33263  -0.32387  -0.31818  -0.31588  -0.30160
 Alpha  occ. eigenvalues --   -0.30012  -0.28207  -0.25474  -0.18395
 Alpha virt. eigenvalues --   -0.07645  -0.00500   0.03193   0.06519   0.07502
 Alpha virt. eigenvalues --    0.08551   0.08901   0.09753   0.11397   0.12170
 Alpha virt. eigenvalues --    0.12470   0.12893   0.13535   0.13660   0.13818

 Mulliken charges:
               1
     1  O   -0.539832
     2  O   -0.535054
     3  O   -0.551445
     4  O   -0.543000
     5  C    0.223646
     6  C    0.204211
     7  C    0.000810
     8  C   -0.198609
     9  C   -0.181189
    10  C    0.140714
    11  C   -0.324706
    12  C   -0.109581
    13  C   -0.297837
    14  C   -0.319426
    15  C   -0.059248
    16  C    0.059416
    17  C   -0.388621
    18  C   -0.104395
    19  C   -0.085895
    20  C    0.011727
    21  C    0.224824
    22  C   -0.205673
    23  C    0.189209
    24  C   -0.177791
    25  C   -0.038578
    26  C   -0.293569
    27  C   -0.289974
    28  C   -0.311432
    29  C   -0.134680
    30  C    0.127884
    31  C    0.109387
    32  C   -0.276382
    33  C   -0.377137
    34  C   -0.060434
    35  C    0.139271
    36  C   -0.391538
    37  C   -0.099363
    38  C   -0.125007
    39  C   -0.076700
    40  C   -0.113233
    41  C   -0.125729
    42  C   -0.109753
    43  C    0.092570
    44  C   -0.346720
    45  H    0.105187
    46  H    0.104947
    47  H    0.092561
    48  H    0.118552
    49  H    0.101060
    50  H    0.106105
    51  H    0.117128
    52  H    0.120356
    53  H    0.126423
    54  H    0.123213
    55  H    0.115559
    56  H    0.050451
    57  H    0.124926
    58  H    0.087551
    59  H    0.098707
    60  H    0.303758
    61  H    0.086821
    62  H    0.136473
    63  H    0.127199
    64  H    0.100414
    65  H    0.062863
    66  H    0.079681
    67  H    0.085337
    68  H    0.090741
    69  H    0.065931
    70  H    0.102043
    71  H    0.115239
    72  H    0.077366
    73  H    0.106873
    74  H    0.112804
    75  H    0.093588
    76  H    0.084702
    77  H    0.104479
    78  H    0.111224
    79  H    0.074655
    80  H    0.138607
    81  H    0.090871
    82  H    0.302334
    83  H    0.319983
    84  H    0.111138
    85  H    0.132067
    86  H    0.110799
    87  H    0.096432
    88  H    0.084946
    89  H    0.095837
    90  H    0.143765
    91  H    0.107467
    92  H    0.060357
    93  H    0.096347
    94  H    0.087424
    95  H    0.080775
    96  H    0.089396
    97  H    0.064786
    98  H    0.103376
    99  H    0.113459
   100  H    0.123778
 Sum of Mulliken charges =  -0.00000

 Dipole moment (field-independent basis, Debye):
    X=              6.1332    Y=              0.0812    Z=              2.4270  Tot=              6.5964
 Quadrupole moment (field-independent basis, Debye-Ang):
   XX=           -238.4789   YY=           -260.2845   ZZ=           -277.3310
   XY=              0.2467   XZ=             19.4258   YZ=             -5.0971

 Normal termination of Gaussian 16 at Fri Aug  2 01:22:45 2019.
