 Gaussian 16, Revision A.03,
 Gaussian 16:  ES64L-G16RevA.03 25-Dec-2016

 -------------------------------------
 # td=(NStates=1) CAM-B3LYP/6-31G(d,p)
 -------------------------------------

 --
 TD
 --
 Symbolic Z-matrix:
 Charge =  0 Multiplicity = 1

                         Standard orientation:
 ---------------------------------------------------------------------
 Center     Atomic      Atomic             Coordinates (Angstroms)
 Number     Number       Type             X           Y           Z
 ---------------------------------------------------------------------
      1          8           0      -11.657832    0.294359   -1.458584
      2          8           0      -13.211102   -2.609998    1.145562
      3          8           0       10.469979   -1.014918   -2.062242
      4          8           0       14.476299   -1.082740   -0.132874
      5          6           0      -11.053228   -0.192260   -0.236549
      6          6           0      -11.544693   -1.075245   -1.259328
      7          6           0      -11.824264    0.197384    0.995016
      8          6           0      -12.858372   -1.786448   -1.051357
      9          6           0      -13.319418   -0.163118    0.870628
     10          6           0      -13.642950   -1.603492    0.228390
     11          6           0      -10.595591   -1.712548   -2.330857
     12          6           0       -9.595035    0.216009   -0.262617
     13          6           0      -11.226088   -0.501615    2.270196
     14          6           0      -11.744848    1.799852    1.263931
     15          6           0       -8.649130   -0.672978    0.239488
     16          6           0       -7.164308   -0.492793    0.178024
     17          6           0       -6.333324   -1.682873    0.666687
     18          6           0       -6.682613    0.723051   -0.158451
     19          6           0       -5.252463    0.959977   -0.156453
     20          6           0       11.999130    0.005842    1.394362
     21          6           0       11.571910   -0.679444   -1.315431
     22          6           0       12.668372   -1.397126    1.518152
     23          6           0       13.406359   -1.851282    0.219694
     24          6           0       12.461688   -1.926905   -1.019075
     25          6           0       11.182260    0.000834    0.099420
     26          6           0       10.988373    0.127955    2.592752
     27          6           0       12.937612    1.185573    1.436331
     28          6           0       12.405391    0.338879   -2.012367
     29          6           0       -4.693665    2.191821   -0.330210
     30          6           0        9.913058    0.552374   -0.039301
     31          6           0       -3.384253    2.575546   -0.362723
     32          6           0        8.683681    0.977055   -0.114695
     33          6           0       -3.025773    4.052915   -0.450256
     34          6           0       -2.331162    1.597740   -0.317852
     35          6           0        7.507562    0.218994   -0.019064
     36          6           0        7.567285   -1.244176    0.456802
     37          6           0        6.250230    0.923641   -0.155396
     38          6           0       -0.950658    1.899640   -0.414796
     39          6           0        4.998520    0.240943   -0.052252
     40          6           0        0.041352    0.985296   -0.235671
     41          6           0        3.756552    0.936908   -0.268671
     42          6           0        1.390166    1.280061   -0.227722
     43          6           0        2.554971    0.387356   -0.132594
     44          6           0        2.320019   -1.163795    0.009575
     45          1           0      -12.536351   -2.684484   -1.179179
     46          1           0      -13.468306   -1.333586   -1.853561
     47          1           0      -13.840378   -0.331288    1.983749
     48          1           0      -13.897291    0.542103    0.288541
     49          1           0      -14.665517   -1.901339    0.046641
     50          1           0      -10.363959   -2.647302   -1.985469
     51          1           0      -11.146670   -1.836441   -3.240061
     52          1           0       -9.733040   -0.973858   -2.669289
     53          1           0       -9.386441    1.099966   -0.844193
     54          1           0      -10.231091   -0.039893    2.497612
     55          1           0      -11.886300   -0.355830    3.091883
     56          1           0      -10.965003   -1.662902    2.282946
     57          1           0      -11.834710    2.235548    0.347856
     58          1           0      -12.439347    2.368456    1.932132
     59          1           0      -10.733396    2.037362    1.545691
     60          1           0      -12.326528   -2.837177    0.922592
     61          1           0       -9.015609   -1.586444    0.732769
     62          1           0       -5.658771   -1.972460   -0.213703
     63          1           0       -5.810567   -1.233517    1.498217
     64          1           0       -7.032834   -2.333766    1.108357
     65          1           0       -7.418301    1.514073   -0.164059
     66          1           0       -4.742931   -0.074449   -0.253632
     67          1           0       13.346729   -1.527020    2.238059
     68          1           0       11.781862   -2.036833    1.758527
     69          1           0       13.684343   -2.896490    0.346638
     70          1           0       13.031832   -2.182354   -1.827500
     71          1           0       11.810767   -2.621542   -0.534398
     72          1           0       11.759920    0.021130    3.273933
     73          1           0       10.599112    1.182992    2.478275
     74          1           0       10.313992   -0.611166    2.461048
     75          1           0       13.887902    1.167783    0.737788
     76          1           0       12.297962    2.044586    1.314473
     77          1           0       13.254708    1.155933    2.412231
     78          1           0       12.986889   -0.103497   -2.887913
     79          1           0       11.797707    1.070571   -2.341510
     80          1           0       13.282722    0.709107   -1.394182
     81          1           0       -5.234154    3.133967   -0.432131
     82          1           0        9.801100   -0.339946   -1.998159
     83          1           0       15.438829   -1.637530    0.396613
     84          1           0        8.654178    2.043864   -0.228134
     85          1           0       -2.857235    4.676736    0.639346
     86          1           0       -2.169248    4.458683   -1.014778
     87          1           0       -3.999441    4.485596   -1.065523
     88          1           0       -2.619622    0.726148    0.004690
     89          1           0        6.540122   -1.760036    0.724804
     90          1           0        8.219191   -1.891654   -0.236995
     91          1           0        8.053890   -1.237537    1.551990
     92          1           0        6.433112    1.983506   -0.358176
     93          1           0       -0.602684    2.912750   -0.770555
     94          1           0        5.061951   -0.896644    0.205905
     95          1           0       -0.602825    0.076009    0.142807
     96          1           0        3.734901    1.991624   -0.397710
     97          1           0        1.710569    2.289221   -0.347128
     98          1           0        1.402525   -1.360038   -0.079863
     99          1           0        2.789441   -1.714044   -0.737572
    100          1           0        2.527602   -1.377566    1.059815
 ---------------------------------------------------------------------

 SCF Done:  E(RCAM-B3LYP) =  -1857.28208454     A.U. after   16 cycles

 Excitation energies and oscillator strengths:

 Excited State   1:      Singlet-A      1.8765 eV  660.73 nm  f=3.2916  <S**2>=0.000
     163 ->166        -0.12705
     164 ->165         0.70188
     164 <-165        -0.12585
 This state for optimization and/or second-order correction.
 Total Energy, E(TD-HF/TD-DFT) =  -1857.21312589
 Copying the excited state density for this state as the 1-particle RhoCI density.

 The electronic state is 1-A.
 Alpha  occ. eigenvalues --  -19.24275 -19.21252 -19.20467 -19.20104 -10.31698
 Alpha  occ. eigenvalues --  -10.31270 -10.31172 -10.30764 -10.30577 -10.28599
 Alpha  occ. eigenvalues --  -10.28411 -10.28400 -10.28085 -10.27958 -10.27808
 Alpha  occ. eigenvalues --  -10.27461 -10.27347 -10.27239 -10.27232 -10.27189
 Alpha  occ. eigenvalues --  -10.27100 -10.27071 -10.26943 -10.26629 -10.26605
 Alpha  occ. eigenvalues --  -10.26521 -10.26501 -10.26271 -10.26226 -10.26107
 Alpha  occ. eigenvalues --  -10.25827 -10.25738 -10.25486 -10.25346 -10.25298
 Alpha  occ. eigenvalues --  -10.25197 -10.24970 -10.24262 -10.24168 -10.24035
 Alpha  occ. eigenvalues --  -10.23786 -10.23615 -10.23579 -10.22451  -1.16436
 Alpha  occ. eigenvalues --   -1.10946  -1.09748  -1.09558  -0.92623  -0.92241
 Alpha  occ. eigenvalues --   -0.91582  -0.90815  -0.90268  -0.89433  -0.87556
 Alpha  occ. eigenvalues --   -0.87077  -0.86028  -0.84661  -0.83939  -0.82222
 Alpha  occ. eigenvalues --   -0.81617  -0.80224  -0.79985  -0.78979  -0.77030
 Alpha  occ. eigenvalues --   -0.76662  -0.76457  -0.76399  -0.76203  -0.75944
 Alpha  occ. eigenvalues --   -0.75767  -0.74092  -0.72639  -0.70898  -0.69525
 Alpha  occ. eigenvalues --   -0.68108  -0.67367  -0.66014  -0.64902  -0.64748
 Alpha  occ. eigenvalues --   -0.62552  -0.61285  -0.60508  -0.60056  -0.59054
 Alpha  occ. eigenvalues --   -0.58716  -0.58624  -0.57897  -0.57154  -0.56499
 Alpha  occ. eigenvalues --   -0.56374  -0.55258  -0.55018  -0.54737  -0.54556
 Alpha  occ. eigenvalues --   -0.54261  -0.53453  -0.52849  -0.52374  -0.52274
 Alpha  occ. eigenvalues --   -0.51749  -0.50906  -0.50293  -0.50026  -0.49927
 Alpha  occ. eigenvalues --   -0.49801  -0.49305  -0.49228  -0.49196  -0.48445
 Alpha  occ. eigenvalues --   -0.47826  -0.47468  -0.47144  -0.46835  -0.46639
 Alpha  occ. eigenvalues --   -0.46468  -0.46235  -0.45976  -0.45584  -0.45508
 Alpha  occ. eigenvalues --   -0.45400  -0.45313  -0.45043  -0.44307  -0.44107
 Alpha  occ. eigenvalues --   -0.44003  -0.43703  -0.43066  -0.42345  -0.42117
 Alpha  occ. eigenvalues --   -0.42082  -0.41800  -0.41670  -0.41267  -0.41020
 Alpha  occ. eigenvalues --   -0.40637  -0.40324  -0.40297  -0.39851  -0.39690
 Alpha  occ. eigenvalues --   -0.39595  -0.39518  -0.39245  -0.39016  -0.38884
 Alpha  occ. eigenvalues --   -0.38800  -0.38321  -0.38018  -0.37676  -0.36997
 Alpha  occ. eigenvalues --   -0.36453  -0.35978  -0.35297  -0.34496  -0.34252
 Alpha  occ. eigenvalues --   -0.32216  -0.31844  -0.31655  -0.31023  -0.30497
 Alpha  occ. eigenvalues --   -0.28491  -0.27619  -0.23982  -0.18310
 Alpha virt. eigenvalues --   -0.06857  -0.01064   0.03283   0.03807   0.05946
 Alpha virt. eigenvalues --    0.06859   0.10543   0.10994   0.11561   0.12326
 Alpha virt. eigenvalues --    0.12806   0.13235   0.13358   0.13580   0.14178

 Mulliken charges:
               1
     1  O   -0.507247
     2  O   -0.549045
     3  O   -0.561610
     4  O   -0.517203
     5  C    0.173489
     6  C    0.225374
     7  C    0.031570
     8  C   -0.204495
     9  C   -0.179007
    10  C    0.148745
    11  C   -0.327090
    12  C   -0.109847
    13  C   -0.299231
    14  C   -0.336354
    15  C   -0.091404
    16  C    0.048687
    17  C   -0.366681
    18  C   -0.088050
    19  C   -0.107168
    20  C   -0.042790
    21  C    0.270723
    22  C   -0.173234
    23  C    0.129446
    24  C   -0.165078
    25  C   -0.049891
    26  C   -0.277876
    27  C   -0.284023
    28  C   -0.280586
    29  C   -0.094453
    30  C    0.069049
    31  C    0.089818
    32  C   -0.293195
    33  C   -0.356348
    34  C   -0.108122
    35  C    0.124719
    36  C   -0.364449
    37  C   -0.094548
    38  C   -0.070043
    39  C   -0.117140
    40  C   -0.065777
    41  C   -0.116362
    42  C   -0.161047
    43  C    0.103129
    44  C   -0.348253
    45  H    0.095688
    46  H    0.118625
    47  H    0.085123
    48  H    0.105659
    49  H    0.104182
    50  H    0.108407
    51  H    0.118166
    52  H    0.121263
    53  H    0.116293
    54  H    0.102748
    55  H    0.116392
    56  H    0.067972
    57  H    0.130330
    58  H    0.110508
    59  H    0.106056
    60  H    0.295472
    61  H    0.075005
    62  H    0.128702
    63  H    0.139971
    64  H    0.113960
    65  H    0.088171
    66  H    0.088278
    67  H    0.085324
    68  H    0.092066
    69  H    0.078756
    70  H    0.103770
    71  H    0.099119
    72  H    0.105287
    73  H    0.102329
    74  H    0.114988
    75  H    0.122362
    76  H    0.102825
    77  H    0.096148
    78  H    0.084347
    79  H    0.092823
    80  H    0.112048
    81  H    0.075835
    82  H    0.305562
    83  H    0.291234
    84  H    0.113149
    85  H    0.097933
    86  H    0.129392
    87  H    0.078968
    88  H    0.069438
    89  H    0.101860
    90  H    0.132668
    91  H    0.109043
    92  H    0.087136
    93  H    0.072207
    94  H    0.094622
    95  H    0.077356
    96  H    0.083075
    97  H    0.081924
    98  H    0.118071
    99  H    0.125099
   100  H    0.119166
 Sum of Mulliken charges =  -0.00000

 Dipole moment (field-independent basis, Debye):
    X=              3.7968    Y=             -1.3380    Z=              2.0190  Tot=              4.5036
 Quadrupole moment (field-independent basis, Debye-Ang):
   XX=           -252.0579   YY=           -257.2522   ZZ=           -279.6504
   XY=            -13.1940   XZ=             36.2355   YZ=             -2.2654

 Normal termination of Gaussian 16 at Mon Jul 29 10:08:01 2019.
