 Gaussian 16, Revision A.03,
 Gaussian 16:  ES64L-G16RevA.03 25-Dec-2016

 -------------------------------------
 # td=(NStates=1) CAM-B3LYP/6-31G(d,p)
 -------------------------------------

 --
 TD
 --
 Symbolic Z-matrix:
 Charge =  0 Multiplicity = 1

                         Standard orientation:
 ---------------------------------------------------------------------
 Center     Atomic      Atomic             Coordinates (Angstroms)
 Number     Number       Type             X           Y           Z
 ---------------------------------------------------------------------
      1          8           0      -11.606557    0.141698   -1.499543
      2          8           0      -13.053578   -2.357467    1.457546
      3          8           0       10.537373   -1.217681   -2.039799
      4          8           0       14.477147   -1.007159   -0.153560
      5          6           0      -11.014739   -0.235031   -0.319067
      6          6           0      -11.654881   -1.182138   -1.134387
      7          6           0      -11.841786    0.421523    0.840090
      8          6           0      -13.024343   -1.747745   -0.989264
      9          6           0      -13.277915   -0.010701    0.789132
     10          6           0      -13.634168   -1.462716    0.393921
     11          6           0      -10.688292   -2.197961   -2.061109
     12          6           0       -9.548353   -0.096075   -0.334745
     13          6           0      -11.212680   -0.024034    2.146546
     14          6           0      -11.719994    1.810875    0.706728
     15          6           0       -8.607081   -0.856172    0.269550
     16          6           0       -7.177898   -0.528567    0.330164
     17          6           0       -6.203321   -1.671377    0.628887
     18          6           0       -6.663131    0.693654   -0.095125
     19          6           0       -5.360325    0.993899   -0.200868
     20          6           0       11.945279    0.099109    1.239289
     21          6           0       11.574282   -0.735829   -1.275292
     22          6           0       12.775650   -1.173111    1.544754
     23          6           0       13.407220   -1.805564    0.321579
     24          6           0       12.463449   -1.976812   -0.814692
     25          6           0       11.178977   -0.002808   -0.013018
     26          6           0       11.111628    0.341848    2.465139
     27          6           0       12.932270    1.312170    1.167814
     28          6           0       12.404955    0.294854   -2.052972
     29          6           0       -4.754545    2.242348   -0.401563
     30          6           0        9.907808    0.441286    0.040630
     31          6           0       -3.372914    2.583739   -0.456033
     32          6           0        8.638932    0.842553   -0.113342
     33          6           0       -3.068795    4.111778   -0.557646
     34          6           0       -2.303782    1.617951   -0.327340
     35          6           0        7.383548    0.115084    0.034015
     36          6           0        7.671466   -1.228502    0.506887
     37          6           0        6.189966    0.755895   -0.234448
     38          6           0       -0.980129    1.793226   -0.396585
     39          6           0        4.889289    0.122945   -0.089577
     40          6           0       -0.009885    0.954957    0.014017
     41          6           0        3.756708    0.793803   -0.283248
     42          6           0        1.367218    1.281628   -0.230337
     43          6           0        2.500451    0.390077    0.017722
     44          6           0        2.264237   -1.067405    0.327502
     45          1           0      -13.097176   -2.992492   -0.936860
     46          1           0      -13.812784   -1.664615   -1.791005
     47          1           0      -13.823695    0.236747    1.708370
     48          1           0      -13.750849    0.486830   -0.026913
     49          1           0      -14.635248   -1.550178    0.561480
     50          1           0      -10.392525   -3.021237   -1.515425
     51          1           0      -11.336435   -2.400912   -2.787504
     52          1           0       -9.745963   -1.697261   -2.281297
     53          1           0       -9.065850    0.864861   -0.805878
     54          1           0      -10.311585    0.293673    2.015380
     55          1           0      -11.956137    0.605447    2.797734
     56          1           0      -11.490494   -1.207558    2.483586
     57          1           0      -12.173773    2.036776   -0.429493
     58          1           0      -12.193174    2.387656    1.526579
     59          1           0      -10.620752    2.097562    0.640679
     60          1           0      -12.066765   -2.298161    1.600392
     61          1           0       -9.000223   -1.717962    0.803931
     62          1           0       -5.716447   -2.064459   -0.328169
     63          1           0       -5.400548   -1.454807    1.378250
     64          1           0       -6.686461   -2.743848    1.118340
     65          1           0       -7.336693    1.456057   -0.394098
     66          1           0       -4.522242    0.370021   -0.009797
     67          1           0       13.300870   -0.964411    2.463482
     68          1           0       11.988461   -1.947876    1.967729
     69          1           0       13.489132   -2.861862    0.525848
     70          1           0       13.200221   -2.255050   -1.685747
     71          1           0       11.763316   -2.747508   -0.581551
     72          1           0       11.657415    0.411329    3.363280
     73          1           0       10.839016    1.422192    2.429399
     74          1           0       10.550360   -0.377108    2.565302
     75          1           0       13.431048    1.438026    0.257205
     76          1           0       12.421907    2.138074    1.025218
     77          1           0       13.540649    1.428486    2.133809
     78          1           0       12.495146   -0.253678   -2.992410
     79          1           0       11.724903    1.204533   -2.317078
     80          1           0       13.380349    0.737544   -1.550171
     81          1           0       -5.356912    3.238846   -0.400353
     82          1           0       10.100347   -0.592343   -2.035738
     83          1           0       15.263727   -1.093476    0.496789
     84          1           0        8.412928    1.933914   -0.473653
     85          1           0       -2.349672    4.497846    0.081450
     86          1           0       -2.431743    4.029112   -1.491071
     87          1           0       -3.847065    4.875693   -0.709634
     88          1           0       -2.732251    0.625240   -0.419387
     89          1           0        6.768384   -1.841316    0.492844
     90          1           0        8.499159   -1.776002   -0.273725
     91          1           0        8.197267   -1.375764    1.539164
     92          1           0        6.266794    1.788799   -0.488842
     93          1           0       -0.550996    2.820466   -0.529562
     94          1           0        4.778654   -1.027641    0.027902
     95          1           0       -0.337605    0.026188    0.045932
     96          1           0        3.835790    1.874757   -0.349483
     97          1           0        1.706555    2.326266   -0.373643
     98          1           0        1.351393   -1.200229    0.421166
     99          1           0        2.543327   -1.665828   -0.392230
    100          1           0        2.933624   -1.410416    1.360093
 ---------------------------------------------------------------------

 SCF Done:  E(RCAM-B3LYP) =  -1857.14741339     A.U. after   15 cycles

 Excitation energies and oscillator strengths:

 Excited State   1:      Singlet-A      1.9809 eV  625.89 nm  f=2.9534  <S**2>=0.000
     163 ->166         0.12452
     164 ->165         0.70073
     164 <-165        -0.11020
 This state for optimization and/or second-order correction.
 Total Energy, E(TD-HF/TD-DFT) =  -1857.07461531
 Copying the excited state density for this state as the 1-particle RhoCI density.

 The electronic state is 1-A.
 Alpha  occ. eigenvalues --  -19.22891 -19.22652 -19.20838 -19.19792 -10.32600
 Alpha  occ. eigenvalues --  -10.32054 -10.31602 -10.30722 -10.30534 -10.29062
 Alpha  occ. eigenvalues --  -10.28941 -10.28398 -10.27691 -10.27599 -10.27528
 Alpha  occ. eigenvalues --  -10.27471 -10.27427 -10.27413 -10.27382 -10.27171
 Alpha  occ. eigenvalues --  -10.27138 -10.27093 -10.26928 -10.26883 -10.26635
 Alpha  occ. eigenvalues --  -10.26574 -10.26374 -10.26346 -10.26259 -10.25971
 Alpha  occ. eigenvalues --  -10.25947 -10.25880 -10.25853 -10.25540 -10.25446
 Alpha  occ. eigenvalues --  -10.25306 -10.25220 -10.25199 -10.24648 -10.24100
 Alpha  occ. eigenvalues --  -10.24022 -10.23800 -10.23044 -10.22307  -1.20443
 Alpha  occ. eigenvalues --   -1.18104  -1.09828  -1.05575  -0.94041  -0.93183
 Alpha  occ. eigenvalues --   -0.92783  -0.92291  -0.91284  -0.90245  -0.88393
 Alpha  occ. eigenvalues --   -0.87113  -0.86838  -0.85860  -0.85230  -0.83552
 Alpha  occ. eigenvalues --   -0.82101  -0.80699  -0.80486  -0.79248  -0.77991
 Alpha  occ. eigenvalues --   -0.77343  -0.76653  -0.76478  -0.76363  -0.75889
 Alpha  occ. eigenvalues --   -0.75776  -0.74816  -0.73591  -0.71424  -0.70464
 Alpha  occ. eigenvalues --   -0.69472  -0.67548  -0.66045  -0.65700  -0.65096
 Alpha  occ. eigenvalues --   -0.63994  -0.62526  -0.61310  -0.61101  -0.60728
 Alpha  occ. eigenvalues --   -0.60404  -0.59177  -0.59046  -0.57894  -0.57809
 Alpha  occ. eigenvalues --   -0.56678  -0.56306  -0.55704  -0.55428  -0.54801
 Alpha  occ. eigenvalues --   -0.53818  -0.53456  -0.52988  -0.52261  -0.51764
 Alpha  occ. eigenvalues --   -0.51482  -0.51424  -0.50693  -0.50443  -0.49806
 Alpha  occ. eigenvalues --   -0.49396  -0.49276  -0.49145  -0.48841  -0.48298
 Alpha  occ. eigenvalues --   -0.48010  -0.47938  -0.47836  -0.47805  -0.47460
 Alpha  occ. eigenvalues --   -0.47151  -0.46628  -0.46485  -0.46154  -0.45999
 Alpha  occ. eigenvalues --   -0.45260  -0.44872  -0.44556  -0.44278  -0.43905
 Alpha  occ. eigenvalues --   -0.43867  -0.43593  -0.43437  -0.43125  -0.42880
 Alpha  occ. eigenvalues --   -0.42823  -0.42748  -0.42323  -0.41878  -0.41451
 Alpha  occ. eigenvalues --   -0.40918  -0.40848  -0.40420  -0.40098  -0.39944
 Alpha  occ. eigenvalues --   -0.39758  -0.39431  -0.39116  -0.38475  -0.38312
 Alpha  occ. eigenvalues --   -0.38173  -0.37846  -0.37511  -0.36989  -0.36379
 Alpha  occ. eigenvalues --   -0.36352  -0.36108  -0.35955  -0.35198  -0.34547
 Alpha  occ. eigenvalues --   -0.33606  -0.32418  -0.31783  -0.31653  -0.30950
 Alpha  occ. eigenvalues --   -0.28594  -0.28280  -0.24653  -0.19380
 Alpha virt. eigenvalues --   -0.07001  -0.01285   0.03045   0.05640   0.06535
 Alpha virt. eigenvalues --    0.09938   0.10069   0.10244   0.12037   0.12225
 Alpha virt. eigenvalues --    0.12916   0.13079   0.13324   0.13604   0.13814

 Mulliken charges:
               1
     1  O   -0.469656
     2  O   -0.586688
     3  O   -0.453571
     4  O   -0.546326
     5  C    0.205793
     6  C    0.224696
     7  C    0.011960
     8  C   -0.229376
     9  C   -0.196089
    10  C    0.165651
    11  C   -0.327563
    12  C   -0.126946
    13  C   -0.258177
    14  C   -0.293968
    15  C   -0.074893
    16  C    0.074691
    17  C   -0.368907
    18  C   -0.086199
    19  C   -0.059196
    20  C   -0.009199
    21  C    0.217658
    22  C   -0.179534
    23  C    0.160490
    24  C   -0.195569
    25  C   -0.026453
    26  C   -0.264632
    27  C   -0.292199
    28  C   -0.310794
    29  C   -0.137612
    30  C    0.103414
    31  C    0.080815
    32  C   -0.307438
    33  C   -0.382049
    34  C   -0.124176
    35  C    0.197746
    36  C   -0.388508
    37  C   -0.136441
    38  C   -0.073722
    39  C   -0.096641
    40  C   -0.069938
    41  C   -0.090117
    42  C   -0.136403
    43  C    0.082429
    44  C   -0.330543
    45  H    0.098290
    46  H    0.123218
    47  H    0.095951
    48  H    0.100264
    49  H    0.109389
    50  H    0.114134
    51  H    0.119625
    52  H    0.117227
    53  H    0.096708
    54  H    0.113668
    55  H    0.087807
    56  H    0.061897
    57  H    0.108977
    58  H    0.101230
    59  H    0.088957
    60  H    0.298797
    61  H    0.084962
    62  H    0.128092
    63  H    0.127601
    64  H    0.077044
    65  H    0.086923
    66  H    0.079471
    67  H    0.093172
    68  H    0.059946
    69  H    0.092542
    70  H    0.107121
    71  H    0.113779
    72  H    0.092816
    73  H    0.104617
    74  H    0.099096
    75  H    0.103291
    76  H    0.105426
    77  H    0.083092
    78  H    0.113083
    79  H    0.077958
    80  H    0.133570
    81  H    0.073344
    82  H    0.243217
    83  H    0.313539
    84  H    0.086922
    85  H    0.136516
    86  H    0.122575
    87  H    0.118868
    88  H    0.082492
    89  H    0.100846
    90  H    0.105558
    91  H    0.121587
    92  H    0.087279
    93  H    0.071832
    94  H    0.091042
    95  H    0.080811
    96  H    0.069770
    97  H    0.082499
    98  H    0.101664
    99  H    0.134779
   100  H    0.079304
 Sum of Mulliken charges =  -0.00000

 Dipole moment (field-independent basis, Debye):
    X=              3.4022    Y=              0.1856    Z=              1.7438  Tot=              3.8276
 Quadrupole moment (field-independent basis, Debye-Ang):
   XX=           -250.5127   YY=           -260.6248   ZZ=           -280.3914
   XY=             -7.5574   XZ=             35.7221   YZ=             -2.0403

 Normal termination of Gaussian 16 at Wed Jul 31 00:57:37 2019.
