 Gaussian 16, Revision A.03,
 Gaussian 16:  ES64L-G16RevA.03 25-Dec-2016

 -------------------------------------
 # td=(NStates=1) CAM-B3LYP/6-31G(d,p)
 -------------------------------------

 --
 TD
 --
 Symbolic Z-matrix:
 Charge =  0 Multiplicity = 1

                         Standard orientation:
 ---------------------------------------------------------------------
 Center     Atomic      Atomic             Coordinates (Angstroms)
 Number     Number       Type             X           Y           Z
 ---------------------------------------------------------------------
      1          8           0      -11.703193   -0.054581   -1.558447
      2          8           0      -12.957021   -2.202230    1.608324
      3          8           0       10.586543   -1.190678   -1.996225
      4          8           0       14.417924   -0.899325   -0.081685
      5          6           0      -10.984253   -0.123669   -0.226768
      6          6           0      -11.655223   -1.417522   -1.035792
      7          6           0      -11.749669    0.409970    0.832678
      8          6           0      -13.076562   -1.853191   -0.811172
      9          6           0      -13.317802    0.028702    0.808865
     10          6           0      -13.578246   -1.391479    0.601962
     11          6           0      -10.861422   -2.212677   -2.002738
     12          6           0       -9.601139    0.028084   -0.344872
     13          6           0      -11.081968    0.104045    2.185443
     14          6           0      -11.778949    1.966465    0.699938
     15          6           0       -8.641726   -0.798354    0.131352
     16          6           0       -7.180862   -0.575264    0.172968
     17          6           0       -6.272851   -1.756998    0.481247
     18          6           0       -6.611584    0.595131   -0.091607
     19          6           0       -5.166797    0.869085   -0.196115
     20          6           0       11.893867    0.108637    1.374057
     21          6           0       11.719548   -0.702126   -1.170941
     22          6           0       12.654684   -1.262410    1.570675
     23          6           0       13.371553   -1.761472    0.421203
     24          6           0       12.396445   -2.040022   -0.786821
     25          6           0       11.074866   -0.068833    0.070551
     26          6           0       10.911531    0.250984    2.542196
     27          6           0       12.882919    1.319134    1.358202
     28          6           0       12.481830    0.288595   -2.082781
     29          6           0       -4.749147    2.151401   -0.439301
     30          6           0        9.904295    0.485402    0.083445
     31          6           0       -3.444752    2.498535   -0.465164
     32          6           0        8.707923    0.954585   -0.287453
     33          6           0       -3.076764    3.977247   -0.715243
     34          6           0       -2.312968    1.612832   -0.393364
     35          6           0        7.463013    0.168482   -0.146877
     36          6           0        7.647569   -1.214300    0.282370
     37          6           0        6.248402    0.778926   -0.384466
     38          6           0       -0.990253    1.899462   -0.375170
     39          6           0        4.932558    0.207571   -0.050178
     40          6           0        0.071423    0.981805   -0.159114
     41          6           0        3.801728    0.885045   -0.219396
     42          6           0        1.407485    1.204107   -0.160832
     43          6           0        2.537099    0.297425   -0.074000
     44          6           0        2.453480   -1.129574    0.121073
     45          1           0      -13.225033   -3.036287   -0.527388
     46          1           0      -13.790598   -1.532914   -1.604050
     47          1           0      -13.563544    0.542571    1.733076
     48          1           0      -13.656617    0.825130    0.064770
     49          1           0      -14.600972   -1.649277    0.753204
     50          1           0      -10.484357   -3.162973   -1.630036
     51          1           0      -11.381648   -2.479054   -2.885426
     52          1           0       -9.809595   -1.806686   -2.410840
     53          1           0       -9.226845    0.870677   -1.061997
     54          1           0      -10.033698    0.419273    2.175293
     55          1           0      -11.710340    0.492121    3.084648
     56          1           0      -10.956749   -0.988964    2.251696
     57          1           0      -12.227475    2.351490   -0.336268
     58          1           0      -12.349929    2.445686    1.566480
     59          1           0      -10.772181    2.466914    0.718773
     60          1           0      -12.004811   -2.284081    1.398363
     61          1           0       -9.035632   -1.469747    0.642719
     62          1           0       -5.559342   -2.052339   -0.185850
     63          1           0       -5.767384   -1.411017    1.319478
     64          1           0       -6.856174   -2.681390    0.950289
     65          1           0       -7.160673    1.534823   -0.258833
     66          1           0       -4.600379    0.129134   -0.127664
     67          1           0       13.378972   -1.142402    2.383836
     68          1           0       11.815259   -1.954475    2.043373
     69          1           0       13.766197   -2.757652    0.565755
     70          1           0       12.885389   -2.491320   -1.707836
     71          1           0       11.548059   -2.725637   -0.594291
     72          1           0       11.495976    0.400389    3.590965
     73          1           0       10.345767    1.061358    2.671391
     74          1           0       10.296831   -0.651466    2.638966
     75          1           0       13.690197    1.212703    0.788857
     76          1           0       12.268391    2.137847    1.143283
     77          1           0       13.375608    1.320036    2.336281
     78          1           0       12.788446   -0.118337   -2.966490
     79          1           0       11.907014    1.257361   -2.198492
     80          1           0       13.544720    0.598875   -1.633776
     81          1           0       -5.318900    3.178999   -0.367216
     82          1           0       10.034215   -0.381176   -2.110434
     83          1           0       14.867755   -0.461649    0.852671
     84          1           0        8.539593    1.978856   -0.544814
     85          1           0       -2.800244    4.596951    0.381180
     86          1           0       -2.144758    4.262578   -1.472439
     87          1           0       -3.899392    4.547959   -1.200515
     88          1           0       -2.525674    0.568512   -0.294874
     89          1           0        6.675774   -1.781630    0.312759
     90          1           0        8.175003   -1.814026   -0.494304
     91          1           0        8.198930   -1.032024    1.269554
     92          1           0        6.100156    1.713403   -0.680988
     93          1           0       -0.614552    2.885920   -0.544504
     94          1           0        4.890449   -0.849008    0.084330
     95          1           0       -0.396601   -0.122505   -0.086298
     96          1           0        3.633659    1.993344   -0.301085
     97          1           0        1.893250    2.212690   -0.289100
     98          1           0        1.393220   -1.626150    0.212287
     99          1           0        2.712660   -1.720057   -0.927144
    100          1           0        2.922891   -1.629429    1.024561
 ---------------------------------------------------------------------

 SCF Done:  E(RCAM-B3LYP) =  -1857.29953001     A.U. after   15 cycles

 Excitation energies and oscillator strengths:

 Excited State   1:      Singlet-A      1.9627 eV  631.70 nm  f=2.9349  <S**2>=0.000
     163 ->166         0.11383
     164 ->165         0.70567
     164 <-165        -0.12889
 This state for optimization and/or second-order correction.
 Total Energy, E(TD-HF/TD-DFT) =  -1857.22740132
 Copying the excited state density for this state as the 1-particle RhoCI density.

 The electronic state is 1-A.
 Alpha  occ. eigenvalues --  -19.23883 -19.21200 -19.20898 -19.19860 -10.32402
 Alpha  occ. eigenvalues --  -10.32359 -10.32110 -10.31002 -10.30213 -10.28744
 Alpha  occ. eigenvalues --  -10.28670 -10.27966 -10.27819 -10.27802 -10.27755
 Alpha  occ. eigenvalues --  -10.27631 -10.27537 -10.27514 -10.27311 -10.27226
 Alpha  occ. eigenvalues --  -10.27206 -10.27130 -10.27117 -10.26997 -10.26785
 Alpha  occ. eigenvalues --  -10.26655 -10.26232 -10.26146 -10.26120 -10.26067
 Alpha  occ. eigenvalues --  -10.25958 -10.25932 -10.25901 -10.25892 -10.25826
 Alpha  occ. eigenvalues --  -10.25612 -10.25531 -10.25506 -10.25412 -10.25195
 Alpha  occ. eigenvalues --  -10.25068 -10.24951 -10.24623 -10.23996  -1.11431
 Alpha  occ. eigenvalues --   -1.08949  -1.08361  -1.07134  -0.93250  -0.93008
 Alpha  occ. eigenvalues --   -0.92696  -0.92098  -0.90936  -0.90489  -0.88141
 Alpha  occ. eigenvalues --   -0.86710  -0.85768  -0.85378  -0.84989  -0.83552
 Alpha  occ. eigenvalues --   -0.81962  -0.81078  -0.80681  -0.79098  -0.78048
 Alpha  occ. eigenvalues --   -0.76851  -0.76808  -0.76439  -0.76183  -0.76086
 Alpha  occ. eigenvalues --   -0.75313  -0.74653  -0.73159  -0.70801  -0.69825
 Alpha  occ. eigenvalues --   -0.69382  -0.67672  -0.66307  -0.65046  -0.63864
 Alpha  occ. eigenvalues --   -0.63279  -0.62030  -0.61360  -0.60976  -0.60362
 Alpha  occ. eigenvalues --   -0.58943  -0.58687  -0.57239  -0.57226  -0.56981
 Alpha  occ. eigenvalues --   -0.56399  -0.55756  -0.55190  -0.55019  -0.54103
 Alpha  occ. eigenvalues --   -0.53326  -0.53168  -0.52805  -0.52325  -0.51765
 Alpha  occ. eigenvalues --   -0.51565  -0.51188  -0.50811  -0.50768  -0.50419
 Alpha  occ. eigenvalues --   -0.49938  -0.49500  -0.48863  -0.48673  -0.48467
 Alpha  occ. eigenvalues --   -0.48058  -0.47723  -0.47698  -0.47241  -0.47086
 Alpha  occ. eigenvalues --   -0.46505  -0.46412  -0.45998  -0.45617  -0.45440
 Alpha  occ. eigenvalues --   -0.45246  -0.44600  -0.44317  -0.43941  -0.43705
 Alpha  occ. eigenvalues --   -0.43517  -0.42735  -0.42678  -0.42541  -0.42211
 Alpha  occ. eigenvalues --   -0.41965  -0.41704  -0.41249  -0.41224  -0.41040
 Alpha  occ. eigenvalues --   -0.40898  -0.40632  -0.40289  -0.40164  -0.40054
 Alpha  occ. eigenvalues --   -0.39402  -0.39285  -0.39043  -0.38919  -0.38608
 Alpha  occ. eigenvalues --   -0.38485  -0.38236  -0.38200  -0.37950  -0.37201
 Alpha  occ. eigenvalues --   -0.37139  -0.35814  -0.35300  -0.34534  -0.33422
 Alpha  occ. eigenvalues --   -0.32980  -0.32308  -0.31925  -0.31561  -0.30647
 Alpha  occ. eigenvalues --   -0.30243  -0.28186  -0.25385  -0.19169
 Alpha virt. eigenvalues --   -0.07180  -0.00507   0.02413   0.05574   0.06354
 Alpha virt. eigenvalues --    0.07493   0.08710   0.10280   0.10932   0.11719
 Alpha virt. eigenvalues --    0.12134   0.12753   0.13358   0.13913   0.13961

 Mulliken charges:
               1
     1  O   -0.520911
     2  O   -0.555346
     3  O   -0.575697
     4  O   -0.546254
     5  C    0.239129
     6  C    0.210108
     7  C   -0.021885
     8  C   -0.207462
     9  C   -0.153569
    10  C    0.149239
    11  C   -0.332157
    12  C   -0.109389
    13  C   -0.293372
    14  C   -0.321348
    15  C   -0.036952
    16  C    0.061585
    17  C   -0.384102
    18  C   -0.110354
    19  C   -0.042036
    20  C    0.001310
    21  C    0.239293
    22  C   -0.202253
    23  C    0.167962
    24  C   -0.202107
    25  C   -0.004575
    26  C   -0.305570
    27  C   -0.297951
    28  C   -0.303148
    29  C   -0.113989
    30  C    0.073072
    31  C    0.105924
    32  C   -0.246032
    33  C   -0.362863
    34  C   -0.112663
    35  C    0.107939
    36  C   -0.364351
    37  C   -0.101648
    38  C   -0.055030
    39  C   -0.111173
    40  C   -0.096479
    41  C   -0.099739
    42  C   -0.133187
    43  C    0.164841
    44  C   -0.403450
    45  H    0.092936
    46  H    0.125497
    47  H    0.096119
    48  H    0.111998
    49  H    0.103165
    50  H    0.097706
    51  H    0.124559
    52  H    0.108935
    53  H    0.103110
    54  H    0.113883
    55  H    0.103427
    56  H    0.078227
    57  H    0.108251
    58  H    0.097658
    59  H    0.098906
    60  H    0.303181
    61  H    0.047027
    62  H    0.135798
    63  H    0.138275
    64  H    0.092073
    65  H    0.081632
    66  H    0.064547
    67  H    0.080920
    68  H    0.099165
    69  H    0.092273
    70  H    0.109541
    71  H    0.124983
    72  H    0.064214
    73  H    0.123234
    74  H    0.108435
    75  H    0.112920
    76  H    0.114789
    77  H    0.090452
    78  H    0.127765
    79  H    0.087351
    80  H    0.112393
    81  H    0.093230
    82  H    0.299706
    83  H    0.300464
    84  H    0.108785
    85  H    0.085182
    86  H    0.101565
    87  H    0.109311
    88  H    0.070918
    89  H    0.098652
    90  H    0.144050
    91  H    0.119989
    92  H    0.068066
    93  H    0.079338
    94  H    0.091801
    95  H    0.070916
    96  H    0.080085
    97  H    0.074316
    98  H    0.100127
    99  H    0.106943
   100  H    0.127850
 Sum of Mulliken charges =  -0.00000

 Dipole moment (field-independent basis, Debye):
    X=              3.8616    Y=              0.6733    Z=              2.3227  Tot=              4.5564
 Quadrupole moment (field-independent basis, Debye-Ang):
   XX=           -284.9482   YY=           -259.8455   ZZ=           -279.4767
   XY=              5.2862   XZ=             31.4307   YZ=             -1.5904

 Normal termination of Gaussian 16 at Tue Jul 30 10:37:47 2019.
