 Gaussian 16, Revision A.03,
 Gaussian 16:  ES64L-G16RevA.03 25-Dec-2016

 -------------------------------------
 # td=(NStates=1) CAM-B3LYP/6-31G(d,p)
 -------------------------------------

 --
 TD
 --
 Symbolic Z-matrix:
 Charge =  0 Multiplicity = 1

                         Standard orientation:
 ---------------------------------------------------------------------
 Center     Atomic      Atomic             Coordinates (Angstroms)
 Number     Number       Type             X           Y           Z
 ---------------------------------------------------------------------
      1          8           0      -11.637359    0.116050   -1.508063
      2          8           0      -12.934271   -2.505791    1.517476
      3          8           0       10.569220   -1.090140   -2.100354
      4          8           0       14.440462   -1.143081   -0.181633
      5          6           0      -11.038066   -0.148792   -0.302538
      6          6           0      -11.614966   -1.318461   -1.158854
      7          6           0      -11.609968    0.263055    0.883962
      8          6           0      -12.950550   -1.846662   -0.808770
      9          6           0      -13.073385   -0.106419    1.064940
     10          6           0      -13.386697   -1.530593    0.659494
     11          6           0      -10.846482   -2.114110   -2.174426
     12          6           0       -9.558181    0.112056   -0.495178
     13          6           0      -10.980002   -0.300632    2.140170
     14          6           0      -11.543162    1.819897    1.068592
     15          6           0       -8.574794   -0.771329   -0.022276
     16          6           0       -7.228217   -0.613932   -0.060085
     17          6           0       -6.208754   -1.777312   -0.022173
     18          6           0       -6.621027    0.714428   -0.268219
     19          6           0       -5.329407    0.905227   -0.217739
     20          6           0       11.802229   -0.030176    1.319718
     21          6           0       11.648034   -0.723567   -1.160580
     22          6           0       12.692748   -1.410273    1.537889
     23          6           0       13.330627   -1.889436    0.215957
     24          6           0       12.311604   -1.959240   -0.880346
     25          6           0       10.975885   -0.092468    0.120645
     26          6           0       11.043544    0.122207    2.624170
     27          6           0       12.737047    1.155062    1.301107
     28          6           0       12.466392    0.259969   -1.988080
     29          6           0       -4.811261    2.312074   -0.212349
     30          6           0        9.810534    0.515767   -0.079610
     31          6           0       -3.427259    2.622404   -0.375564
     32          6           0        8.589802    0.958692   -0.116674
     33          6           0       -3.086929    4.065907   -0.692648
     34          6           0       -2.305846    1.723938   -0.166289
     35          6           0        7.462714    0.143408   -0.033606
     36          6           0        7.669592   -1.358281    0.283699
     37          6           0        6.285726    0.837729   -0.256365
     38          6           0       -1.021406    2.167030   -0.342261
     39          6           0        4.938464    0.342182   -0.019210
     40          6           0        0.011125    1.193992    0.043744
     41          6           0        3.739813    1.050607   -0.232141
     42          6           0        1.316966    1.396039   -0.266814
     43          6           0        2.403245    0.536995    0.075218
     44          6           0        2.198375   -0.839338    0.461695
     45          1           0      -12.879806   -3.012546   -0.996551
     46          1           0      -13.733806   -1.406996   -1.505303
     47          1           0      -13.430918    0.100181    2.095528
     48          1           0      -13.700025    0.478053    0.318767
     49          1           0      -14.538379   -1.520357    0.767221
     50          1           0      -10.466106   -2.991776   -1.760508
     51          1           0      -11.649285   -2.196504   -2.918132
     52          1           0       -9.959457   -1.463276   -2.499843
     53          1           0       -9.157443    1.070252   -1.116482
     54          1           0       -9.971593   -0.018564    2.464787
     55          1           0      -11.581312   -0.054934    3.150107
     56          1           0      -10.897569   -1.405387    2.087526
     57          1           0      -12.243294    2.251922    0.134230
     58          1           0      -11.973981    2.098070    2.070415
     59          1           0      -10.570252    2.240117    0.911288
     60          1           0      -12.048354   -2.796019    1.363733
     61          1           0       -9.030562   -1.723893    0.165294
     62          1           0       -5.591241   -1.785407   -0.920596
     63          1           0       -5.805291   -1.784587    1.096362
     64          1           0       -6.620606   -2.861606   -0.179222
     65          1           0       -7.347959    1.542975   -0.025793
     66          1           0       -4.712851   -0.023203   -0.499754
     67          1           0       13.537487   -1.367542    2.321412
     68          1           0       11.819469   -2.006737    1.843697
     69          1           0       13.692034   -2.947433    0.360612
     70          1           0       12.712304   -2.345055   -1.876338
     71          1           0       11.689104   -2.836822   -0.384942
     72          1           0       11.820885    0.221822    3.469932
     73          1           0       10.334564    0.967155    2.604581
     74          1           0       10.216647   -0.561294    2.886649
     75          1           0       13.526411    0.984415    0.597749
     76          1           0       12.021612    2.063693    1.108975
     77          1           0       13.207616    1.447270    2.344574
     78          1           0       12.687586   -0.222365   -3.019159
     79          1           0       11.870532    1.069173   -2.166888
     80          1           0       13.357350    0.811675   -1.678005
     81          1           0       -5.574721    3.142279   -0.365505
     82          1           0       10.129889   -0.184506   -2.149061
     83          1           0       15.027318   -1.140060    0.438499
     84          1           0        8.508967    2.015073   -0.282359
     85          1           0       -2.099792    4.500950   -0.197646
     86          1           0       -2.870596    4.404129   -1.991312
     87          1           0       -4.016916    4.796690   -0.431900
     88          1           0       -2.462781    0.684656    0.304818
     89          1           0        6.752826   -1.819664    0.226787
     90          1           0        8.373433   -1.830149   -0.336597
     91          1           0        8.117221   -1.319004    1.192280
     92          1           0        6.514143    1.928803   -0.101239
     93          1           0       -0.928401    2.983268   -0.829256
     94          1           0        5.052240   -0.713977    0.135736
     95          1           0       -0.180035    0.283516    0.629100
     96          1           0        3.919228    2.121800   -0.455712
     97          1           0        1.668436    2.346397   -0.338465
     98          1           0        1.190418   -1.120697    0.695693
     99          1           0        2.569673   -1.320881   -0.591275
    100          1           0        2.912881   -1.115253    1.322864
 ---------------------------------------------------------------------

 SCF Done:  E(RCAM-B3LYP) =  -1857.27547785     A.U. after   18 cycles

 Excitation energies and oscillator strengths:

 Excited State   1:      Singlet-A      1.5689 eV  790.26 nm  f=2.6796  <S**2>=0.000
     163 ->166        -0.10460
     164 ->165         0.72275
     164 <-165        -0.19065
 This state for optimization and/or second-order correction.
 Total Energy, E(TD-HF/TD-DFT) =  -1857.21782176
 Copying the excited state density for this state as the 1-particle RhoCI density.

 The electronic state is 1-A.
 Alpha  occ. eigenvalues --  -19.21632 -19.21083 -19.20873 -19.20593 -10.31834
 Alpha  occ. eigenvalues --  -10.31576 -10.31489 -10.31212 -10.31053 -10.29444
 Alpha  occ. eigenvalues --  -10.28264 -10.28240 -10.28072 -10.27990 -10.27939
 Alpha  occ. eigenvalues --  -10.27726 -10.27645 -10.27542 -10.27500 -10.27339
 Alpha  occ. eigenvalues --  -10.27247 -10.27225 -10.27179 -10.27130 -10.27107
 Alpha  occ. eigenvalues --  -10.27041 -10.26878 -10.26746 -10.26710 -10.26667
 Alpha  occ. eigenvalues --  -10.26275 -10.25783 -10.25740 -10.25681 -10.25642
 Alpha  occ. eigenvalues --  -10.25593 -10.25583 -10.25565 -10.25360 -10.25353
 Alpha  occ. eigenvalues --  -10.24930 -10.24804 -10.24201 -10.23925  -1.15702
 Alpha  occ. eigenvalues --   -1.13564  -1.11075  -1.08023  -0.93970  -0.92563
 Alpha  occ. eigenvalues --   -0.92511  -0.91965  -0.91265  -0.89892  -0.87543
 Alpha  occ. eigenvalues --   -0.87379  -0.86732  -0.85628  -0.84278  -0.82948
 Alpha  occ. eigenvalues --   -0.82078  -0.81096  -0.80117  -0.78946  -0.78653
 Alpha  occ. eigenvalues --   -0.76742  -0.76448  -0.76150  -0.75531  -0.75206
 Alpha  occ. eigenvalues --   -0.74812  -0.73526  -0.72597  -0.70837  -0.70561
 Alpha  occ. eigenvalues --   -0.68361  -0.67236  -0.65566  -0.64426  -0.64320
 Alpha  occ. eigenvalues --   -0.63628  -0.62985  -0.60971  -0.60418  -0.59900
 Alpha  occ. eigenvalues --   -0.59229  -0.58555  -0.57693  -0.57295  -0.56597
 Alpha  occ. eigenvalues --   -0.56121  -0.55646  -0.55444  -0.55016  -0.54505
 Alpha  occ. eigenvalues --   -0.54134  -0.53605  -0.53008  -0.52143  -0.52004
 Alpha  occ. eigenvalues --   -0.50980  -0.50614  -0.50191  -0.50164  -0.49980
 Alpha  occ. eigenvalues --   -0.49727  -0.49583  -0.49406  -0.48867  -0.48276
 Alpha  occ. eigenvalues --   -0.47883  -0.47785  -0.47681  -0.46662  -0.46442
 Alpha  occ. eigenvalues --   -0.46367  -0.46318  -0.45762  -0.45592  -0.45274
 Alpha  occ. eigenvalues --   -0.44679  -0.44546  -0.44318  -0.43881  -0.43843
 Alpha  occ. eigenvalues --   -0.43700  -0.43454  -0.43265  -0.43241  -0.42490
 Alpha  occ. eigenvalues --   -0.42317  -0.41896  -0.41708  -0.41584  -0.41421
 Alpha  occ. eigenvalues --   -0.41217  -0.40963  -0.40637  -0.40205  -0.39943
 Alpha  occ. eigenvalues --   -0.39914  -0.39858  -0.38951  -0.38876  -0.38785
 Alpha  occ. eigenvalues --   -0.38197  -0.37985  -0.37538  -0.37175  -0.37088
 Alpha  occ. eigenvalues --   -0.35946  -0.35567  -0.35306  -0.34596  -0.33338
 Alpha  occ. eigenvalues --   -0.32789  -0.32388  -0.32036  -0.31379  -0.30146
 Alpha  occ. eigenvalues --   -0.29959  -0.27313  -0.23998  -0.17344
 Alpha virt. eigenvalues --   -0.07929  -0.01620   0.02333   0.05362   0.06651
 Alpha virt. eigenvalues --    0.09204   0.10215   0.10554   0.11217   0.11857
 Alpha virt. eigenvalues --    0.11986   0.12691   0.13313   0.13455   0.13515

 Mulliken charges:
               1
     1  O   -0.510174
     2  O   -0.531754
     3  O   -0.564498
     4  O   -0.507084
     5  C    0.266794
     6  C    0.178995
     7  C    0.011377
     8  C   -0.223732
     9  C   -0.177338
    10  C    0.165820
    11  C   -0.317325
    12  C   -0.125553
    13  C   -0.287578
    14  C   -0.291474
    15  C   -0.085410
    16  C    0.066032
    17  C   -0.377792
    18  C   -0.097237
    19  C   -0.078125
    20  C    0.001783
    21  C    0.212606
    22  C   -0.197506
    23  C    0.142150
    24  C   -0.163449
    25  C   -0.010977
    26  C   -0.306930
    27  C   -0.284026
    28  C   -0.286899
    29  C   -0.153284
    30  C    0.062438
    31  C    0.100285
    32  C   -0.260244
    33  C   -0.353953
    34  C   -0.101040
    35  C    0.114230
    36  C   -0.357630
    37  C   -0.130723
    38  C   -0.050389
    39  C   -0.106266
    40  C   -0.108428
    41  C   -0.116081
    42  C   -0.095070
    43  C    0.085026
    44  C   -0.358397
    45  H    0.093013
    46  H    0.120136
    47  H    0.106433
    48  H    0.094288
    49  H    0.084403
    50  H    0.112340
    51  H    0.121199
    52  H    0.127033
    53  H    0.099744
    54  H    0.108431
    55  H    0.086953
    56  H    0.066849
    57  H    0.082385
    58  H    0.101011
    59  H    0.109363
    60  H    0.302150
    61  H    0.070621
    62  H    0.138155
    63  H    0.124353
    64  H    0.089534
    65  H    0.085722
    66  H    0.099216
    67  H    0.081640
    68  H    0.110212
    69  H    0.070545
    70  H    0.111407
    71  H    0.094233
    72  H    0.096411
    73  H    0.100784
    74  H    0.094773
    75  H    0.123839
    76  H    0.085932
    77  H    0.080944
    78  H    0.107384
    79  H    0.094092
    80  H    0.120660
    81  H    0.096488
    82  H    0.303749
    83  H    0.282929
    84  H    0.111490
    85  H    0.110742
    86  H    0.062039
    87  H    0.098738
    88  H    0.084539
    89  H    0.111262
    90  H    0.150332
    91  H    0.133136
    92  H    0.080533
    93  H    0.084995
    94  H    0.080426
    95  H    0.087723
    96  H    0.090739
    97  H    0.085125
    98  H    0.116459
    99  H    0.121983
   100  H    0.119211
 Sum of Mulliken charges =  -0.00000

 Dipole moment (field-independent basis, Debye):
    X=              3.5986    Y=             -0.8532    Z=              2.6345  Tot=              4.5408
 Quadrupole moment (field-independent basis, Debye-Ang):
   XX=           -272.0985   YY=           -261.3773   ZZ=           -279.8536
   XY=              8.3368   XZ=             32.1686   YZ=             -2.2400

 Normal termination of Gaussian 16 at Thu Aug  1 11:55:07 2019.
