 Gaussian 16, Revision A.03,
 Gaussian 16:  ES64L-G16RevA.03 25-Dec-2016

 -------------------------------------
 # td=(NStates=1) CAM-B3LYP/6-31G(d,p)
 -------------------------------------

 --
 TD
 --
 Symbolic Z-matrix:
 Charge =  0 Multiplicity = 1

                         Standard orientation:
 ---------------------------------------------------------------------
 Center     Atomic      Atomic             Coordinates (Angstroms)
 Number     Number       Type             X           Y           Z
 ---------------------------------------------------------------------
      1          8           0      -11.774641    0.288026   -1.581929
      2          8           0      -13.105713   -2.349138    1.416368
      3          8           0       10.707116   -0.969481   -2.170126
      4          8           0       14.637774   -0.968879   -0.132270
      5          6           0      -11.073652   -0.056518   -0.380993
      6          6           0      -11.658987   -1.160423   -1.194370
      7          6           0      -11.862621    0.438168    0.919173
      8          6           0      -13.017014   -1.754734   -0.907599
      9          6           0      -13.435928    0.061026    0.785305
     10          6           0      -13.706682   -1.425073    0.426389
     11          6           0      -10.891106   -1.980257   -2.254220
     12          6           0       -9.575715    0.152764   -0.384101
     13          6           0      -11.251939   -0.069413    2.139372
     14          6           0      -11.784875    1.977956    0.790791
     15          6           0       -8.594693   -0.727917    0.210491
     16          6           0       -7.191560   -0.604552    0.252666
     17          6           0       -6.448957   -1.873228    0.658478
     18          6           0       -6.604923    0.517134    0.056437
     19          6           0       -5.165844    0.854286    0.007068
     20          6           0       12.064103    0.043066    1.378027
     21          6           0       11.678475   -0.411234   -1.309429
     22          6           0       12.731204   -1.268632    1.423533
     23          6           0       13.523115   -1.813816    0.163116
     24          6           0       12.552725   -1.756915   -1.008308
     25          6           0       11.113403    0.044531    0.048084
     26          6           0       11.077070    0.180046    2.557791
     27          6           0       13.000994    1.216177    1.433705
     28          6           0       12.409515    0.684128   -2.075207
     29          6           0       -4.701725    2.138917   -0.323509
     30          6           0        9.948430    0.501629    0.003217
     31          6           0       -3.377658    2.485296   -0.351265
     32          6           0        8.679763    0.914197   -0.079323
     33          6           0       -2.993442    3.830445   -0.656030
     34          6           0       -2.318076    1.562378   -0.179148
     35          6           0        7.452747    0.069418    0.036634
     36          6           0        7.689595   -1.426844    0.249399
     37          6           0        6.243169    0.655446    0.007806
     38          6           0       -1.014472    1.798567   -0.324654
     39          6           0        5.014555    0.029524    0.084484
     40          6           0        0.090116    0.897989   -0.211677
     41          6           0        3.838801    0.727276   -0.073893
     42          6           0        1.376515    1.127696   -0.281355
     43          6           0        2.454511    0.229298    0.018156
     44          6           0        2.233981   -1.264214    0.235883
     45          1           0      -12.918413   -2.776446   -1.166583
     46          1           0      -13.701518   -1.489812   -1.775826
     47          1           0      -13.895293    0.419911    1.690970
     48          1           0      -14.032671    0.595650   -0.054832
     49          1           0      -14.568851   -1.794662    0.456710
     50          1           0      -10.729004   -2.845340   -1.814099
     51          1           0      -11.806317   -2.033232   -3.021182
     52          1           0      -10.044183   -1.512586   -2.793716
     53          1           0       -9.328968    1.094879   -0.712177
     54          1           0      -10.242064    0.469435    2.258191
     55          1           0      -11.871905    0.166117    2.964064
     56          1           0      -11.162048   -1.154386    2.351362
     57          1           0      -12.173958    2.451955   -0.101814
     58          1           0      -12.385828    2.505337    1.504172
     59          1           0      -10.755181    2.461645    0.807392
     60          1           0      -12.198222   -2.523727    1.372980
     61          1           0       -9.105706   -1.698702    0.787106
     62          1           0       -5.751670   -2.293207   -0.232528
     63          1           0       -5.817714   -1.568776    1.499677
     64          1           0       -7.134352   -2.621683    0.948727
     65          1           0       -7.165777    1.325180   -0.193456
     66          1           0       -4.560509    0.134914    0.307468
     67          1           0       13.527953   -1.322867    2.110815
     68          1           0       12.009026   -1.956115    1.697459
     69          1           0       13.931336   -2.803253    0.359372
     70          1           0       13.108156   -2.020660   -1.842354
     71          1           0       11.523279   -2.427489   -0.966654
     72          1           0       11.617913    0.119305    3.456269
     73          1           0       10.549822    1.267360    2.535419
     74          1           0       10.421513   -0.609381    2.702979
     75          1           0       13.858702    1.088845    0.628620
     76          1           0       12.389243    2.141019    1.570321
     77          1           0       13.446945    1.165419    2.292081
     78          1           0       12.464110    0.411991   -3.055188
     79          1           0       11.810517    1.609839   -1.882961
     80          1           0       13.388033    0.762131   -1.782203
     81          1           0       -5.464031    2.919043   -0.479049
     82          1           0       10.006072   -0.302709   -2.407273
     83          1           0       15.197103   -0.813071    0.632015
     84          1           0        8.349147    1.993566   -0.230154
     85          1           0       -2.349921    4.395842    0.364415
     86          1           0       -2.531178    3.916555   -1.573554
     87          1           0       -3.863489    4.344177   -0.876083
     88          1           0       -2.638652    0.569878    0.151022
     89          1           0        6.772315   -1.822244    0.358348
     90          1           0        8.180164   -1.738297   -0.658873
     91          1           0        8.244848   -1.533395    1.096241
     92          1           0        6.384202    1.703901   -0.460407
     93          1           0       -0.649853    2.635091   -0.618319
     94          1           0        4.882217   -0.883046    0.430577
     95          1           0       -0.307124   -0.115079   -0.268069
     96          1           0        4.089076    1.709571   -0.407993
     97          1           0        1.580357    2.044724   -0.537540
     98          1           0        1.143099   -1.495974    0.374619
     99          1           0        2.832495   -1.875237   -0.559987
    100          1           0        2.712954   -1.657649    1.161607
 ---------------------------------------------------------------------

 SCF Done:  E(RCAM-B3LYP) =  -1857.29742978     A.U. after   16 cycles

 Excitation energies and oscillator strengths:

 Excited State   1:      Singlet-A      1.8627 eV  665.63 nm  f=2.9260  <S**2>=0.000
     163 ->166        -0.11031
     164 ->165         0.70839
     164 <-165        -0.13999
 This state for optimization and/or second-order correction.
 Total Energy, E(TD-HF/TD-DFT) =  -1857.22897836
 Copying the excited state density for this state as the 1-particle RhoCI density.

 The electronic state is 1-A.
 Alpha  occ. eigenvalues --  -19.22275 -19.21392 -19.20768 -19.18903 -10.32166
 Alpha  occ. eigenvalues --  -10.31661 -10.31597 -10.31504 -10.29986 -10.29046
 Alpha  occ. eigenvalues --  -10.28741 -10.28602 -10.28140 -10.27589 -10.27343
 Alpha  occ. eigenvalues --  -10.27157 -10.26727 -10.26638 -10.26510 -10.26338
 Alpha  occ. eigenvalues --  -10.26296 -10.26271 -10.26141 -10.26108 -10.26004
 Alpha  occ. eigenvalues --  -10.25961 -10.25789 -10.25624 -10.25553 -10.25438
 Alpha  occ. eigenvalues --  -10.25413 -10.25380 -10.25377 -10.25170 -10.24976
 Alpha  occ. eigenvalues --  -10.24914 -10.24657 -10.24502 -10.24479 -10.24341
 Alpha  occ. eigenvalues --  -10.24257 -10.24160 -10.23408 -10.22655  -1.12193
 Alpha  occ. eigenvalues --   -1.10457  -1.09706  -1.07275  -0.93304  -0.93214
 Alpha  occ. eigenvalues --   -0.92201  -0.91769  -0.90599  -0.89716  -0.87922
 Alpha  occ. eigenvalues --   -0.86975  -0.86349  -0.85252  -0.84418  -0.83301
 Alpha  occ. eigenvalues --   -0.82311  -0.81312  -0.80802  -0.79849  -0.77980
 Alpha  occ. eigenvalues --   -0.77200  -0.77114  -0.76617  -0.76543  -0.76082
 Alpha  occ. eigenvalues --   -0.75541  -0.74002  -0.73005  -0.71258  -0.70724
 Alpha  occ. eigenvalues --   -0.69370  -0.67909  -0.66021  -0.65477  -0.64248
 Alpha  occ. eigenvalues --   -0.64217  -0.62860  -0.62235  -0.61228  -0.60265
 Alpha  occ. eigenvalues --   -0.58957  -0.58532  -0.58342  -0.57590  -0.56488
 Alpha  occ. eigenvalues --   -0.55731  -0.55435  -0.54976  -0.54463  -0.53984
 Alpha  occ. eigenvalues --   -0.53678  -0.53517  -0.53146  -0.52474  -0.52031
 Alpha  occ. eigenvalues --   -0.51645  -0.51294  -0.51013  -0.50696  -0.50285
 Alpha  occ. eigenvalues --   -0.49874  -0.49825  -0.49090  -0.48870  -0.48508
 Alpha  occ. eigenvalues --   -0.48281  -0.48125  -0.47738  -0.47529  -0.46839
 Alpha  occ. eigenvalues --   -0.46661  -0.46435  -0.46060  -0.45935  -0.45628
 Alpha  occ. eigenvalues --   -0.45345  -0.44783  -0.44544  -0.44275  -0.44220
 Alpha  occ. eigenvalues --   -0.44103  -0.43730  -0.43033  -0.42793  -0.42596
 Alpha  occ. eigenvalues --   -0.42496  -0.42355  -0.42144  -0.41941  -0.41192
 Alpha  occ. eigenvalues --   -0.40925  -0.40896  -0.40422  -0.40361  -0.40044
 Alpha  occ. eigenvalues --   -0.39816  -0.39474  -0.39116  -0.38918  -0.38773
 Alpha  occ. eigenvalues --   -0.38664  -0.38331  -0.37418  -0.37242  -0.37113
 Alpha  occ. eigenvalues --   -0.35955  -0.35692  -0.35226  -0.34314  -0.33842
 Alpha  occ. eigenvalues --   -0.33294  -0.32485  -0.31429  -0.31225  -0.30959
 Alpha  occ. eigenvalues --   -0.30607  -0.27332  -0.24768  -0.18534
 Alpha virt. eigenvalues --   -0.07154  -0.00339   0.02689   0.06466   0.07134
 Alpha virt. eigenvalues --    0.09925   0.10104   0.10431   0.12067   0.12903
 Alpha virt. eigenvalues --    0.13088   0.13755   0.14172   0.14405   0.14449

 Mulliken charges:
               1
     1  O   -0.520978
     2  O   -0.590156
     3  O   -0.564160
     4  O   -0.551043
     5  C    0.239523
     6  C    0.190750
     7  C    0.030734
     8  C   -0.229315
     9  C   -0.193147
    10  C    0.210309
    11  C   -0.308462
    12  C   -0.115757
    13  C   -0.295379
    14  C   -0.330235
    15  C   -0.114047
    16  C    0.122053
    17  C   -0.364620
    18  C   -0.106240
    19  C   -0.058573
    20  C    0.030867
    21  C    0.234824
    22  C   -0.190861
    23  C    0.151259
    24  C   -0.188489
    25  C   -0.137361
    26  C   -0.313275
    27  C   -0.305696
    28  C   -0.310529
    29  C   -0.135227
    30  C    0.235743
    31  C    0.113153
    32  C   -0.315805
    33  C   -0.360367
    34  C   -0.097142
    35  C    0.097677
    36  C   -0.346382
    37  C   -0.119547
    38  C   -0.063880
    39  C   -0.064505
    40  C   -0.089698
    41  C   -0.118548
    42  C   -0.080975
    43  C    0.088472
    44  C   -0.380531
    45  H    0.108379
    46  H    0.108005
    47  H    0.102743
    48  H    0.102606
    49  H    0.095902
    50  H    0.119895
    51  H    0.094349
    52  H    0.129500
    53  H    0.100204
    54  H    0.105108
    55  H    0.110564
    56  H    0.085884
    57  H    0.129329
    58  H    0.099519
    59  H    0.089491
    60  H    0.294671
    61  H    0.060501
    62  H    0.104977
    63  H    0.125095
    64  H    0.113987
    65  H    0.065466
    66  H    0.072021
    67  H    0.074163
    68  H    0.105680
    69  H    0.091360
    70  H    0.106588
    71  H    0.110546
    72  H    0.099504
    73  H    0.096983
    74  H    0.113225
    75  H    0.112670
    76  H    0.099668
    77  H    0.110750
    78  H    0.120969
    79  H    0.091052
    80  H    0.132499
    81  H    0.089640
    82  H    0.306090
    83  H    0.308147
    84  H    0.095816
    85  H    0.082968
    86  H    0.134061
    87  H    0.102958
    88  H    0.069364
    89  H    0.107016
    90  H    0.134166
    91  H    0.127355
    92  H    0.072071
    93  H    0.058889
    94  H    0.072079
    95  H    0.070964
    96  H    0.074603
    97  H    0.068176
    98  H    0.117221
    99  H    0.120250
   100  H    0.119881
 Sum of Mulliken charges =  -0.00000

 Dipole moment (field-independent basis, Debye):
    X=              4.2563    Y=             -0.3701    Z=              1.8716  Tot=              4.6643
 Quadrupole moment (field-independent basis, Debye-Ang):
   XX=           -261.8866   YY=           -260.4343   ZZ=           -274.8806
   XY=             -1.2983   XZ=             31.5470   YZ=             -3.9884

 Normal termination of Gaussian 16 at Mon Jul 29 06:01:22 2019.
