 Gaussian 16, Revision A.03,
 Gaussian 16:  ES64L-G16RevA.03 25-Dec-2016

 -------------------------------------
 # td=(NStates=1) CAM-B3LYP/6-31G(d,p)
 -------------------------------------

 --
 TD
 --
 Symbolic Z-matrix:
 Charge =  0 Multiplicity = 1

                         Standard orientation:
 ---------------------------------------------------------------------
 Center     Atomic      Atomic             Coordinates (Angstroms)
 Number     Number       Type             X           Y           Z
 ---------------------------------------------------------------------
      1          8           0      -11.697216    0.068455   -1.583539
      2          8           0      -12.931716   -2.499812    1.587081
      3          8           0       10.651498   -1.228671   -2.065900
      4          8           0       14.423542   -1.138469   -0.120975
      5          6           0      -11.057509   -0.192713   -0.353867
      6          6           0      -11.689619   -1.289467   -1.173477
      7          6           0      -11.798250    0.494137    0.903408
      8          6           0      -13.045108   -1.827486   -0.845882
      9          6           0      -13.233014   -0.062004    0.880661
     10          6           0      -13.443537   -1.510367    0.635132
     11          6           0      -10.850787   -2.224917   -1.919466
     12          6           0       -9.558596    0.025734   -0.554457
     13          6           0      -11.094287    0.194909    2.251996
     14          6           0      -11.822422    1.975251    0.702990
     15          6           0       -8.600370   -0.757636    0.041453
     16          6           0       -7.183802   -0.514734    0.112821
     17          6           0       -6.346223   -1.757914    0.545898
     18          6           0       -6.684000    0.618906   -0.214897
     19          6           0       -5.268557    0.958115   -0.187630
     20          6           0       11.897510    0.233256    1.271177
     21          6           0       11.740569   -0.799160   -1.193295
     22          6           0       12.632691   -1.144311    1.582721
     23          6           0       13.309066   -1.885166    0.396844
     24          6           0       12.247954   -2.086925   -0.554219
     25          6           0       11.017286    0.051744   -0.010954
     26          6           0       10.929423    0.575519    2.408944
     27          6           0       12.844658    1.446844    1.190520
     28          6           0       12.661564    0.034398   -2.066965
     29          6           0       -4.716547    2.176954   -0.494096
     30          6           0        9.891789    0.501068   -0.241735
     31          6           0       -3.324664    2.489767   -0.532895
     32          6           0        8.666483    0.930986   -0.310181
     33          6           0       -2.945247    3.935451   -0.698478
     34          6           0       -2.335487    1.640798   -0.200676
     35          6           0        7.548915    0.179193   -0.012292
     36          6           0        7.597769   -1.214006    0.594302
     37          6           0        6.181027    0.696741   -0.212168
     38          6           0       -0.939091    1.972066   -0.284959
     39          6           0        4.981159    0.122947   -0.006358
     40          6           0        0.035141    0.938244   -0.102332
     41          6           0        3.807797    0.797441   -0.160849
     42          6           0        1.433257    1.222404   -0.327343
     43          6           0        2.519239    0.379332   -0.090134
     44          6           0        2.339522   -1.030869    0.476505
     45          1           0      -13.179579   -2.866970   -1.091285
     46          1           0      -13.809915   -1.199546   -1.450472
     47          1           0      -13.668639    0.037485    1.939384
     48          1           0      -13.892192    0.629120    0.226789
     49          1           0      -14.499774   -1.703152    0.728749
     50          1           0      -10.746166   -3.163661   -1.532162
     51          1           0      -11.297441   -2.324649   -3.001233
     52          1           0       -9.741931   -1.759551   -2.363331
     53          1           0       -9.457991    1.074391   -1.102792
     54          1           0      -10.064458    0.793555    2.335197
     55          1           0      -11.841165    0.377420    3.182503
     56          1           0      -10.867238   -0.762641    2.302619
     57          1           0      -12.207128    2.406881   -0.349805
     58          1           0      -12.359097    2.800401    1.329538
     59          1           0      -10.919263    2.451427    1.020715
     60          1           0      -12.040165   -3.118943    1.342393
     61          1           0       -8.985191   -1.420530    0.362009
     62          1           0       -5.683107   -1.949815   -0.342123
     63          1           0       -5.850014   -1.500259    1.542952
     64          1           0       -6.877818   -2.749502    0.715840
     65          1           0       -7.405261    1.540575   -0.342133
     66          1           0       -4.617841    0.267712   -0.136174
     67          1           0       13.573757   -0.962480    2.193076
     68          1           0       11.840194   -1.833406    2.331080
     69          1           0       13.521492   -2.890877    0.814778
     70          1           0       12.544654   -2.650604   -1.550701
     71          1           0       11.488106   -2.574654   -0.270085
     72          1           0       11.370443    0.521721    3.489482
     73          1           0       10.644454    1.562216    2.412330
     74          1           0       10.261619   -0.041192    2.371781
     75          1           0       13.820521    1.067675    0.748917
     76          1           0       12.365711    2.381575    0.661227
     77          1           0       13.179259    1.716841    2.274194
     78          1           0       12.901544   -0.658372   -2.931142
     79          1           0       12.105576    0.824428   -2.381000
     80          1           0       13.551041    0.388846   -1.674620
     81          1           0       -5.402144    3.027163   -0.701169
     82          1           0       10.032778   -0.484894   -2.199916
     83          1           0       15.116832   -0.932315    0.579866
     84          1           0        8.727280    1.897830   -0.793849
     85          1           0       -2.328468    4.236503    0.213281
     86          1           0       -2.261986    4.232639   -1.687715
     87          1           0       -3.892836    4.414045   -0.612277
     88          1           0       -2.402250    0.501971   -0.249525
     89          1           0        6.582996   -1.672951    0.863129
     90          1           0        8.274814   -1.763853   -0.211770
     91          1           0        8.417973   -1.199001    1.465762
     92          1           0        6.293569    1.718791   -0.800835
     93          1           0       -0.573499    2.806025   -0.533215
     94          1           0        4.804921   -0.831202    0.305079
     95          1           0       -0.306216    0.043486    0.171350
     96          1           0        3.910382    1.798480   -0.761070
     97          1           0        1.583729    2.476468   -0.437593
     98          1           0        1.247155   -1.328101    0.664623
     99          1           0        2.528531   -1.695448   -0.344990
    100          1           0        2.846366   -1.336293    1.256402
 ---------------------------------------------------------------------

 SCF Done:  E(RCAM-B3LYP) =  -1857.14182229     A.U. after   15 cycles

 Excitation energies and oscillator strengths:

 Excited State   1:      Singlet-A      2.1573 eV  574.72 nm  f=3.4346  <S**2>=0.000
     163 ->166        -0.14461
     164 ->165         0.69199
 This state for optimization and/or second-order correction.
 Total Energy, E(TD-HF/TD-DFT) =  -1857.06254282
 Copying the excited state density for this state as the 1-particle RhoCI density.

 The electronic state is 1-A.
 Alpha  occ. eigenvalues --  -19.23713 -19.22078 -19.22068 -19.19887 -10.31904
 Alpha  occ. eigenvalues --  -10.31845 -10.31795 -10.31656 -10.30824 -10.28778
 Alpha  occ. eigenvalues --  -10.28559 -10.28322 -10.28244 -10.28195 -10.27584
 Alpha  occ. eigenvalues --  -10.27301 -10.27246 -10.27052 -10.26860 -10.26681
 Alpha  occ. eigenvalues --  -10.26652 -10.26639 -10.26624 -10.26570 -10.26553
 Alpha  occ. eigenvalues --  -10.26368 -10.26134 -10.26065 -10.25896 -10.25863
 Alpha  occ. eigenvalues --  -10.25819 -10.25778 -10.25597 -10.25470 -10.25394
 Alpha  occ. eigenvalues --  -10.25260 -10.25193 -10.25174 -10.24931 -10.24869
 Alpha  occ. eigenvalues --  -10.23994 -10.23925 -10.22531 -10.22447  -1.16267
 Alpha  occ. eigenvalues --   -1.10147  -1.07815  -1.05634  -0.93158  -0.92597
 Alpha  occ. eigenvalues --   -0.92256  -0.91341  -0.90672  -0.90146  -0.87928
 Alpha  occ. eigenvalues --   -0.87309  -0.86971  -0.85961  -0.84787  -0.83276
 Alpha  occ. eigenvalues --   -0.82163  -0.81098  -0.80740  -0.78142  -0.77430
 Alpha  occ. eigenvalues --   -0.77219  -0.76209  -0.75943  -0.75823  -0.75635
 Alpha  occ. eigenvalues --   -0.75511  -0.73677  -0.72761  -0.70627  -0.69872
 Alpha  occ. eigenvalues --   -0.69275  -0.67522  -0.65267  -0.65233  -0.64120
 Alpha  occ. eigenvalues --   -0.64067  -0.63324  -0.62058  -0.60605  -0.60129
 Alpha  occ. eigenvalues --   -0.58769  -0.58531  -0.58201  -0.57802  -0.56601
 Alpha  occ. eigenvalues --   -0.55894  -0.55616  -0.54205  -0.53965  -0.53618
 Alpha  occ. eigenvalues --   -0.53514  -0.52826  -0.52231  -0.51920  -0.51758
 Alpha  occ. eigenvalues --   -0.51102  -0.50801  -0.50515  -0.50434  -0.50367
 Alpha  occ. eigenvalues --   -0.49766  -0.49409  -0.49352  -0.48935  -0.48632
 Alpha  occ. eigenvalues --   -0.48455  -0.47471  -0.47211  -0.47055  -0.46649
 Alpha  occ. eigenvalues --   -0.46539  -0.46199  -0.45693  -0.45266  -0.45158
 Alpha  occ. eigenvalues --   -0.44864  -0.44609  -0.44295  -0.44070  -0.43801
 Alpha  occ. eigenvalues --   -0.43487  -0.43338  -0.43322  -0.42576  -0.42397
 Alpha  occ. eigenvalues --   -0.42050  -0.41834  -0.41732  -0.41169  -0.40940
 Alpha  occ. eigenvalues --   -0.40715  -0.40269  -0.40120  -0.39485  -0.39317
 Alpha  occ. eigenvalues --   -0.39208  -0.39002  -0.38820  -0.38387  -0.38366
 Alpha  occ. eigenvalues --   -0.38005  -0.37847  -0.37570  -0.37340  -0.37108
 Alpha  occ. eigenvalues --   -0.37035  -0.35602  -0.34822  -0.34301  -0.33410
 Alpha  occ. eigenvalues --   -0.32908  -0.32180  -0.31970  -0.31681  -0.31276
 Alpha  occ. eigenvalues --   -0.30805  -0.27831  -0.23992  -0.19255
 Alpha virt. eigenvalues --   -0.06005  -0.01106   0.03124   0.06799   0.07215
 Alpha virt. eigenvalues --    0.08554   0.09226   0.10423   0.11943   0.12237
 Alpha virt. eigenvalues --    0.12555   0.13485   0.13731   0.13827   0.13942

 Mulliken charges:
               1
     1  O   -0.493410
     2  O   -0.590355
     3  O   -0.588775
     4  O   -0.555045
     5  C    0.152631
     6  C    0.288657
     7  C    0.064063
     8  C   -0.232580
     9  C   -0.197892
    10  C    0.189464
    11  C   -0.352319
    12  C   -0.103459
    13  C   -0.293239
    14  C   -0.324807
    15  C    0.027094
    16  C    0.110725
    17  C   -0.372038
    18  C   -0.129894
    19  C   -0.042555
    20  C    0.048608
    21  C    0.214355
    22  C   -0.200298
    23  C    0.176357
    24  C   -0.149354
    25  C   -0.134533
    26  C   -0.279136
    27  C   -0.301026
    28  C   -0.268800
    29  C   -0.126963
    30  C    0.149918
    31  C    0.104746
    32  C   -0.249515
    33  C   -0.364021
    34  C   -0.135785
    35  C    0.121902
    36  C   -0.367962
    37  C   -0.117688
    38  C   -0.043372
    39  C   -0.057367
    40  C   -0.066897
    41  C   -0.119529
    42  C   -0.145331
    43  C    0.112389
    44  C   -0.385816
    45  H    0.099676
    46  H    0.116981
    47  H    0.095426
    48  H    0.110316
    49  H    0.103763
    50  H    0.112611
    51  H    0.105144
    52  H    0.102058
    53  H    0.098650
    54  H    0.090887
    55  H    0.091976
    56  H    0.112318
    57  H    0.102287
    58  H    0.092100
    59  H    0.104223
    60  H    0.306864
    61  H   -0.015643
    62  H    0.126625
    63  H    0.124469
    64  H    0.105648
    65  H    0.082278
    66  H    0.060287
    67  H    0.068676
    68  H    0.074059
    69  H    0.091863
    70  H    0.092452
    71  H    0.119397
    72  H    0.072444
    73  H    0.113857
    74  H    0.104112
    75  H    0.095612
    76  H    0.103769
    77  H    0.089935
    78  H    0.106073
    79  H    0.091189
    80  H    0.127977
    81  H    0.074960
    82  H    0.303852
    83  H    0.318324
    84  H    0.114092
    85  H    0.122549
    86  H    0.102404
    87  H    0.108722
    88  H    0.081583
    89  H    0.116586
    90  H    0.123743
    91  H    0.104586
    92  H    0.068872
    93  H    0.058631
    94  H    0.078621
    95  H    0.071920
    96  H    0.065455
    97  H    0.072973
    98  H    0.095693
    99  H    0.129065
   100  H    0.135862
 Sum of Mulliken charges =  -0.00000

 Dipole moment (field-independent basis, Debye):
    X=              2.4396    Y=             -1.0452    Z=              2.1963  Tot=              3.4450
 Quadrupole moment (field-independent basis, Debye-Ang):
   XX=           -250.3396   YY=           -256.0659   ZZ=           -280.6458
   XY=             13.7765   XZ=             33.7518   YZ=             -4.7409

 Normal termination of Gaussian 16 at Thu Aug  1 02:42:15 2019.
