 Gaussian 16, Revision A.03,
 Gaussian 16:  ES64L-G16RevA.03 25-Dec-2016

 -------------------------------------
 # td=(NStates=1) CAM-B3LYP/6-31G(d,p)
 -------------------------------------

 --
 TD
 --
 Symbolic Z-matrix:
 Charge =  0 Multiplicity = 1

                         Standard orientation:
 ---------------------------------------------------------------------
 Center     Atomic      Atomic             Coordinates (Angstroms)
 Number     Number       Type             X           Y           Z
 ---------------------------------------------------------------------
      1          8           0      -11.654324    0.307377   -1.657471
      2          8           0      -13.169513   -2.503846    1.326016
      3          8           0       10.663268   -1.242421   -2.183091
      4          8           0       14.581705   -0.850868   -0.024550
      5          6           0      -11.079930   -0.046193   -0.325366
      6          6           0      -11.595475   -1.144975   -1.335889
      7          6           0      -11.843152    0.340960    0.927568
      8          6           0      -12.949447   -1.779957   -1.071883
      9          6           0      -13.365813   -0.054264    0.777680
     10          6           0      -13.610991   -1.461292    0.311630
     11          6           0      -10.602355   -1.959621   -2.186865
     12          6           0       -9.562299    0.136530   -0.233956
     13          6           0      -11.180694   -0.201916    2.178157
     14          6           0      -11.663477    1.957673    0.895411
     15          6           0       -8.763018   -0.699653    0.222232
     16          6           0       -7.269662   -0.654329    0.319837
     17          6           0       -6.455701   -1.920154    0.681332
     18          6           0       -6.640422    0.539279   -0.099144
     19          6           0       -5.226813    0.898914   -0.034669
     20          6           0       11.906182    0.102999    1.248612
     21          6           0       11.629331   -0.683625   -1.318696
     22          6           0       12.709592   -1.219037    1.594015
     23          6           0       13.526819   -1.738801    0.325422
     24          6           0       12.583689   -1.867030   -0.929363
     25          6           0       11.052976   -0.063188   -0.030973
     26          6           0       10.916746    0.278797    2.503291
     27          6           0       12.805710    1.302807    1.298431
     28          6           0       12.447752    0.397679   -2.037939
     29          6           0       -4.773761    2.150591   -0.356855
     30          6           0        9.906058    0.510520   -0.097581
     31          6           0       -3.455507    2.610217   -0.347301
     32          6           0        8.612171    0.835587   -0.189693
     33          6           0       -3.130160    4.056535   -0.699733
     34          6           0       -2.342575    1.722575   -0.122919
     35          6           0        7.416683   -0.012432    0.015538
     36          6           0        7.630209   -1.491419    0.190567
     37          6           0        6.210496    0.699547   -0.058399
     38          6           0       -0.958337    1.916007   -0.314103
     39          6           0        4.929080    0.194208    0.042127
     40          6           0        0.077580    0.989317   -0.127360
     41          6           0        3.825370    0.911510   -0.102688
     42          6           0        1.377268    1.242357   -0.187246
     43          6           0        2.462914    0.382582   -0.011710
     44          6           0        2.421508   -1.051273    0.562305
     45          1           0      -12.630155   -3.016753   -0.939628
     46          1           0      -13.551641   -1.700061   -1.767327
     47          1           0      -13.646586    0.152089    1.700657
     48          1           0      -13.803910    0.631493    0.095736
     49          1           0      -14.642918   -1.775460    0.311607
     50          1           0      -10.375145   -2.940780   -1.788550
     51          1           0      -11.143289   -2.186189   -3.188123
     52          1           0       -9.596327   -1.412142   -2.337259
     53          1           0       -9.236210    1.148948   -0.536512
     54          1           0      -10.202130    0.358744    2.260602
     55          1           0      -11.706323    0.269487    3.043770
     56          1           0      -11.320382   -1.276315    2.383660
     57          1           0      -11.929985    2.221494   -0.034845
     58          1           0      -12.307519    2.507944    1.542256
     59          1           0      -10.474924    2.419905    0.975708
     60          1           0      -12.315394   -2.922386    1.203564
     61          1           0       -8.957214   -1.909741    0.597739
     62          1           0       -5.830186   -2.484219   -0.024832
     63          1           0       -5.752055   -1.703932    1.704847
     64          1           0       -7.022370   -2.809568    0.815848
     65          1           0       -7.362025    1.277064   -0.322842
     66          1           0       -4.720635   -0.065546    0.166538
     67          1           0       13.406524   -1.090817    2.254342
     68          1           0       12.002796   -2.047599    1.741349
     69          1           0       14.112540   -2.762867    0.751056
     70          1           0       13.223076   -2.135111   -1.739771
     71          1           0       11.968120   -2.675479   -0.704165
     72          1           0       11.833235    0.470021    3.315302
     73          1           0       10.374941    1.169033    2.589494
     74          1           0       10.249619   -0.459486    2.584809
     75          1           0       13.563022    1.294585    0.377037
     76          1           0       11.998618    2.099105    0.921574
     77          1           0       13.103614    1.282914    2.100373
     78          1           0       12.842125   -0.042642   -3.146634
     79          1           0       11.862423    1.314786   -2.271401
     80          1           0       13.536073    0.442711   -1.528530
     81          1           0       -5.549302    2.919109   -0.608964
     82          1           0        9.917657   -0.574153   -2.758506
     83          1           0       15.186867   -0.555878    0.712193
     84          1           0        8.485807    1.945981   -0.472458
     85          1           0       -2.416818    4.369793   -0.027371
     86          1           0       -2.771481    4.425205   -1.712320
     87          1           0       -4.113559    4.723314   -0.839301
     88          1           0       -2.451441    0.709994    0.166547
     89          1           0        6.724823   -2.099362   -0.094949
     90          1           0        8.426759   -1.837842   -0.428714
     91          1           0        8.022676   -1.765985    1.238440
     92          1           0        6.329209    1.735768   -0.299580
     93          1           0       -0.778316    2.976957   -0.561982
     94          1           0        4.848539   -0.918350    0.328167
     95          1           0       -0.226324   -0.082594    0.217018
     96          1           0        4.083667    1.955834   -0.202969
     97          1           0        1.900819    2.178914   -0.687818
     98          1           0        1.339647   -1.389007    0.508388
     99          1           0        3.138620   -1.782456   -0.041063
    100          1           0        3.112389   -1.028605    1.527618
 ---------------------------------------------------------------------

 SCF Done:  E(RCAM-B3LYP) =  -1857.17994752     A.U. after   15 cycles

 Excitation energies and oscillator strengths:

 Excited State   1:      Singlet-A      2.1099 eV  587.63 nm  f=2.9772  <S**2>=0.000
     163 ->166        -0.12565
     164 ->165         0.69943
     164 <-165        -0.10475
 This state for optimization and/or second-order correction.
 Total Energy, E(TD-HF/TD-DFT) =  -1857.10240957
 Copying the excited state density for this state as the 1-particle RhoCI density.

 The electronic state is 1-A.
 Alpha  occ. eigenvalues --  -19.22275 -19.22198 -19.22051 -19.20026 -10.33196
 Alpha  occ. eigenvalues --  -10.32739 -10.32506 -10.31949 -10.31751 -10.28569
 Alpha  occ. eigenvalues --  -10.28392 -10.28373 -10.28210 -10.28166 -10.28099
 Alpha  occ. eigenvalues --  -10.27995 -10.27517 -10.27504 -10.27498 -10.27388
 Alpha  occ. eigenvalues --  -10.27124 -10.26998 -10.26862 -10.26737 -10.26690
 Alpha  occ. eigenvalues --  -10.26578 -10.26488 -10.26433 -10.26194 -10.26188
 Alpha  occ. eigenvalues --  -10.26172 -10.26147 -10.26002 -10.25864 -10.25797
 Alpha  occ. eigenvalues --  -10.25612 -10.25471 -10.25270 -10.25137 -10.24917
 Alpha  occ. eigenvalues --  -10.24616 -10.24520 -10.24318 -10.23822  -1.10978
 Alpha  occ. eigenvalues --   -1.09436  -1.07290  -1.06169  -0.92725  -0.92247
 Alpha  occ. eigenvalues --   -0.91670  -0.91075  -0.90214  -0.89590  -0.87732
 Alpha  occ. eigenvalues --   -0.86591  -0.85824  -0.85405  -0.84566  -0.83122
 Alpha  occ. eigenvalues --   -0.81762  -0.80754  -0.80184  -0.78799  -0.77310
 Alpha  occ. eigenvalues --   -0.77042  -0.76595  -0.76133  -0.75983  -0.75944
 Alpha  occ. eigenvalues --   -0.75065  -0.73785  -0.72789  -0.70545  -0.69236
 Alpha  occ. eigenvalues --   -0.68653  -0.67161  -0.65253  -0.64739  -0.64010
 Alpha  occ. eigenvalues --   -0.63648  -0.62060  -0.60827  -0.60437  -0.59800
 Alpha  occ. eigenvalues --   -0.58447  -0.57855  -0.57474  -0.56483  -0.56388
 Alpha  occ. eigenvalues --   -0.55747  -0.55338  -0.54537  -0.54133  -0.53863
 Alpha  occ. eigenvalues --   -0.53466  -0.53326  -0.52542  -0.51963  -0.51634
 Alpha  occ. eigenvalues --   -0.51491  -0.51065  -0.50871  -0.50716  -0.50327
 Alpha  occ. eigenvalues --   -0.49442  -0.49296  -0.48624  -0.48356  -0.48228
 Alpha  occ. eigenvalues --   -0.47629  -0.47523  -0.46954  -0.46527  -0.46374
 Alpha  occ. eigenvalues --   -0.46196  -0.45806  -0.45650  -0.45399  -0.45289
 Alpha  occ. eigenvalues --   -0.44916  -0.44533  -0.44011  -0.43587  -0.43399
 Alpha  occ. eigenvalues --   -0.43222  -0.42709  -0.42539  -0.42475  -0.42350
 Alpha  occ. eigenvalues --   -0.41985  -0.41807  -0.41604  -0.41111  -0.40792
 Alpha  occ. eigenvalues --   -0.40481  -0.40339  -0.40275  -0.40009  -0.39603
 Alpha  occ. eigenvalues --   -0.39313  -0.39015  -0.38793  -0.38721  -0.38632
 Alpha  occ. eigenvalues --   -0.38323  -0.37887  -0.37535  -0.37489  -0.36370
 Alpha  occ. eigenvalues --   -0.36168  -0.35508  -0.35262  -0.34231  -0.33288
 Alpha  occ. eigenvalues --   -0.32677  -0.32019  -0.31882  -0.30983  -0.30755
 Alpha  occ. eigenvalues --   -0.30002  -0.27801  -0.24556  -0.19540
 Alpha virt. eigenvalues --   -0.06453  -0.00412   0.03179   0.06460   0.07463
 Alpha virt. eigenvalues --    0.08105   0.09659   0.09759   0.10892   0.11108
 Alpha virt. eigenvalues --    0.11594   0.12121   0.12915   0.12962   0.13346

 Mulliken charges:
               1
     1  O   -0.529918
     2  O   -0.593297
     3  O   -0.590131
     4  O   -0.551645
     5  C    0.218479
     6  C    0.239609
     7  C   -0.001735
     8  C   -0.186984
     9  C   -0.166290
    10  C    0.165633
    11  C   -0.328370
    12  C   -0.162212
    13  C   -0.299958
    14  C   -0.329937
    15  C    0.006114
    16  C    0.056074
    17  C   -0.376509
    18  C   -0.105530
    19  C   -0.056327
    20  C   -0.033736
    21  C    0.296756
    22  C   -0.159337
    23  C    0.147438
    24  C   -0.191666
    25  C   -0.078259
    26  C   -0.277329
    27  C   -0.229150
    28  C   -0.320879
    29  C   -0.125016
    30  C    0.134361
    31  C    0.096879
    32  C   -0.272529
    33  C   -0.379156
    34  C   -0.109040
    35  C    0.133547
    36  C   -0.386539
    37  C   -0.123875
    38  C   -0.076922
    39  C   -0.058478
    40  C   -0.109247
    41  C   -0.120284
    42  C   -0.082142
    43  C    0.093292
    44  C   -0.370949
    45  H    0.066381
    46  H    0.118656
    47  H    0.112471
    48  H    0.115520
    49  H    0.115209
    50  H    0.108148
    51  H    0.102011
    52  H    0.126178
    53  H    0.112390
    54  H    0.114468
    55  H    0.093881
    56  H    0.105538
    57  H    0.141572
    58  H    0.104917
    59  H    0.070050
    60  H    0.300101
    61  H    0.048377
    62  H    0.126321
    63  H    0.098691
    64  H    0.109138
    65  H    0.064297
    66  H    0.097502
    67  H    0.079784
    68  H    0.101576
    69  H    0.048780
    70  H    0.120041
    71  H    0.119137
    72  H    0.056341
    73  H    0.114537
    74  H    0.110409
    75  H    0.102169
    76  H    0.089003
    77  H    0.075391
    78  H    0.070010
    79  H    0.097841
    80  H    0.139897
    81  H    0.090075
    82  H    0.321397
    83  H    0.311865
    84  H    0.094715
    85  H    0.137384
    86  H    0.119584
    87  H    0.092549
    88  H    0.071526
    89  H    0.110127
    90  H    0.146171
    91  H    0.114541
    92  H    0.078284
    93  H    0.073711
    94  H    0.066162
    95  H    0.082636
    96  H    0.080573
    97  H    0.082761
    98  H    0.105935
    99  H    0.110977
   100  H    0.127491
 Sum of Mulliken charges =  -0.00000

 Dipole moment (field-independent basis, Debye):
    X=              2.8152    Y=             -0.4648    Z=              0.9121  Tot=              2.9956
 Quadrupole moment (field-independent basis, Debye-Ang):
   XX=           -265.0283   YY=           -258.4784   ZZ=           -278.8589
   XY=              5.1023   XZ=             26.5758   YZ=             -2.8003

 Normal termination of Gaussian 16 at Tue Jul 30 06:41:51 2019.
