 Gaussian 16, Revision A.03,
 Gaussian 16:  ES64L-G16RevA.03 25-Dec-2016

 -------------------------------------
 # td=(NStates=1) CAM-B3LYP/6-31G(d,p)
 -------------------------------------

 --
 TD
 --
 Symbolic Z-matrix:
 Charge =  0 Multiplicity = 1

                         Standard orientation:
 ---------------------------------------------------------------------
 Center     Atomic      Atomic             Coordinates (Angstroms)
 Number     Number       Type             X           Y           Z
 ---------------------------------------------------------------------
      1          8           0      -11.717691    0.248539   -1.618577
      2          8           0      -13.180284   -2.281510    1.447028
      3          8           0       10.624719   -1.031510   -2.004719
      4          8           0       14.456851   -0.931383   -0.117464
      5          6           0      -10.882798   -0.115296   -0.374390
      6          6           0      -11.557422   -1.170702   -1.164920
      7          6           0      -11.740855    0.382315    0.908757
      8          6           0      -12.893695   -1.777811   -0.853088
      9          6           0      -13.340459   -0.007835    0.805988
     10          6           0      -13.565061   -1.444784    0.496792
     11          6           0      -10.780723   -1.994457   -2.239701
     12          6           0       -9.432079    0.126847   -0.394276
     13          6           0      -11.062463   -0.114504    2.205942
     14          6           0      -11.587552    1.856412    0.922255
     15          6           0       -8.605554   -0.737230    0.186507
     16          6           0       -7.179111   -0.580634    0.287803
     17          6           0       -6.298754   -1.865515    0.504318
     18          6           0       -6.644806    0.666068    0.073909
     19          6           0       -5.215775    0.883597    0.087318
     20          6           0       11.937499    0.010509    1.399511
     21          6           0       11.645617   -0.549332   -1.146685
     22          6           0       12.666753   -1.354229    1.494590
     23          6           0       13.410439   -1.814151    0.261060
     24          6           0       12.483611   -1.919323   -0.794283
     25          6           0       11.047931    0.024468    0.138165
     26          6           0       10.931066    0.287276    2.520788
     27          6           0       12.874745    1.207719    1.411345
     28          6           0       12.522055    0.458609   -2.067477
     29          6           0       -4.790581    2.175563   -0.210520
     30          6           0        9.887390    0.490327    0.045519
     31          6           0       -3.456141    2.460485   -0.386958
     32          6           0        8.597082    0.943135   -0.113536
     33          6           0       -3.024568    3.928844   -0.679655
     34          6           0       -2.435394    1.485214   -0.341820
     35          6           0        7.432562    0.101910   -0.102488
     36          6           0        7.726586   -1.309002    0.178314
     37          6           0        6.240597    0.804147   -0.194645
     38          6           0       -0.989558    1.849645   -0.410279
     39          6           0        4.922371    0.161379   -0.131104
     40          6           0        0.014827    0.945469   -0.153219
     41          6           0        3.789667    0.837422   -0.382593
     42          6           0        1.372063    1.213914   -0.315805
     43          6           0        2.446024    0.332088   -0.219956
     44          6           0        2.242664   -1.201373    0.153911
     45          1           0      -12.806570   -2.867861   -1.006663
     46          1           0      -13.700171   -1.341219   -1.500839
     47          1           0      -13.672881    0.269993    1.835003
     48          1           0      -13.526071    0.558120   -0.012922
     49          1           0      -14.597904   -1.705973    0.429091
     50          1           0      -10.498885   -3.079741   -1.721412
     51          1           0      -11.339908   -2.308981   -2.906605
     52          1           0       -9.808913   -1.557380   -2.367838
     53          1           0       -9.094596    1.093405   -0.651235
     54          1           0       -9.960593    0.221046    2.296829
     55          1           0      -11.816840    0.199650    3.038680
     56          1           0      -10.820076   -1.273270    2.187396
     57          1           0      -12.038210    2.314766    0.041949
     58          1           0      -11.865361    2.325652    1.852436
     59          1           0      -10.536416    1.924494    0.928689
     60          1           0      -12.123076   -2.132403    1.312680
     61          1           0       -9.156467   -1.831462    0.295257
     62          1           0       -5.735739   -2.061660   -0.428543
     63          1           0       -5.693499   -1.737991    1.378937
     64          1           0       -7.105935   -2.853136    0.623614
     65          1           0       -7.338171    1.409031   -0.154074
     66          1           0       -4.413375    0.158750    0.078267
     67          1           0       13.309537   -1.333915    2.334596
     68          1           0       12.001485   -2.099285    1.970053
     69          1           0       13.479295   -2.843945    0.377652
     70          1           0       12.938714   -2.188020   -1.743363
     71          1           0       11.657883   -2.617618   -0.473678
     72          1           0       11.285263    0.211886    3.597210
     73          1           0       10.290945    1.349653    2.632849
     74          1           0        9.968078   -0.499036    2.390713
     75          1           0       13.476847    1.307081    0.552319
     76          1           0       12.337644    2.205779    1.471576
     77          1           0       13.371214    1.053070    2.466309
     78          1           0       12.635536    0.166513   -3.119078
     79          1           0       11.796936    1.367685   -2.117450
     80          1           0       13.426702    0.622127   -1.458597
     81          1           0       -5.401358    3.064698   -0.234758
     82          1           0        9.855665   -0.281002   -1.975677
     83          1           0       15.086816   -0.814205    0.772237
     84          1           0        8.623124    2.020908   -0.193326
     85          1           0       -2.794077    4.466975    0.340160
     86          1           0       -2.212790    4.151511   -1.478959
     87          1           0       -4.055072    4.565274   -0.793963
     88          1           0       -2.821684    0.415438   -0.198002
     89          1           0        6.908969   -2.007728    0.206473
     90          1           0        8.231603   -1.829505   -0.720065
     91          1           0        8.255130   -1.345751    1.212557
     92          1           0        6.141059    1.848671   -0.621678
     93          1           0       -0.739410    2.723032   -0.791582
     94          1           0        4.924767   -0.782054    0.288930
     95          1           0       -0.108124   -0.194763   -0.052892
     96          1           0        3.700540    1.958297   -0.462143
     97          1           0        1.556759    2.245560   -0.396959
     98          1           0        1.227778   -1.465295    0.236494
     99          1           0        2.738005   -1.776031   -0.729409
    100          1           0        2.837943   -1.486032    1.080250
 ---------------------------------------------------------------------

 SCF Done:  E(RCAM-B3LYP) =  -1857.28918209     A.U. after   15 cycles

 Excitation energies and oscillator strengths:

 Excited State   1:      Singlet-A      2.2790 eV  544.02 nm  f=2.9166  <S**2>=0.000
     163 ->166        -0.14898
     164 ->165         0.68784
 This state for optimization and/or second-order correction.
 Total Energy, E(TD-HF/TD-DFT) =  -1857.20542968
 Copying the excited state density for this state as the 1-particle RhoCI density.

 The electronic state is 1-A.
 Alpha  occ. eigenvalues --  -19.24364 -19.21009 -19.20972 -19.20028 -10.32399
 Alpha  occ. eigenvalues --  -10.31992 -10.31186 -10.30031 -10.28873 -10.28761
 Alpha  occ. eigenvalues --  -10.28696 -10.28448 -10.28295 -10.28293 -10.28288
 Alpha  occ. eigenvalues --  -10.28055 -10.27874 -10.27852 -10.27779 -10.27659
 Alpha  occ. eigenvalues --  -10.27456 -10.27414 -10.27216 -10.27126 -10.27118
 Alpha  occ. eigenvalues --  -10.26933 -10.26754 -10.26702 -10.26680 -10.26679
 Alpha  occ. eigenvalues --  -10.26582 -10.26522 -10.26500 -10.26055 -10.25993
 Alpha  occ. eigenvalues --  -10.25927 -10.25759 -10.25602 -10.25095 -10.25054
 Alpha  occ. eigenvalues --  -10.24566 -10.24282 -10.24161 -10.23260  -1.11706
 Alpha  occ. eigenvalues --   -1.09869  -1.09734  -1.06989  -0.93425  -0.93008
 Alpha  occ. eigenvalues --   -0.92033  -0.91551  -0.90747  -0.89911  -0.87936
 Alpha  occ. eigenvalues --   -0.87217  -0.86128  -0.85567  -0.84709  -0.83099
 Alpha  occ. eigenvalues --   -0.81702  -0.80900  -0.79633  -0.77876  -0.77228
 Alpha  occ. eigenvalues --   -0.76453  -0.76407  -0.76224  -0.75928  -0.75622
 Alpha  occ. eigenvalues --   -0.74483  -0.74358  -0.73205  -0.70461  -0.69678
 Alpha  occ. eigenvalues --   -0.68469  -0.67579  -0.65812  -0.64571  -0.63641
 Alpha  occ. eigenvalues --   -0.63506  -0.61904  -0.61089  -0.60891  -0.59810
 Alpha  occ. eigenvalues --   -0.58867  -0.58836  -0.57927  -0.56956  -0.56732
 Alpha  occ. eigenvalues --   -0.56277  -0.55710  -0.55082  -0.55002  -0.54548
 Alpha  occ. eigenvalues --   -0.54077  -0.53178  -0.52888  -0.52477  -0.51984
 Alpha  occ. eigenvalues --   -0.51517  -0.50926  -0.50561  -0.50152  -0.49746
 Alpha  occ. eigenvalues --   -0.49491  -0.48977  -0.48914  -0.48710  -0.48110
 Alpha  occ. eigenvalues --   -0.47880  -0.47852  -0.47515  -0.47335  -0.47114
 Alpha  occ. eigenvalues --   -0.46820  -0.46625  -0.46371  -0.45926  -0.45900
 Alpha  occ. eigenvalues --   -0.45090  -0.44887  -0.44142  -0.43689  -0.43349
 Alpha  occ. eigenvalues --   -0.43338  -0.43092  -0.42893  -0.42725  -0.42457
 Alpha  occ. eigenvalues --   -0.42034  -0.41678  -0.41496  -0.41368  -0.40989
 Alpha  occ. eigenvalues --   -0.40886  -0.40700  -0.40242  -0.40140  -0.40029
 Alpha  occ. eigenvalues --   -0.39890  -0.39686  -0.39486  -0.39000  -0.38854
 Alpha  occ. eigenvalues --   -0.38669  -0.38280  -0.37812  -0.37578  -0.37288
 Alpha  occ. eigenvalues --   -0.36518  -0.36281  -0.35583  -0.34578  -0.33878
 Alpha  occ. eigenvalues --   -0.33121  -0.31704  -0.31135  -0.31089  -0.30334
 Alpha  occ. eigenvalues --   -0.29473  -0.28053  -0.24480  -0.20410
 Alpha virt. eigenvalues --   -0.05869  -0.01443   0.02551   0.05536   0.08054
 Alpha virt. eigenvalues --    0.08370   0.08459   0.10063   0.10975   0.11698
 Alpha virt. eigenvalues --    0.11969   0.12163   0.12574   0.13130   0.13798

 Mulliken charges:
               1
     1  O   -0.533443
     2  O   -0.515755
     3  O   -0.580098
     4  O   -0.553666
     5  C    0.199912
     6  C    0.219491
     7  C   -0.034769
     8  C   -0.241032
     9  C   -0.163201
    10  C    0.152427
    11  C   -0.287321
    12  C   -0.108231
    13  C   -0.296678
    14  C   -0.286918
    15  C   -0.093626
    16  C    0.057574
    17  C   -0.354705
    18  C   -0.082758
    19  C   -0.080481
    20  C    0.052835
    21  C    0.231011
    22  C   -0.224787
    23  C    0.203008
    24  C   -0.200121
    25  C   -0.110789
    26  C   -0.310337
    27  C   -0.287625
    28  C   -0.303954
    29  C   -0.096753
    30  C    0.138589
    31  C    0.104452
    32  C   -0.248595
    33  C   -0.377874
    34  C   -0.125965
    35  C    0.122590
    36  C   -0.378450
    37  C   -0.120761
    38  C   -0.087422
    39  C   -0.085805
    40  C   -0.061825
    41  C   -0.109988
    42  C   -0.131154
    43  C    0.094511
    44  C   -0.363445
    45  H    0.100995
    46  H    0.124382
    47  H    0.095669
    48  H    0.123927
    49  H    0.082821
    50  H    0.052756
    51  H    0.127460
    52  H    0.127583
    53  H    0.108148
    54  H    0.107713
    55  H    0.109580
    56  H    0.067661
    57  H    0.122329
    58  H    0.097179
    59  H    0.093720
    60  H    0.292820
    61  H    0.075121
    62  H    0.134188
    63  H    0.137143
    64  H    0.079518
    65  H    0.085285
    66  H    0.092303
    67  H    0.083458
    68  H    0.105482
    69  H    0.099696
    70  H    0.114149
    71  H    0.108073
    72  H    0.089607
    73  H    0.097487
    74  H    0.074109
    75  H    0.125078
    76  H    0.100737
    77  H    0.079423
    78  H    0.118646
    79  H    0.069175
    80  H    0.126108
    81  H    0.086690
    82  H    0.298879
    83  H    0.315057
    84  H    0.115657
    85  H    0.118561
    86  H    0.127726
    87  H    0.084355
    88  H    0.076344
    89  H    0.110909
    90  H    0.140151
    91  H    0.123758
    92  H    0.089939
    93  H    0.081520
    94  H    0.086203
    95  H    0.069015
    96  H    0.083476
    97  H    0.073619
    98  H    0.115828
    99  H    0.114073
   100  H    0.120635
 Sum of Mulliken charges =  -0.00000

 Dipole moment (field-independent basis, Debye):
    X=              4.5664    Y=              0.1123    Z=              2.8800  Tot=              5.3999
 Quadrupole moment (field-independent basis, Debye-Ang):
   XX=           -304.5071   YY=           -259.8129   ZZ=           -281.2698
   XY=             -8.4704   XZ=             37.2454   YZ=             -0.5204

 Normal termination of Gaussian 16 at Wed Jul 31 13:36:08 2019.
