 Gaussian 16, Revision A.03,
 Gaussian 16:  ES64L-G16RevA.03 25-Dec-2016

 -------------------------------------
 # td=(NStates=1) CAM-B3LYP/6-31G(d,p)
 -------------------------------------

 --
 TD
 --
 Symbolic Z-matrix:
 Charge =  0 Multiplicity = 1

                         Standard orientation:
 ---------------------------------------------------------------------
 Center     Atomic      Atomic             Coordinates (Angstroms)
 Number     Number       Type             X           Y           Z
 ---------------------------------------------------------------------
      1          8           0       11.684685    0.186298    1.569041
      2          8           0       13.054219   -2.523050   -1.329058
      3          8           0      -10.653219   -1.134867    2.050322
      4          8           0      -14.472118   -0.940852    0.195570
      5          6           0       10.940074   -0.139380    0.376407
      6          6           0       11.612463   -1.169076    1.258760
      7          6           0       11.801427    0.332600   -0.936370
      8          6           0       12.919028   -1.851758    1.004539
      9          6           0       13.312978   -0.092165   -0.865896
     10          6           0       13.497412   -1.551317   -0.416498
     11          6           0       10.683324   -1.932630    2.253531
     12          6           0        9.525222    0.101519    0.419427
     13          6           0       11.146207   -0.124084   -2.109358
     14          6           0       11.722306    1.865589   -0.971986
     15          6           0        8.591298   -0.677709   -0.316058
     16          6           0        7.221120   -0.505427   -0.367730
     17          6           0        6.390781   -1.677117   -0.700145
     18          6           0        6.625818    0.751805   -0.015612
     19          6           0        5.210712    0.934295    0.178948
     20          6           0      -11.948333    0.215771   -1.260396
     21          6           0      -11.707764   -0.742724    1.207061
     22          6           0      -12.749617   -1.089924   -1.668626
     23          6           0      -13.399391   -1.738846   -0.367574
     24          6           0      -12.535434   -1.951827    0.801153
     25          6           0      -11.034353    0.001392   -0.037732
     26          6           0      -11.105074    0.493916   -2.491607
     27          6           0      -12.952654    1.343831   -1.091490
     28          6           0      -12.432591    0.130546    2.217093
     29          6           0        4.680098    2.199105    0.401561
     30          6           0       -9.869479    0.407232    0.047819
     31          6           0        3.343936    2.673801    0.569331
     32          6           0       -8.597088    0.879139    0.181531
     33          6           0        3.057779    4.110108    0.841940
     34          6           0        2.261967    1.721080    0.174389
     35          6           0       -7.408336    0.036508   -0.011130
     36          6           0       -7.660309   -1.355154   -0.561346
     37          6           0       -6.182551    0.576744    0.104365
     38          6           0        0.931292    1.975044    0.207684
     39          6           0       -4.913995   -0.029089    0.017736
     40          6           0        0.062293    1.004994   -0.023718
     41          6           0       -3.795467    0.707748    0.164134
     42          6           0       -1.304179    1.122324    0.174977
     43          6           0       -2.367843    0.325680    0.050740
     44          6           0       -2.016705   -1.184876   -0.395093
     45          1           0       12.790787   -3.031609    0.902249
     46          1           0       13.687043   -1.588910    1.735433
     47          1           0       13.777945    0.217581   -1.888838
     48          1           0       13.751126    0.573388   -0.008754
     49          1           0       14.564145   -1.627956   -0.385810
     50          1           0       10.318700   -2.844881    1.963266
     51          1           0       11.176438   -2.292028    3.093319
     52          1           0        9.889579   -1.233406    2.619787
     53          1           0        9.523136    0.778514    1.118236
     54          1           0       10.139785    0.294536   -2.447732
     55          1           0       11.872872    0.030357   -2.790970
     56          1           0       10.828565   -1.390518   -2.047306
     57          1           0       12.186752    2.387031   -0.099530
     58          1           0       12.302663    2.201927   -1.723562
     59          1           0       10.746178    2.312961   -0.893525
     60          1           0       12.106658   -2.507941   -1.433243
     61          1           0        8.900047   -1.646736   -0.797751
     62          1           0        6.040018   -2.201693    0.262855
     63          1           0        5.415368   -1.273547   -1.190666
     64          1           0        7.028779   -2.459680   -1.391328
     65          1           0        7.368096    1.515103    0.197745
     66          1           0        4.511045   -0.137450    0.217286
     67          1           0      -13.488318   -0.874758   -2.437840
     68          1           0      -12.117656   -2.036536   -1.871937
     69          1           0      -13.714149   -2.634404   -0.761398
     70          1           0      -13.203669   -2.347691    1.513382
     71          1           0      -11.884026   -3.007413    0.468473
     72          1           0      -11.773677    0.986014   -3.252015
     73          1           0      -10.572489    1.389618   -2.160341
     74          1           0      -10.436159   -0.322626   -2.512568
     75          1           0      -13.426612    1.223362   -0.203527
     76          1           0      -12.274238    2.348083   -1.102966
     77          1           0      -13.521592    1.229287   -2.040785
     78          1           0      -12.808689   -0.674643    2.922180
     79          1           0      -11.731178    0.939271    2.550597
     80          1           0      -13.252534    0.821877    1.733909
     81          1           0        5.505917    3.075667    0.109344
     82          1           0      -10.181949   -0.305073    2.312954
     83          1           0      -15.223158   -0.752845   -0.423757
     84          1           0       -8.477946    1.747176    0.843042
     85          1           0        2.793914    4.606852   -0.090993
     86          1           0        2.149108    3.915088    1.590643
     87          1           0        4.005490    4.643748    1.270783
     88          1           0        2.580482    0.751584   -0.158384
     89          1           0       -6.703302   -2.056966   -0.508572
     90          1           0       -8.255494   -1.755616    0.196934
     91          1           0       -8.214762   -1.598733   -1.363788
     92          1           0       -6.183314    1.679445    0.268329
     93          1           0        0.568040    2.920919    0.588019
     94          1           0       -4.908383   -1.145685    0.161568
     95          1           0        0.494635    0.094956   -0.467691
     96          1           0       -3.775785    1.878482    0.447448
     97          1           0       -1.415084    2.156228    0.354634
     98          1           0       -0.818819   -1.249789   -0.085772
     99          1           0       -2.463253   -1.966562    0.375807
    100          1           0       -2.443854   -1.039593   -1.432429
 ---------------------------------------------------------------------

 SCF Done:  E(RCAM-B3LYP) =  -1857.25768110     A.U. after   15 cycles

 Excitation energies and oscillator strengths:

 Excited State   1:      Singlet-A      2.0541 eV  603.60 nm  f=2.7401  <S**2>=0.000
     163 ->166        -0.13293
     164 ->165         0.69591
 This state for optimization and/or second-order correction.
 Total Energy, E(TD-HF/TD-DFT) =  -1857.18219572
 Copying the excited state density for this state as the 1-particle RhoCI density.

 The electronic state is 1-A.
 Alpha  occ. eigenvalues --  -19.21659 -19.21640 -19.20422 -19.20314 -10.32467
 Alpha  occ. eigenvalues --  -10.31522 -10.30970 -10.30445 -10.30058 -10.28656
 Alpha  occ. eigenvalues --  -10.28582 -10.28271 -10.28167 -10.27993 -10.27871
 Alpha  occ. eigenvalues --  -10.27839 -10.27807 -10.27784 -10.27723 -10.27571
 Alpha  occ. eigenvalues --  -10.27492 -10.27035 -10.27033 -10.26940 -10.26829
 Alpha  occ. eigenvalues --  -10.26776 -10.26749 -10.26723 -10.26705 -10.26590
 Alpha  occ. eigenvalues --  -10.26524 -10.26183 -10.26021 -10.25972 -10.25733
 Alpha  occ. eigenvalues --  -10.25723 -10.25683 -10.25575 -10.25184 -10.25140
 Alpha  occ. eigenvalues --  -10.24532 -10.23935 -10.23293 -10.23253  -1.15594
 Alpha  occ. eigenvalues --   -1.10380  -1.09458  -1.08627  -0.93329  -0.92980
 Alpha  occ. eigenvalues --   -0.91876  -0.91512  -0.90937  -0.89819  -0.87957
 Alpha  occ. eigenvalues --   -0.87047  -0.86058  -0.85694  -0.84586  -0.83618
 Alpha  occ. eigenvalues --   -0.82210  -0.80967  -0.80636  -0.78436  -0.77670
 Alpha  occ. eigenvalues --   -0.76658  -0.76515  -0.75911  -0.75717  -0.75652
 Alpha  occ. eigenvalues --   -0.75351  -0.74680  -0.72598  -0.70114  -0.70028
 Alpha  occ. eigenvalues --   -0.68469  -0.66344  -0.65813  -0.64296  -0.64031
 Alpha  occ. eigenvalues --   -0.63613  -0.62647  -0.61094  -0.59901  -0.59270
 Alpha  occ. eigenvalues --   -0.59181  -0.58652  -0.58045  -0.57196  -0.56324
 Alpha  occ. eigenvalues --   -0.55704  -0.55657  -0.54898  -0.54707  -0.54577
 Alpha  occ. eigenvalues --   -0.53604  -0.52793  -0.52397  -0.52032  -0.51628
 Alpha  occ. eigenvalues --   -0.51498  -0.50838  -0.50184  -0.50073  -0.49880
 Alpha  occ. eigenvalues --   -0.49556  -0.49304  -0.49202  -0.48875  -0.48613
 Alpha  occ. eigenvalues --   -0.48116  -0.47966  -0.47559  -0.47161  -0.47001
 Alpha  occ. eigenvalues --   -0.46905  -0.46810  -0.46200  -0.45641  -0.45213
 Alpha  occ. eigenvalues --   -0.44821  -0.44582  -0.44462  -0.44009  -0.43840
 Alpha  occ. eigenvalues --   -0.43532  -0.43420  -0.43376  -0.42879  -0.42734
 Alpha  occ. eigenvalues --   -0.42498  -0.42240  -0.41827  -0.41310  -0.41146
 Alpha  occ. eigenvalues --   -0.40860  -0.40619  -0.40284  -0.39849  -0.39769
 Alpha  occ. eigenvalues --   -0.39385  -0.39106  -0.39016  -0.38725  -0.38571
 Alpha  occ. eigenvalues --   -0.38124  -0.37670  -0.37494  -0.36987  -0.36930
 Alpha  occ. eigenvalues --   -0.35772  -0.35674  -0.34620  -0.34145  -0.33358
 Alpha  occ. eigenvalues --   -0.32367  -0.32030  -0.31661  -0.31311  -0.31005
 Alpha  occ. eigenvalues --   -0.30634  -0.27142  -0.24130  -0.19651
 Alpha virt. eigenvalues --   -0.06394  -0.01345   0.02028   0.06282   0.07962
 Alpha virt. eigenvalues --    0.09100   0.09265   0.09438   0.10597   0.11609
 Alpha virt. eigenvalues --    0.12113   0.12402   0.13054   0.13505   0.13663

 Mulliken charges:
               1
     1  O   -0.510110
     2  O   -0.549024
     3  O   -0.559748
     4  O   -0.567866
     5  C    0.156546
     6  C    0.264413
     7  C    0.022326
     8  C   -0.230480
     9  C   -0.204243
    10  C    0.170671
    11  C   -0.333945
    12  C   -0.083301
    13  C   -0.247858
    14  C   -0.317185
    15  C   -0.104678
    16  C    0.109295
    17  C   -0.373100
    18  C   -0.106541
    19  C   -0.076004
    20  C   -0.009415
    21  C    0.252110
    22  C   -0.183378
    23  C    0.152068
    24  C   -0.173578
    25  C   -0.134934
    26  C   -0.287239
    27  C   -0.275692
    28  C   -0.265336
    29  C   -0.126236
    30  C    0.194343
    31  C    0.046917
    32  C   -0.274352
    33  C   -0.354351
    34  C   -0.100191
    35  C    0.098561
    36  C   -0.377068
    37  C   -0.095195
    38  C   -0.061334
    39  C   -0.094695
    40  C   -0.074214
    41  C   -0.102314
    42  C   -0.112982
    43  C    0.054796
    44  C   -0.348945
    45  H    0.104563
    46  H    0.116045
    47  H    0.092307
    48  H    0.106804
    49  H    0.099505
    50  H    0.108073
    51  H    0.109958
    52  H    0.107791
    53  H    0.105194
    54  H    0.116348
    55  H    0.111984
    56  H    0.013038
    57  H    0.105662
    58  H    0.105130
    59  H    0.105443
    60  H    0.301407
    61  H    0.080256
    62  H    0.125023
    63  H    0.111728
    64  H    0.091558
    65  H    0.092108
    66  H    0.077706
    67  H    0.092316
    68  H    0.085988
    69  H    0.087614
    70  H    0.131571
    71  H    0.071656
    72  H    0.091778
    73  H    0.100417
    74  H    0.113136
    75  H    0.131471
    76  H    0.074624
    77  H    0.089489
    78  H    0.126324
    79  H    0.079203
    80  H    0.090571
    81  H    0.072924
    82  H    0.306103
    83  H    0.303788
    84  H    0.108999
    85  H    0.141073
    86  H    0.117024
    87  H    0.110941
    88  H    0.082362
    89  H    0.084906
    90  H    0.143992
    91  H    0.133302
    92  H    0.078607
    93  H    0.084188
    94  H    0.103846
    95  H    0.084063
    96  H    0.074566
    97  H    0.065212
    98  H    0.094959
    99  H    0.107366
   100  H    0.141470
 Sum of Mulliken charges =  -0.00000

 Dipole moment (field-independent basis, Debye):
    X=             -5.2463    Y=              0.7347    Z=             -1.4635  Tot=              5.4959
 Quadrupole moment (field-independent basis, Debye-Ang):
   XX=           -262.0213   YY=           -261.7745   ZZ=           -278.7692
   XY=             10.1966   XZ=             21.6920   YZ=              1.5611

 Normal termination of Gaussian 16 at Mon Jul 29 21:49:19 2019.
