 Gaussian 16, Revision A.03,
 Gaussian 16:  ES64L-G16RevA.03 25-Dec-2016

 -------------------------------------
 # td=(NStates=1) CAM-B3LYP/6-31G(d,p)
 -------------------------------------

 --
 TD
 --
 Symbolic Z-matrix:
 Charge =  0 Multiplicity = 1

                         Standard orientation:
 ---------------------------------------------------------------------
 Center     Atomic      Atomic             Coordinates (Angstroms)
 Number     Number       Type             X           Y           Z
 ---------------------------------------------------------------------
      1          8           0      -11.782987    0.310736   -1.489291
      2          8           0      -13.104032   -2.444856    1.296009
      3          8           0       10.735089   -0.943094   -2.199332
      4          8           0       14.503995   -0.830560   -0.048177
      5          6           0      -11.007518   -0.122179   -0.243637
      6          6           0      -11.779925   -1.057287   -1.296607
      7          6           0      -11.722053    0.353161    0.998162
      8          6           0      -13.161972   -1.560157   -0.955127
      9          6           0      -13.201359   -0.038631    0.867883
     10          6           0      -13.633017   -1.390795    0.535154
     11          6           0      -11.021144   -1.849043   -2.289143
     12          6           0       -9.591889    0.055653   -0.313039
     13          6           0      -11.058634   -0.087775    2.260137
     14          6           0      -11.732573    1.867058    1.032733
     15          6           0       -8.653695   -0.714990    0.149578
     16          6           0       -7.155726   -0.608150    0.209447
     17          6           0       -6.354706   -1.770502    0.590889
     18          6           0       -6.572058    0.581813   -0.067117
     19          6           0       -5.255016    0.765995   -0.053263
     20          6           0       11.916788    0.064632    1.430998
     21          6           0       11.772907   -0.537726   -1.212127
     22          6           0       12.716979   -1.216120    1.615313
     23          6           0       13.485483   -1.649192    0.353535
     24          6           0       12.531831   -1.825383   -0.841477
     25          6           0       11.087678    0.097487    0.041879
     26          6           0       10.990380    0.278954    2.668731
     27          6           0       12.838029    1.264639    1.388212
     28          6           0       12.633510    0.462669   -2.041483
     29          6           0       -4.711608    2.145226   -0.312560
     30          6           0        9.932325    0.453447    0.041041
     31          6           0       -3.433816    2.508872   -0.362189
     32          6           0        8.608748    0.882235   -0.159113
     33          6           0       -3.083330    3.948840   -0.743795
     34          6           0       -2.372002    1.576155   -0.101602
     35          6           0        7.487919   -0.009359   -0.103796
     36          6           0        7.715325   -1.421125    0.180988
     37          6           0        6.267146    0.588738   -0.251828
     38          6           0       -0.972649    1.710592   -0.256253
     39          6           0        4.912440    0.056256   -0.221297
     40          6           0        0.074479    0.839514   -0.042773
     41          6           0        3.876513    0.799004   -0.365703
     42          6           0        1.399323    1.125647   -0.238416
     43          6           0        2.559492    0.204451   -0.211393
     44          6           0        2.299829   -1.297733    0.121584
     45          1           0      -13.330058   -2.536667   -1.287799
     46          1           0      -13.862843   -0.932913   -1.707338
     47          1           0      -13.603641    0.334386    1.842104
     48          1           0      -13.780483    0.753137    0.332344
     49          1           0      -14.765843   -1.576876    0.549399
     50          1           0      -10.650909   -2.876588   -1.998942
     51          1           0      -11.550875   -1.923437   -3.324609
     52          1           0       -9.994279   -1.498480   -2.527311
     53          1           0       -9.453239    0.974078   -0.784710
     54          1           0      -10.054337    0.216711    2.527667
     55          1           0      -11.870524   -0.083290    3.099354
     56          1           0      -11.024051   -1.191593    2.171493
     57          1           0      -12.022189    2.485348    0.096755
     58          1           0      -12.301723    2.200900    1.850210
     59          1           0      -10.775386    2.051001    1.245785
     60          1           0      -12.202034   -2.424328    1.114509
     61          1           0       -8.890954   -1.655662    0.414943
     62          1           0       -5.621727   -2.104384   -0.297067
     63          1           0       -5.739234   -1.685592    1.475997
     64          1           0       -7.099866   -2.552687    0.621933
     65          1           0       -7.259221    1.316973   -0.187648
     66          1           0       -4.458000   -0.196991    0.294663
     67          1           0       13.398944   -1.087433    2.476070
     68          1           0       12.147274   -2.004705    2.026147
     69          1           0       13.850562   -2.744092    0.408125
     70          1           0       12.997706   -2.153450   -1.896332
     71          1           0       11.775799   -2.480227   -0.527781
     72          1           0       11.564548    0.204303    3.687585
     73          1           0       10.123901    1.067365    2.550727
     74          1           0       10.355155   -0.647360    2.736190
     75          1           0       13.695324    1.228700    0.775818
     76          1           0       12.010638    2.124561    1.093778
     77          1           0       13.155871    1.351648    2.383406
     78          1           0       12.959143   -0.231061   -2.908692
     79          1           0       11.886293    1.225887   -2.385812
     80          1           0       13.446239    1.072021   -1.387823
     81          1           0       -5.438223    2.952085   -0.475586
     82          1           0        9.983253   -0.278916   -2.231668
     83          1           0       15.161384   -0.764932    0.735506
     84          1           0        8.438798    1.892301   -0.645863
     85          1           0       -2.313694    4.409495    0.124845
     86          1           0       -2.591000    3.885331   -1.859446
     87          1           0       -4.007220    4.495964   -0.784559
     88          1           0       -2.426460    0.545985   -0.068879
     89          1           0        6.727685   -2.077313    0.287248
     90          1           0        8.437994   -1.873425   -0.574981
     91          1           0        8.111164   -1.455217    1.196495
     92          1           0        6.247062    1.714874   -0.592475
     93          1           0       -0.586760    2.644509   -0.542913
     94          1           0        4.976716   -0.923627    0.102656
     95          1           0       -0.392851   -0.155373    0.216300
     96          1           0        3.746826    1.826035   -0.571955
     97          1           0        1.486799    2.098169   -0.383359
     98          1           0        1.263195   -1.329285    0.171712
     99          1           0        2.739115   -1.685956   -1.011390
    100          1           0        2.769129   -1.527047    1.066339
 ---------------------------------------------------------------------

 SCF Done:  E(RCAM-B3LYP) =  -1857.28437579     A.U. after   16 cycles

 Excitation energies and oscillator strengths:

 Excited State   1:      Singlet-A      1.7778 eV  697.38 nm  f=2.6928  <S**2>=0.000
     163 ->166         0.10933
     164 ->165         0.71241
     164 <-165        -0.15157
 This state for optimization and/or second-order correction.
 Total Energy, E(TD-HF/TD-DFT) =  -1857.21904101
 Copying the excited state density for this state as the 1-particle RhoCI density.

 The electronic state is 1-A.
 Alpha  occ. eigenvalues --  -19.23494 -19.21539 -19.20962 -19.20418 -10.32382
 Alpha  occ. eigenvalues --  -10.32247 -10.32174 -10.31574 -10.30864 -10.28969
 Alpha  occ. eigenvalues --  -10.28876 -10.28460 -10.28329 -10.28196 -10.27545
 Alpha  occ. eigenvalues --  -10.27398 -10.27315 -10.27260 -10.26987 -10.26954
 Alpha  occ. eigenvalues --  -10.26765 -10.26676 -10.26633 -10.26531 -10.26498
 Alpha  occ. eigenvalues --  -10.26423 -10.26360 -10.26162 -10.25905 -10.25885
 Alpha  occ. eigenvalues --  -10.25875 -10.25873 -10.25841 -10.25792 -10.25785
 Alpha  occ. eigenvalues --  -10.25545 -10.25436 -10.25398 -10.25220 -10.25039
 Alpha  occ. eigenvalues --  -10.24565 -10.24494 -10.24065 -10.23060  -1.13504
 Alpha  occ. eigenvalues --   -1.12112  -1.11310  -1.06650  -0.93349  -0.93194
 Alpha  occ. eigenvalues --   -0.92479  -0.92202  -0.91275  -0.90359  -0.88423
 Alpha  occ. eigenvalues --   -0.87195  -0.86041  -0.85862  -0.85474  -0.83549
 Alpha  occ. eigenvalues --   -0.82044  -0.81363  -0.80328  -0.79137  -0.77122
 Alpha  occ. eigenvalues --   -0.76821  -0.76389  -0.76216  -0.75857  -0.75794
 Alpha  occ. eigenvalues --   -0.75642  -0.75262  -0.72591  -0.70616  -0.69626
 Alpha  occ. eigenvalues --   -0.68819  -0.67595  -0.65820  -0.64321  -0.63528
 Alpha  occ. eigenvalues --   -0.62886  -0.62550  -0.61698  -0.60759  -0.60147
 Alpha  occ. eigenvalues --   -0.59290  -0.58888  -0.58458  -0.57594  -0.57420
 Alpha  occ. eigenvalues --   -0.56249  -0.55508  -0.55337  -0.55220  -0.54678
 Alpha  occ. eigenvalues --   -0.54008  -0.53038  -0.52859  -0.52364  -0.51553
 Alpha  occ. eigenvalues --   -0.51334  -0.51075  -0.50449  -0.50166  -0.49673
 Alpha  occ. eigenvalues --   -0.49610  -0.49488  -0.49144  -0.48970  -0.48894
 Alpha  occ. eigenvalues --   -0.48618  -0.47819  -0.47341  -0.47290  -0.47129
 Alpha  occ. eigenvalues --   -0.46705  -0.46206  -0.46106  -0.45967  -0.45671
 Alpha  occ. eigenvalues --   -0.44951  -0.44865  -0.44555  -0.43912  -0.43870
 Alpha  occ. eigenvalues --   -0.43584  -0.43069  -0.42720  -0.42548  -0.42368
 Alpha  occ. eigenvalues --   -0.41879  -0.41694  -0.41455  -0.41359  -0.40772
 Alpha  occ. eigenvalues --   -0.40574  -0.40431  -0.40346  -0.40164  -0.40022
 Alpha  occ. eigenvalues --   -0.40001  -0.39592  -0.39194  -0.38869  -0.38631
 Alpha  occ. eigenvalues --   -0.38395  -0.38296  -0.38249  -0.38064  -0.37303
 Alpha  occ. eigenvalues --   -0.37197  -0.36561  -0.35026  -0.34370  -0.33180
 Alpha  occ. eigenvalues --   -0.33172  -0.32497  -0.32011  -0.31865  -0.31691
 Alpha  occ. eigenvalues --   -0.30061  -0.27712  -0.24187  -0.18432
 Alpha virt. eigenvalues --   -0.07372  -0.00928   0.03288   0.06401   0.08367
 Alpha virt. eigenvalues --    0.09453   0.10231   0.10813   0.11058   0.11483
 Alpha virt. eigenvalues --    0.11863   0.12334   0.12841   0.13763   0.14100

 Mulliken charges:
               1
     1  O   -0.510381
     2  O   -0.526030
     3  O   -0.592496
     4  O   -0.521563
     5  C    0.130814
     6  C    0.294750
     7  C    0.013815
     8  C   -0.213625
     9  C   -0.182532
    10  C    0.142058
    11  C   -0.357297
    12  C   -0.098719
    13  C   -0.311899
    14  C   -0.296591
    15  C   -0.058661
    16  C    0.057777
    17  C   -0.380957
    18  C   -0.033859
    19  C   -0.092119
    20  C    0.012300
    21  C    0.221413
    22  C   -0.206325
    23  C    0.158715
    24  C   -0.171325
    25  C   -0.159541
    26  C   -0.322319
    27  C   -0.270748
    28  C   -0.254178
    29  C   -0.144649
    30  C    0.192343
    31  C    0.107024
    32  C   -0.259293
    33  C   -0.346436
    34  C   -0.090029
    35  C    0.136931
    36  C   -0.379397
    37  C   -0.131770
    38  C   -0.122530
    39  C   -0.072401
    40  C   -0.063081
    41  C   -0.054555
    42  C   -0.120765
    43  C    0.030626
    44  C   -0.330422
    45  H    0.103296
    46  H    0.093165
    47  H    0.079106
    48  H    0.119374
    49  H    0.097059
    50  H    0.101916
    51  H    0.108138
    52  H    0.120236
    53  H    0.108735
    54  H    0.127890
    55  H    0.108559
    56  H    0.079505
    57  H    0.110290
    58  H    0.105364
    59  H    0.101254
    60  H    0.299499
    61  H    0.057538
    62  H    0.106321
    63  H    0.134972
    64  H    0.104538
    65  H    0.074985
    66  H    0.084151
    67  H    0.083487
    68  H    0.108834
    69  H    0.069052
    70  H    0.104103
    71  H    0.115337
    72  H    0.094630
    73  H    0.116139
    74  H    0.097131
    75  H    0.118376
    76  H    0.080536
    77  H    0.094747
    78  H    0.110584
    79  H    0.085857
    80  H    0.101389
    81  H    0.084112
    82  H    0.308584
    83  H    0.311945
    84  H    0.113580
    85  H    0.105345
    86  H    0.113619
    87  H    0.113678
    88  H    0.068977
    89  H    0.093535
    90  H    0.138043
    91  H    0.129980
    92  H    0.059795
    93  H    0.058102
    94  H    0.081971
    95  H    0.064774
    96  H    0.092345
    97  H    0.069792
    98  H    0.123589
    99  H    0.106288
   100  H    0.133787
 Sum of Mulliken charges =  -0.00000

 Dipole moment (field-independent basis, Debye):
    X=              4.5931    Y=             -0.2734    Z=              2.7008  Tot=              5.3353
 Quadrupole moment (field-independent basis, Debye-Ang):
   XX=           -274.6696   YY=           -265.3150   ZZ=           -276.8983
   XY=            -12.0834   XZ=             37.2872   YZ=             -3.3852

 Normal termination of Gaussian 16 at Wed Jul 31 00:53:16 2019.
