 Gaussian 16, Revision A.03,
 Gaussian 16:  ES64L-G16RevA.03 25-Dec-2016

 -------------------------------------
 # td=(NStates=1) CAM-B3LYP/6-31G(d,p)
 -------------------------------------

 --
 TD
 --
 Symbolic Z-matrix:
 Charge =  0 Multiplicity = 1

                         Standard orientation:
 ---------------------------------------------------------------------
 Center     Atomic      Atomic             Coordinates (Angstroms)
 Number     Number       Type             X           Y           Z
 ---------------------------------------------------------------------
      1          8           0      -11.583014    0.290164   -1.587627
      2          8           0      -13.118887   -2.440951    1.145695
      3          8           0       10.652502   -1.117481   -2.039357
      4          8           0       14.613591   -1.090954   -0.068737
      5          6           0      -11.037765   -0.218047   -0.337317
      6          6           0      -11.684919   -1.161413   -1.316173
      7          6           0      -11.751947    0.281913    0.876840
      8          6           0      -13.087711   -1.676484   -1.093595
      9          6           0      -13.313224   -0.037909    0.805135
     10          6           0      -13.696532   -1.448343    0.255965
     11          6           0      -10.716532   -1.952511   -2.097590
     12          6           0       -9.557252    0.050847   -0.295323
     13          6           0      -11.229928   -0.369914    2.190494
     14          6           0      -11.806788    1.853617    1.098331
     15          6           0       -8.655137   -0.837008    0.191837
     16          6           0       -7.199463   -0.526049    0.222658
     17          6           0       -6.405478   -1.738593    0.770270
     18          6           0       -6.616845    0.745791    0.106819
     19          6           0       -5.306039    0.958729    0.015902
     20          6           0       11.833861    0.119155    1.415032
     21          6           0       11.766159   -0.706966   -1.207523
     22          6           0       12.717846   -1.225720    1.552596
     23          6           0       13.396770   -1.777498    0.299521
     24          6           0       12.525576   -1.860557   -0.865745
     25          6           0       11.105508   -0.037145    0.139396
     26          6           0       10.987118    0.331734    2.639283
     27          6           0       12.894404    1.284630    1.195869
     28          6           0       12.578636    0.339969   -2.040894
     29          6           0       -4.695551    2.153325   -0.233534
     30          6           0        9.913558    0.406903   -0.112752
     31          6           0       -3.406912    2.587610   -0.417691
     32          6           0        8.665955    0.881104   -0.263679
     33          6           0       -3.072351    4.127267   -0.706005
     34          6           0       -2.301689    1.670934   -0.222491
     35          6           0        7.403353    0.119293   -0.173348
     36          6           0        7.576799   -1.335286    0.210851
     37          6           0        6.308500    0.734717   -0.239316
     38          6           0       -0.971099    1.868948   -0.264761
     39          6           0        5.042916    0.217026   -0.080916
     40          6           0        0.000202    0.922652   -0.091309
     41          6           0        3.825469    0.826369   -0.207658
     42          6           0        1.375581    1.270350   -0.195197
     43          6           0        2.419776    0.356853   -0.103511
     44          6           0        2.326763   -1.154434    0.338257
     45          1           0      -13.127464   -2.668413   -1.466354
     46          1           0      -13.630059   -1.044721   -1.812342
     47          1           0      -13.827208   -0.124711    1.723082
     48          1           0      -13.988853    0.609852    0.210112
     49          1           0      -14.777821   -1.328043    0.361546
     50          1           0      -10.514582   -2.880372   -1.456002
     51          1           0      -11.041371   -2.413577   -3.129639
     52          1           0       -9.704712   -1.522377   -2.107147
     53          1           0       -9.419208    0.856584   -0.899322
     54          1           0      -10.298618   -0.057452    2.632405
     55          1           0      -11.888819   -0.175395    2.908533
     56          1           0      -11.060189   -1.523486    2.092613
     57          1           0      -11.896313    2.320794    0.125003
     58          1           0      -12.575826    2.082432    1.811784
     59          1           0      -10.813329    2.151739    1.330008
     60          1           0      -12.215823   -2.559338    1.146247
     61          1           0       -8.847065   -1.751506    0.664170
     62          1           0       -5.987490   -2.195092   -0.000419
     63          1           0       -5.507373   -1.286733    1.571787
     64          1           0       -6.953817   -2.561436    1.408369
     65          1           0       -7.175029    1.535189   -0.168465
     66          1           0       -4.599438    0.054740   -0.024105
     67          1           0       13.250406   -1.077940    2.367224
     68          1           0       11.913565   -1.932795    1.664842
     69          1           0       13.788757   -2.828924    0.547214
     70          1           0       13.123592   -2.396716   -1.645215
     71          1           0       11.870324   -2.721583   -0.450430
     72          1           0       11.477986    0.699547    3.666811
     73          1           0       10.415047    1.222059    2.494794
     74          1           0       10.352463   -0.566868    2.773638
     75          1           0       13.619281    0.891489    0.419161
     76          1           0       12.300107    2.131090    0.840609
     77          1           0       13.521626    1.616364    2.289934
     78          1           0       12.806843   -0.080715   -3.088100
     79          1           0       11.937112    1.303455   -2.107813
     80          1           0       13.502936    0.361159   -1.463836
     81          1           0       -5.286706    2.986494   -0.293649
     82          1           0       10.400912   -0.162100   -2.351981
     83          1           0       15.240030   -1.130572    0.639519
     84          1           0        8.474663    1.919280   -0.804547
     85          1           0       -2.288851    4.642434   -0.084869
     86          1           0       -2.707269    4.314772   -1.713159
     87          1           0       -4.111991    4.553624   -0.968178
     88          1           0       -2.646167    0.619486    0.111076
     89          1           0        6.609312   -1.641801   -0.098845
     90          1           0        8.243023   -1.926712   -0.343459
     91          1           0        7.834248   -1.468810    1.125345
     92          1           0        6.258223    1.860129   -0.208115
     93          1           0       -0.575660    2.968396   -0.745675
     94          1           0        4.930768   -0.812035    0.268167
     95          1           0       -0.392022   -0.195730    0.085857
     96          1           0        3.787664    2.074859   -0.407800
     97          1           0        1.709671    2.353232   -0.429837
     98          1           0        1.315354   -1.410654    0.705626
     99          1           0        2.548064   -1.628800   -0.786364
    100          1           0        3.204020   -1.455170    0.918040
 ---------------------------------------------------------------------

 SCF Done:  E(RCAM-B3LYP) =  -1857.28581483     A.U. after   15 cycles

 Excitation energies and oscillator strengths:

 Excited State   1:      Singlet-A      2.0890 eV  593.50 nm  f=2.8334  <S**2>=0.000
     163 ->166         0.11564
     164 ->165         0.70352
     164 <-165        -0.11557
 This state for optimization and/or second-order correction.
 Total Energy, E(TD-HF/TD-DFT) =  -1857.20904443
 Copying the excited state density for this state as the 1-particle RhoCI density.

 The electronic state is 1-A.
 Alpha  occ. eigenvalues --  -19.21660 -19.21301 -19.21292 -19.19312 -10.32363
 Alpha  occ. eigenvalues --  -10.32339 -10.31888 -10.31159 -10.30871 -10.28713
 Alpha  occ. eigenvalues --  -10.28380 -10.28138 -10.28085 -10.28042 -10.28021
 Alpha  occ. eigenvalues --  -10.27876 -10.27845 -10.27580 -10.27472 -10.27319
 Alpha  occ. eigenvalues --  -10.27182 -10.27162 -10.27052 -10.26944 -10.26865
 Alpha  occ. eigenvalues --  -10.26620 -10.26611 -10.26381 -10.26347 -10.26054
 Alpha  occ. eigenvalues --  -10.25979 -10.25971 -10.25945 -10.25781 -10.25675
 Alpha  occ. eigenvalues --  -10.25371 -10.25074 -10.25029 -10.24790 -10.24726
 Alpha  occ. eigenvalues --  -10.24433 -10.24361 -10.24023 -10.22575  -1.12996
 Alpha  occ. eigenvalues --   -1.10267  -1.08584  -1.08514  -0.93570  -0.92796
 Alpha  occ. eigenvalues --   -0.92385  -0.90924  -0.90165  -0.89288  -0.88182
 Alpha  occ. eigenvalues --   -0.87562  -0.86979  -0.85592  -0.84762  -0.83147
 Alpha  occ. eigenvalues --   -0.82339  -0.80961  -0.80587  -0.78658  -0.77510
 Alpha  occ. eigenvalues --   -0.77111  -0.76930  -0.76664  -0.76503  -0.75882
 Alpha  occ. eigenvalues --   -0.74984  -0.74639  -0.73399  -0.70835  -0.70371
 Alpha  occ. eigenvalues --   -0.68986  -0.67088  -0.66211  -0.64606  -0.64473
 Alpha  occ. eigenvalues --   -0.63080  -0.61796  -0.60741  -0.60135  -0.59480
 Alpha  occ. eigenvalues --   -0.59258  -0.59045  -0.57694  -0.56748  -0.56551
 Alpha  occ. eigenvalues --   -0.55678  -0.55436  -0.54901  -0.54594  -0.53965
 Alpha  occ. eigenvalues --   -0.53708  -0.52781  -0.52413  -0.51977  -0.51662
 Alpha  occ. eigenvalues --   -0.51322  -0.51016  -0.50289  -0.50041  -0.49784
 Alpha  occ. eigenvalues --   -0.49460  -0.49344  -0.48978  -0.48796  -0.48684
 Alpha  occ. eigenvalues --   -0.48324  -0.48079  -0.47943  -0.47500  -0.47050
 Alpha  occ. eigenvalues --   -0.46910  -0.46599  -0.46389  -0.46350  -0.45779
 Alpha  occ. eigenvalues --   -0.45498  -0.45039  -0.44408  -0.44029  -0.43813
 Alpha  occ. eigenvalues --   -0.43435  -0.43344  -0.43092  -0.42945  -0.42653
 Alpha  occ. eigenvalues --   -0.42472  -0.42206  -0.41720  -0.41665  -0.41066
 Alpha  occ. eigenvalues --   -0.40834  -0.40664  -0.40307  -0.39893  -0.39596
 Alpha  occ. eigenvalues --   -0.39512  -0.39233  -0.39155  -0.38857  -0.38705
 Alpha  occ. eigenvalues --   -0.38488  -0.38036  -0.37384  -0.36929  -0.36422
 Alpha  occ. eigenvalues --   -0.36153  -0.35978  -0.35027  -0.34290  -0.33687
 Alpha  occ. eigenvalues --   -0.32756  -0.32319  -0.31993  -0.31682  -0.30154
 Alpha  occ. eigenvalues --   -0.29763  -0.28357  -0.24872  -0.19350
 Alpha virt. eigenvalues --   -0.06446  -0.00285   0.03262   0.05937   0.07234
 Alpha virt. eigenvalues --    0.09694   0.10085   0.10221   0.10689   0.12193
 Alpha virt. eigenvalues --    0.12564   0.12621   0.13023   0.13981   0.14074

 Mulliken charges:
               1
     1  O   -0.527042
     2  O   -0.565132
     3  O   -0.553550
     4  O   -0.553895
     5  C    0.156412
     6  C    0.261300
     7  C    0.025195
     8  C   -0.194680
     9  C   -0.203718
    10  C    0.143490
    11  C   -0.341476
    12  C   -0.090930
    13  C   -0.289465
    14  C   -0.315437
    15  C   -0.068919
    16  C    0.040998
    17  C   -0.366510
    18  C   -0.080310
    19  C   -0.045508
    20  C    0.007629
    21  C    0.239400
    22  C   -0.168666
    23  C    0.133300
    24  C   -0.188520
    25  C   -0.099681
    26  C   -0.307831
    27  C   -0.291143
    28  C   -0.319374
    29  C   -0.114488
    30  C    0.193963
    31  C    0.077280
    32  C   -0.316955
    33  C   -0.380619
    34  C   -0.125763
    35  C    0.106419
    36  C   -0.357483
    37  C   -0.067891
    38  C   -0.056275
    39  C   -0.109792
    40  C   -0.088244
    41  C   -0.122591
    42  C   -0.133721
    43  C    0.103228
    44  C   -0.352631
    45  H    0.110138
    46  H    0.121372
    47  H    0.109643
    48  H    0.095015
    49  H    0.105850
    50  H    0.088959
    51  H    0.104991
    52  H    0.133638
    53  H    0.120902
    54  H    0.107867
    55  H    0.119652
    56  H    0.053812
    57  H    0.124070
    58  H    0.114508
    59  H    0.100907
    60  H    0.299079
    61  H    0.087008
    62  H    0.144010
    63  H    0.086175
    64  H    0.101492
    65  H    0.079733
    66  H    0.077965
    67  H    0.091160
    68  H    0.096794
    69  H    0.078179
    70  H    0.121620
    71  H    0.110632
    72  H    0.087992
    73  H    0.121289
    74  H    0.104092
    75  H    0.126670
    76  H    0.105352
    77  H    0.052887
    78  H    0.114098
    79  H    0.089970
    80  H    0.145411
    81  H    0.061251
    82  H    0.307801
    83  H    0.305078
    84  H    0.089056
    85  H    0.133985
    86  H    0.127021
    87  H    0.101824
    88  H    0.070159
    89  H    0.105037
    90  H    0.135580
    91  H    0.130943
    92  H    0.085104
    93  H    0.065396
    94  H    0.077823
    95  H    0.090935
    96  H    0.042462
    97  H    0.092606
    98  H    0.116812
    99  H    0.105134
   100  H    0.132687
 Sum of Mulliken charges =  -0.00000

 Dipole moment (field-independent basis, Debye):
    X=              3.3961    Y=             -0.6358    Z=              1.8477  Tot=              3.9181
 Quadrupole moment (field-independent basis, Debye-Ang):
   XX=           -255.8900   YY=           -261.3990   ZZ=           -275.5075
   XY=             -6.0492   XZ=             25.0983   YZ=             -4.0252

 Normal termination of Gaussian 16 at Thu Aug  1 18:13:21 2019.
