 Gaussian 16, Revision A.03,
 Gaussian 16:  ES64L-G16RevA.03 25-Dec-2016

 -------------------------------------
 # td=(NStates=1) CAM-B3LYP/6-31G(d,p)
 -------------------------------------

 --
 TD
 --
 Symbolic Z-matrix:
 Charge =  0 Multiplicity = 1

                         Standard orientation:
 ---------------------------------------------------------------------
 Center     Atomic      Atomic             Coordinates (Angstroms)
 Number     Number       Type             X           Y           Z
 ---------------------------------------------------------------------
      1          8           0      -11.617471   -0.051197   -1.823818
      2          8           0      -13.189243   -2.157520    1.559947
      3          8           0       10.554306   -1.386451   -1.990621
      4          8           0       14.443732   -0.977746    0.088848
      5          6           0      -10.983544   -0.141400   -0.432051
      6          6           0      -11.617922   -1.292354   -1.072994
      7          6           0      -11.892300    0.645923    0.782866
      8          6           0      -13.075014   -1.744814   -0.775567
      9          6           0      -13.281666    0.215741    0.788249
     10          6           0      -13.627544   -1.266459    0.532847
     11          6           0      -10.875587   -2.372676   -1.784215
     12          6           0       -9.574980    0.000777   -0.472287
     13          6           0      -11.206807    0.233847    2.044585
     14          6           0      -11.728056    2.090980    0.505855
     15          6           0       -8.654887   -0.704177    0.167345
     16          6           0       -7.214271   -0.616406    0.291586
     17          6           0       -6.464192   -1.842580    0.750366
     18          6           0       -6.604760    0.567804   -0.100884
     19          6           0       -5.189777    0.853546   -0.187100
     20          6           0       11.930139    0.203736    1.351111
     21          6           0       11.662732   -0.813562   -1.299213
     22          6           0       12.664238   -1.073828    1.633649
     23          6           0       13.399443   -1.665871    0.410923
     24          6           0       12.482601   -1.940093   -0.789305
     25          6           0       11.105902    0.057457   -0.034889
     26          6           0       10.861983    0.596401    2.408397
     27          6           0       12.887708    1.362155    1.093658
     28          6           0       12.483110    0.159863   -2.156617
     29          6           0       -4.694056    2.117626   -0.448835
     30          6           0        9.918717    0.481001   -0.072741
     31          6           0       -3.315328    2.339011   -0.483976
     32          6           0        8.625645    0.881435   -0.335318
     33          6           0       -2.886356    3.782616   -0.951510
     34          6           0       -2.286676    1.479727   -0.236562
     35          6           0        7.447140    0.165390    0.035156
     36          6           0        7.725489   -1.311058    0.339145
     37          6           0        6.280203    0.712834   -0.261117
     38          6           0       -0.882393    1.743468   -0.300105
     39          6           0        5.004628    0.238004   -0.144817
     40          6           0        0.031023    0.801264    0.105773
     41          6           0        3.855501    0.868841   -0.153612
     42          6           0        1.354814    1.067488   -0.141857
     43          6           0        2.636865    0.346656    0.112646
     44          6           0        2.419700   -1.070626    0.539434
     45          1           0      -13.137715   -2.893376   -0.745084
     46          1           0      -13.707991   -1.318323   -1.665677
     47          1           0      -13.649519    0.454654    1.819205
     48          1           0      -14.030051    0.678405    0.172588
     49          1           0      -14.751074   -1.295058    0.654147
     50          1           0      -10.699334   -3.344883   -1.233402
     51          1           0      -11.497589   -2.874985   -2.680205
     52          1           0       -9.831471   -2.166754   -2.099707
     53          1           0       -9.119597    0.633390   -1.298763
     54          1           0      -10.118729    0.687700    2.183875
     55          1           0      -11.913321    0.982141    2.650903
     56          1           0      -11.337930   -0.919231    2.493653
     57          1           0      -12.006632    2.365526   -0.482279
     58          1           0      -12.373674    2.612588    1.217928
     59          1           0      -10.821440    2.425069    0.630411
     60          1           0      -12.338849   -2.394822    1.637293
     61          1           0       -8.924996   -1.547887    0.881366
     62          1           0       -6.149051   -2.427670   -0.094944
     63          1           0       -5.712804   -1.760745    1.541510
     64          1           0       -7.106785   -2.742110    1.340617
     65          1           0       -7.311186    1.488968   -0.240237
     66          1           0       -4.637506   -0.041581    0.082839
     67          1           0       13.328060   -0.894339    2.286606
     68          1           0       12.128610   -1.771498    2.336025
     69          1           0       13.644090   -2.634374    0.795478
     70          1           0       12.961069   -2.163046   -1.704034
     71          1           0       11.945346   -2.757302   -0.660885
     72          1           0       11.390768    0.760918    3.312613
     73          1           0       10.610962    1.709359    2.194281
     74          1           0        9.991807   -0.078019    2.507756
     75          1           0       13.592051    1.052987    0.380490
     76          1           0       12.419925    2.272505    1.020960
     77          1           0       13.395703    1.454615    2.100934
     78          1           0       12.915651   -0.354979   -3.059597
     79          1           0       11.825402    1.070868   -2.387712
     80          1           0       13.264687    0.453222   -1.569682
     81          1           0       -5.421510    2.846685   -0.576089
     82          1           0       10.054071   -0.566480   -2.554392
     83          1           0       15.068247   -0.798405    0.640975
     84          1           0        8.585444    2.102833   -0.581778
     85          1           0       -2.331127    4.285397   -0.118733
     86          1           0       -2.125205    3.902468   -1.805734
     87          1           0       -3.794093    4.326258   -1.303511
     88          1           0       -2.529184    0.503993    0.207449
     89          1           0        6.662383   -1.475674    0.364380
     90          1           0        8.136711   -1.730400   -0.704335
     91          1           0        8.599911   -1.613510    1.225005
     92          1           0        6.328967    1.699670   -0.838487
     93          1           0       -0.614777    2.656109   -0.563639
     94          1           0        5.105950   -0.711018    0.321330
     95          1           0       -0.252047   -0.152780    0.492808
     96          1           0        3.887699    1.875874   -0.559545
     97          1           0        1.442266    2.024487   -0.423841
     98          1           0        1.472490   -1.309479    0.739661
     99          1           0        2.903104   -1.804592   -0.116586
    100          1           0        2.724433   -1.146181    1.612829
 ---------------------------------------------------------------------

 SCF Done:  E(RCAM-B3LYP) =  -1857.25506707     A.U. after   15 cycles

 Excitation energies and oscillator strengths:

 Excited State   1:      Singlet-A      2.0615 eV  601.43 nm  f=3.3200  <S**2>=0.000
     163 ->166         0.13560
     164 ->165         0.69547
 This state for optimization and/or second-order correction.
 Total Energy, E(TD-HF/TD-DFT) =  -1857.17930873
 Copying the excited state density for this state as the 1-particle RhoCI density.

 The electronic state is 1-A.
 Alpha  occ. eigenvalues --  -19.22406 -19.22286 -19.20800 -19.19573 -10.32126
 Alpha  occ. eigenvalues --  -10.31622 -10.31569 -10.31426 -10.31070 -10.28072
 Alpha  occ. eigenvalues --  -10.27995 -10.27953 -10.27628 -10.27504 -10.27343
 Alpha  occ. eigenvalues --  -10.27180 -10.27107 -10.27082 -10.27047 -10.26753
 Alpha  occ. eigenvalues --  -10.26610 -10.26595 -10.26402 -10.26261 -10.26222
 Alpha  occ. eigenvalues --  -10.26090 -10.26025 -10.25916 -10.25613 -10.25602
 Alpha  occ. eigenvalues --  -10.25481 -10.25182 -10.25100 -10.24976 -10.24863
 Alpha  occ. eigenvalues --  -10.24842 -10.24646 -10.24635 -10.24497 -10.24147
 Alpha  occ. eigenvalues --  -10.24121 -10.23773 -10.23406 -10.22866  -1.17620
 Alpha  occ. eigenvalues --   -1.11433  -1.09893  -1.07688  -0.93039  -0.92609
 Alpha  occ. eigenvalues --   -0.92490  -0.92024  -0.91066  -0.90133  -0.88290
 Alpha  occ. eigenvalues --   -0.87408  -0.86184  -0.85551  -0.85002  -0.83517
 Alpha  occ. eigenvalues --   -0.82229  -0.81064  -0.80782  -0.78149  -0.78035
 Alpha  occ. eigenvalues --   -0.77170  -0.76878  -0.76368  -0.76104  -0.75303
 Alpha  occ. eigenvalues --   -0.75248  -0.74415  -0.73815  -0.72428  -0.70483
 Alpha  occ. eigenvalues --   -0.69544  -0.67668  -0.65868  -0.64987  -0.64513
 Alpha  occ. eigenvalues --   -0.64084  -0.63298  -0.62247  -0.60786  -0.60683
 Alpha  occ. eigenvalues --   -0.60288  -0.58723  -0.57755  -0.57374  -0.56480
 Alpha  occ. eigenvalues --   -0.55427  -0.55170  -0.54830  -0.54585  -0.53932
 Alpha  occ. eigenvalues --   -0.53608  -0.53005  -0.52703  -0.52460  -0.51845
 Alpha  occ. eigenvalues --   -0.51321  -0.51078  -0.50746  -0.50440  -0.50280
 Alpha  occ. eigenvalues --   -0.49920  -0.49606  -0.49517  -0.49276  -0.49047
 Alpha  occ. eigenvalues --   -0.48432  -0.48095  -0.47297  -0.47026  -0.46973
 Alpha  occ. eigenvalues --   -0.46763  -0.46234  -0.45757  -0.44907  -0.44748
 Alpha  occ. eigenvalues --   -0.44685  -0.44403  -0.44287  -0.43993  -0.43479
 Alpha  occ. eigenvalues --   -0.43312  -0.42944  -0.42921  -0.42744  -0.42651
 Alpha  occ. eigenvalues --   -0.41684  -0.41543  -0.41340  -0.41243  -0.41155
 Alpha  occ. eigenvalues --   -0.40808  -0.40529  -0.40044  -0.39979  -0.39918
 Alpha  occ. eigenvalues --   -0.39792  -0.39286  -0.38840  -0.38694  -0.38398
 Alpha  occ. eigenvalues --   -0.38187  -0.38162  -0.38083  -0.37560  -0.37254
 Alpha  occ. eigenvalues --   -0.36474  -0.36162  -0.34660  -0.34496  -0.33931
 Alpha  occ. eigenvalues --   -0.32876  -0.32183  -0.31705  -0.30777  -0.30033
 Alpha  occ. eigenvalues --   -0.29836  -0.27308  -0.24172  -0.18970
 Alpha virt. eigenvalues --   -0.06172  -0.00898   0.03718   0.07003   0.08633
 Alpha virt. eigenvalues --    0.09811   0.10572   0.10692   0.11479   0.11855
 Alpha virt. eigenvalues --    0.12449   0.12982   0.13134   0.13775   0.14138

 Mulliken charges:
               1
     1  O   -0.525138
     2  O   -0.551983
     3  O   -0.575132
     4  O   -0.468738
     5  C    0.192369
     6  C    0.267408
     7  C    0.026091
     8  C   -0.207211
     9  C   -0.191973
    10  C    0.163689
    11  C   -0.341705
    12  C   -0.139290
    13  C   -0.282350
    14  C   -0.301182
    15  C   -0.052476
    16  C    0.079502
    17  C   -0.389397
    18  C   -0.131793
    19  C   -0.059520
    20  C    0.011245
    21  C    0.258457
    22  C   -0.194360
    23  C    0.157973
    24  C   -0.172127
    25  C   -0.144832
    26  C   -0.312278
    27  C   -0.302886
    28  C   -0.308458
    29  C   -0.113431
    30  C    0.185689
    31  C    0.096065
    32  C   -0.271113
    33  C   -0.384909
    34  C   -0.120646
    35  C    0.089865
    36  C   -0.334531
    37  C   -0.087138
    38  C   -0.063469
    39  C   -0.094369
    40  C   -0.057673
    41  C   -0.098464
    42  C   -0.127751
    43  C    0.092489
    44  C   -0.363090
    45  H    0.101692
    46  H    0.113559
    47  H    0.098641
    48  H    0.109034
    49  H    0.098094
    50  H    0.091756
    51  H    0.101182
    52  H    0.118781
    53  H    0.112914
    54  H    0.109631
    55  H    0.080335
    56  H    0.084512
    57  H    0.132469
    58  H    0.092157
    59  H    0.112442
    60  H    0.287903
    61  H    0.060221
    62  H    0.143764
    63  H    0.131674
    64  H    0.080394
    65  H    0.080097
    66  H    0.090080
    67  H    0.087596
    68  H    0.088925
    69  H    0.068096
    70  H    0.108077
    71  H    0.120364
    72  H    0.092601
    73  H    0.098790
    74  H    0.117882
    75  H    0.125606
    76  H    0.114232
    77  H    0.071178
    78  H    0.102034
    79  H    0.089458
    80  H    0.135123
    81  H    0.093680
    82  H    0.311736
    83  H    0.286821
    84  H    0.075329
    85  H    0.120423
    86  H    0.111783
    87  H    0.102639
    88  H    0.069817
    89  H    0.099767
    90  H    0.138052
    91  H    0.102064
    92  H    0.066567
    93  H    0.077664
    94  H    0.078595
    95  H    0.083038
    96  H    0.077329
    97  H    0.062765
    98  H    0.109160
    99  H    0.121253
   100  H    0.108795
 Sum of Mulliken charges =  -0.00000

 Dipole moment (field-independent basis, Debye):
    X=              5.9169    Y=             -0.0807    Z=              2.3736  Tot=              6.3757
 Quadrupole moment (field-independent basis, Debye-Ang):
   XX=           -233.5213   YY=           -260.3608   ZZ=           -275.7962
   XY=             -1.4415   XZ=             13.5045   YZ=             -5.0445

 Normal termination of Gaussian 16 at Thu Aug  1 23:27:47 2019.
