 Gaussian 16, Revision A.03,
 Gaussian 16:  ES64L-G16RevA.03 25-Dec-2016

 -------------------------------------
 # td=(NStates=1) CAM-B3LYP/6-31G(d,p)
 -------------------------------------

 --
 TD
 --
 Symbolic Z-matrix:
 Charge =  0 Multiplicity = 1

                         Standard orientation:
 ---------------------------------------------------------------------
 Center     Atomic      Atomic             Coordinates (Angstroms)
 Number     Number       Type             X           Y           Z
 ---------------------------------------------------------------------
      1          8           0      -11.721022    0.020006   -1.577873
      2          8           0      -13.215205   -2.220933    1.667689
      3          8           0       10.447419   -1.064484   -2.021354
      4          8           0       14.501327   -1.080685   -0.301611
      5          6           0      -11.025442   -0.186830   -0.286429
      6          6           0      -11.698571   -1.280053   -1.045351
      7          6           0      -11.879760    0.467627    0.806376
      8          6           0      -13.052313   -2.019453   -0.769427
      9          6           0      -13.302828    0.043888    0.704844
     10          6           0      -13.579331   -1.435933    0.579003
     11          6           0      -10.719111   -2.234964   -1.863955
     12          6           0       -9.576944    0.072771   -0.429599
     13          6           0      -11.242182    0.216775    2.222156
     14          6           0      -11.756625    2.013297    0.587264
     15          6           0       -8.589777   -0.841536    0.064553
     16          6           0       -7.180942   -0.633631    0.035263
     17          6           0       -6.293538   -1.762835    0.434150
     18          6           0       -6.605523    0.595504   -0.228833
     19          6           0       -5.257236    0.908826   -0.165667
     20          6           0       12.060021    0.120423    1.332936
     21          6           0       11.653378   -0.660575   -1.306816
     22          6           0       12.675473   -1.314680    1.441253
     23          6           0       13.326585   -1.878697    0.113899
     24          6           0       12.350685   -1.929320   -1.018649
     25          6           0       11.153530    0.046552    0.062332
     26          6           0       11.148573    0.353890    2.542068
     27          6           0       13.083713    1.361275    1.245827
     28          6           0       12.394048    0.354531   -2.109961
     29          6           0       -4.746034    2.167127   -0.502232
     30          6           0        9.935155    0.520089    0.147917
     31          6           0       -3.398038    2.601539   -0.510221
     32          6           0        8.753994    1.046342    0.009356
     33          6           0       -3.019926    4.005722   -0.763213
     34          6           0       -2.321138    1.557129   -0.266139
     35          6           0        7.496969    0.189054    0.212511
     36          6           0        7.715593   -1.211871    0.459653
     37          6           0        6.254568    0.772584    0.137136
     38          6           0       -1.010757    1.780587   -0.518348
     39          6           0        5.004251    0.085245    0.222118
     40          6           0       -0.007030    0.866855   -0.233528
     41          6           0        3.811505    0.721807   -0.046928
     42          6           0        1.381490    1.184883   -0.211700
     43          6           0        2.464332    0.305429    0.088824
     44          6           0        2.237027   -1.086453    0.442014
     45          1           0      -12.921925   -3.124519   -0.770438
     46          1           0      -13.771248   -1.810654   -1.619620
     47          1           0      -13.838877    0.408500    1.586006
     48          1           0      -13.959280    0.828407   -0.016674
     49          1           0      -14.608027   -1.361489    0.551585
     50          1           0      -10.482779   -3.182245   -1.308577
     51          1           0      -11.235998   -2.577573   -2.837937
     52          1           0       -9.838927   -1.770451   -2.001935
     53          1           0       -9.108639    0.936374   -0.899436
     54          1           0      -10.182718    0.382397    2.310079
     55          1           0      -11.611617    0.834756    2.932134
     56          1           0      -11.460892   -0.797875    2.632032
     57          1           0      -12.110319    2.202340   -0.465038
     58          1           0      -12.269679    2.737238    1.257197
     59          1           0      -10.821587    2.394965    0.438159
     60          1           0      -12.195368   -2.140325    1.860211
     61          1           0       -9.015536   -1.538974    0.492520
     62          1           0       -5.689264   -2.159887   -0.517547
     63          1           0       -5.499499   -1.268218    1.027681
     64          1           0       -6.929366   -2.535256    0.808695
     65          1           0       -7.302253    1.385967   -0.464364
     66          1           0       -4.561276    0.015949   -0.208131
     67          1           0       13.490643   -1.322597    2.252423
     68          1           0       11.918997   -2.078297    1.743634
     69          1           0       13.648402   -2.847248    0.428467
     70          1           0       12.810278   -2.441413   -2.054565
     71          1           0       11.492708   -2.635370   -0.657117
     72          1           0       11.665296    0.234604    3.376640
     73          1           0       10.542604    1.242031    2.520785
     74          1           0       10.490269   -0.599216    2.594352
     75          1           0       13.819603    1.169190    0.319090
     76          1           0       12.573195    2.312896    1.004534
     77          1           0       13.549555    1.375436    2.148138
     78          1           0       12.879656   -0.220850   -3.047903
     79          1           0       11.776332    1.091015   -2.471834
     80          1           0       13.204463    0.701413   -1.584523
     81          1           0       -5.532229    2.997932   -0.788952
     82          1           0       10.151489   -0.239314   -2.622924
     83          1           0       14.978716   -0.648294    0.663864
     84          1           0        8.344870    2.003531   -0.002159
     85          1           0       -2.005870    4.207135   -0.167195
     86          1           0       -2.563265    4.210198   -1.669616
     87          1           0       -3.788600    4.731293   -0.635261
     88          1           0       -2.723507    0.560822   -0.232329
     89          1           0        7.001174   -2.074774    0.302940
     90          1           0        8.665731   -1.617013    0.036921
     91          1           0        8.145220   -1.448682    1.323932
     92          1           0        6.146994    1.774995   -0.053005
     93          1           0       -0.823290    2.964402   -0.693661
     94          1           0        4.947902   -0.991327    0.492028
     95          1           0       -0.163809   -0.191581   -0.222697
     96          1           0        4.100833    1.778420   -0.387115
     97          1           0        1.649168    2.240107   -0.120467
     98          1           0        1.216706   -1.427191    0.735400
     99          1           0        2.672652   -1.723149   -0.381698
    100          1           0        3.204952   -1.477280    1.241743
 ---------------------------------------------------------------------

 SCF Done:  E(RCAM-B3LYP) =  -1857.30182857     A.U. after   16 cycles

 Excitation energies and oscillator strengths:

 Excited State   1:      Singlet-A      1.7544 eV  706.72 nm  f=2.6267  <S**2>=0.000
     163 ->166         0.11165
     164 ->165         0.70904
     164 <-165        -0.14225
 This state for optimization and/or second-order correction.
 Total Energy, E(TD-HF/TD-DFT) =  -1857.23735681
 Copying the excited state density for this state as the 1-particle RhoCI density.

 The electronic state is 1-A.
 Alpha  occ. eigenvalues --  -19.23490 -19.21938 -19.21739 -19.21428 -10.32779
 Alpha  occ. eigenvalues --  -10.31950 -10.31818 -10.31713 -10.29615 -10.29354
 Alpha  occ. eigenvalues --  -10.28453 -10.28142 -10.28089 -10.27979 -10.27820
 Alpha  occ. eigenvalues --  -10.27773 -10.27722 -10.27710 -10.27354 -10.27287
 Alpha  occ. eigenvalues --  -10.26985 -10.26924 -10.26773 -10.26742 -10.26687
 Alpha  occ. eigenvalues --  -10.26665 -10.26620 -10.26459 -10.26453 -10.26439
 Alpha  occ. eigenvalues --  -10.26285 -10.26011 -10.26008 -10.25858 -10.25601
 Alpha  occ. eigenvalues --  -10.25448 -10.25370 -10.25324 -10.24658 -10.24411
 Alpha  occ. eigenvalues --  -10.24120 -10.23916 -10.23731 -10.23519  -1.14269
 Alpha  occ. eigenvalues --   -1.09103  -1.07923  -1.06203  -0.92773  -0.92200
 Alpha  occ. eigenvalues --   -0.91865  -0.90935  -0.90353  -0.89959  -0.87387
 Alpha  occ. eigenvalues --   -0.86934  -0.85722  -0.85062  -0.84443  -0.83241
 Alpha  occ. eigenvalues --   -0.82100  -0.81418  -0.79701  -0.78997  -0.77832
 Alpha  occ. eigenvalues --   -0.77061  -0.76970  -0.76637  -0.76563  -0.75896
 Alpha  occ. eigenvalues --   -0.75407  -0.74696  -0.72646  -0.70908  -0.70104
 Alpha  occ. eigenvalues --   -0.68922  -0.66700  -0.65805  -0.64739  -0.64121
 Alpha  occ. eigenvalues --   -0.63021  -0.61907  -0.61383  -0.60135  -0.59373
 Alpha  occ. eigenvalues --   -0.58820  -0.58334  -0.57873  -0.57219  -0.57009
 Alpha  occ. eigenvalues --   -0.56230  -0.55683  -0.54931  -0.54281  -0.54060
 Alpha  occ. eigenvalues --   -0.53301  -0.52926  -0.52789  -0.52606  -0.52381
 Alpha  occ. eigenvalues --   -0.52015  -0.51088  -0.50711  -0.49773  -0.49612
 Alpha  occ. eigenvalues --   -0.49241  -0.49074  -0.48571  -0.48056  -0.47831
 Alpha  occ. eigenvalues --   -0.47638  -0.47460  -0.47331  -0.47009  -0.46943
 Alpha  occ. eigenvalues --   -0.46476  -0.46450  -0.46400  -0.46097  -0.45729
 Alpha  occ. eigenvalues --   -0.45452  -0.44967  -0.44849  -0.44740  -0.44542
 Alpha  occ. eigenvalues --   -0.44088  -0.43827  -0.43060  -0.43020  -0.42646
 Alpha  occ. eigenvalues --   -0.42547  -0.42390  -0.42056  -0.41777  -0.41245
 Alpha  occ. eigenvalues --   -0.41057  -0.40828  -0.40744  -0.40020  -0.39979
 Alpha  occ. eigenvalues --   -0.39385  -0.39307  -0.39134  -0.39015  -0.38701
 Alpha  occ. eigenvalues --   -0.38608  -0.38423  -0.37414  -0.37218  -0.37004
 Alpha  occ. eigenvalues --   -0.36875  -0.35125  -0.34683  -0.34208  -0.34100
 Alpha  occ. eigenvalues --   -0.33244  -0.32206  -0.31770  -0.31205  -0.30544
 Alpha  occ. eigenvalues --   -0.29525  -0.27318  -0.24159  -0.18418
 Alpha virt. eigenvalues --   -0.07305  -0.00830   0.02640   0.05416   0.06304
 Alpha virt. eigenvalues --    0.07021   0.09866   0.10297   0.10528   0.11298
 Alpha virt. eigenvalues --    0.11541   0.12246   0.12392   0.13170   0.13657

 Mulliken charges:
               1
     1  O   -0.493929
     2  O   -0.548374
     3  O   -0.571297
     4  O   -0.565364
     5  C    0.167419
     6  C    0.246986
     7  C    0.048965
     8  C   -0.204250
     9  C   -0.206560
    10  C    0.166756
    11  C   -0.324139
    12  C   -0.114423
    13  C   -0.320211
    14  C   -0.337078
    15  C   -0.057183
    16  C    0.080615
    17  C   -0.369851
    18  C   -0.084858
    19  C   -0.090900
    20  C    0.014247
    21  C    0.276821
    22  C   -0.229040
    23  C    0.181393
    24  C   -0.182866
    25  C   -0.095234
    26  C   -0.295103
    27  C   -0.319270
    28  C   -0.296948
    29  C   -0.133847
    30  C    0.193236
    31  C    0.091718
    32  C   -0.269584
    33  C   -0.392594
    34  C   -0.088377
    35  C    0.138233
    36  C   -0.412056
    37  C   -0.145943
    38  C   -0.077393
    39  C   -0.053380
    40  C   -0.084932
    41  C   -0.135043
    42  C   -0.128568
    43  C    0.148150
    44  C   -0.391202
    45  H    0.111837
    46  H    0.112430
    47  H    0.106502
    48  H    0.089140
    49  H    0.102012
    50  H    0.084083
    51  H    0.096407
    52  H    0.124211
    53  H    0.100181
    54  H    0.117690
    55  H    0.119406
    56  H    0.063387
    57  H    0.116166
    58  H    0.097992
    59  H    0.108198
    60  H    0.310725
    61  H    0.047711
    62  H    0.104971
    63  H    0.129179
    64  H    0.110862
    65  H    0.071892
    66  H    0.089913
    67  H    0.075857
    68  H    0.107191
    69  H    0.097186
    70  H    0.100270
    71  H    0.111930
    72  H    0.103707
    73  H    0.119374
    74  H    0.086405
    75  H    0.099374
    76  H    0.116558
    77  H    0.111661
    78  H    0.087616
    79  H    0.100921
    80  H    0.137269
    81  H    0.077788
    82  H    0.311933
    83  H    0.302650
    84  H    0.100879
    85  H    0.107579
    86  H    0.142977
    87  H    0.120208
    88  H    0.077390
    89  H    0.110303
    90  H    0.129634
    91  H    0.129378
    92  H    0.070924
    93  H    0.065148
    94  H    0.073825
    95  H    0.086788
    96  H    0.069803
    97  H    0.083751
    98  H    0.119499
    99  H    0.132001
   100  H    0.082591
 Sum of Mulliken charges =  -0.00000

 Dipole moment (field-independent basis, Debye):
    X=              6.5793    Y=              0.8211    Z=              2.0805  Tot=              6.9491
 Quadrupole moment (field-independent basis, Debye-Ang):
   XX=           -270.4933   YY=           -257.4184   ZZ=           -276.6355
   XY=             -0.8448   XZ=             20.4736   YZ=             -4.5696

 Normal termination of Gaussian 16 at Wed Jul 31 21:25:32 2019.
