 Gaussian 16, Revision A.03,
 Gaussian 16:  ES64L-G16RevA.03 25-Dec-2016

 -------------------------------------
 # td=(NStates=1) CAM-B3LYP/6-31G(d,p)
 -------------------------------------

 --
 TD
 --
 Symbolic Z-matrix:
 Charge =  0 Multiplicity = 1

                         Standard orientation:
 ---------------------------------------------------------------------
 Center     Atomic      Atomic             Coordinates (Angstroms)
 Number     Number       Type             X           Y           Z
 ---------------------------------------------------------------------
      1          8           0      -11.686401    0.028064   -1.541660
      2          8           0      -12.938054   -2.482408    1.523785
      3          8           0       10.518534   -1.141685   -1.961276
      4          8           0       14.506623   -1.136134   -0.270341
      5          6           0      -11.069732   -0.096161   -0.355401
      6          6           0      -11.571847   -1.304696   -1.071118
      7          6           0      -11.682015    0.416047    0.974460
      8          6           0      -12.961505   -1.856095   -0.829438
      9          6           0      -13.169071   -0.080058    1.014795
     10          6           0      -13.457938   -1.621759    0.552152
     11          6           0      -10.793234   -2.152646   -2.028845
     12          6           0       -9.545870    0.159317   -0.541751
     13          6           0      -10.902151   -0.103241    2.173173
     14          6           0      -11.720540    1.941258    0.946587
     15          6           0       -8.586460   -0.613423    0.054862
     16          6           0       -7.170526   -0.578587    0.040913
     17          6           0       -6.377773   -1.796768    0.188568
     18          6           0       -6.622054    0.682466   -0.131725
     19          6           0       -5.299793    0.874931   -0.276109
     20          6           0       11.947963    0.043692    1.286801
     21          6           0       11.624645   -0.661098   -1.217857
     22          6           0       12.773392   -1.202920    1.508678
     23          6           0       13.395413   -1.850888    0.254475
     24          6           0       12.402100   -1.924894   -0.875452
     25          6           0       11.073185   -0.116269    0.181540
     26          6           0       10.970628    0.284358    2.600931
     27          6           0       12.851663    1.311568    1.167843
     28          6           0       12.391171    0.387934   -2.074392
     29          6           0       -4.693879    2.166572   -0.316386
     30          6           0        9.847392    0.334595    0.026083
     31          6           0       -3.390779    2.597520   -0.399630
     32          6           0        8.695363    0.920820   -0.089522
     33          6           0       -3.077634    4.030852   -0.822818
     34          6           0       -2.355594    1.736369   -0.220634
     35          6           0        7.434549    0.203160    0.056107
     36          6           0        7.630075   -1.271031    0.423293
     37          6           0        6.185978    0.835588   -0.004139
     38          6           0       -1.042168    2.033834   -0.422891
     39          6           0        4.980577    0.228949    0.072727
     40          6           0       -0.002047    1.049786   -0.202146
     41          6           0        3.677741    0.926145   -0.187326
     42          6           0        1.409488    1.306913   -0.148019
     43          6           0        2.426905    0.402894   -0.067266
     44          6           0        2.198672   -1.097766    0.207117
     45          1           0      -13.150368   -3.020634   -0.863055
     46          1           0      -13.563059   -1.366569   -1.655912
     47          1           0      -13.727778    0.127676    1.928213
     48          1           0      -13.696578    0.487890    0.316574
     49          1           0      -14.522375   -1.855880    0.459034
     50          1           0      -10.407741   -3.150043   -1.547118
     51          1           0      -11.619859   -2.253762   -2.706958
     52          1           0       -9.966124   -1.525239   -2.412938
     53          1           0       -9.266274    0.968829   -1.092034
     54          1           0       -9.808750    0.385773    2.347100
     55          1           0      -11.428384    0.444089    3.139936
     56          1           0      -10.934959   -1.022077    2.377513
     57          1           0      -12.330423    2.149242    0.011766
     58          1           0      -12.058669    2.432306    1.826118
     59          1           0      -10.722843    2.406310    0.836714
     60          1           0      -12.026078   -2.448164    1.433301
     61          1           0       -8.898735   -1.561132    0.447317
     62          1           0       -5.871431   -2.203852   -0.684217
     63          1           0       -5.636623   -1.533225    1.122468
     64          1           0       -7.038083   -2.634324    0.314260
     65          1           0       -7.213423    1.623089   -0.274732
     66          1           0       -4.507104    0.113115   -0.079556
     67          1           0       13.486054   -1.239925    2.306253
     68          1           0       12.223560   -2.087907    1.907300
     69          1           0       13.566283   -2.818985    0.702880
     70          1           0       12.949333   -2.410293   -1.694180
     71          1           0       11.617333   -2.678101   -0.850254
     72          1           0       11.680744    0.243069    3.538380
     73          1           0       10.323511    1.137366    2.529654
     74          1           0       10.488059   -0.651507    2.777652
     75          1           0       13.610201    1.256650    0.499920
     76          1           0       12.308051    2.261397    1.046241
     77          1           0       13.533180    1.346834    2.078196
     78          1           0       12.893184   -0.312826   -2.886972
     79          1           0       11.651775    1.039697   -2.563025
     80          1           0       13.128143    0.911040   -1.504874
     81          1           0       -5.558203    2.831683   -0.244462
     82          1           0        9.890187   -0.426742   -2.318289
     83          1           0       15.155513   -1.308690    0.495913
     84          1           0        8.403423    1.976138   -0.292002
     85          1           0       -2.359682    4.451444   -0.103806
     86          1           0       -2.595757    4.166961   -1.839169
     87          1           0       -3.856732    4.711633   -0.890505
     88          1           0       -2.399705    0.685623    0.158076
     89          1           0        6.878562   -2.015441   -0.031748
     90          1           0        8.660955   -1.763343    0.008485
     91          1           0        7.707533   -1.195662    1.693409
     92          1           0        6.207501    1.912303   -0.138585
     93          1           0       -0.724164    3.048040   -0.528134
     94          1           0        4.817285   -0.956320    0.149558
     95          1           0       -0.333900   -0.094077    0.078018
     96          1           0        3.756084    1.896217   -0.420981
     97          1           0        1.352597    2.368572   -0.416198
     98          1           0        1.188012   -1.282474   -0.057559
     99          1           0        2.900519   -1.603609   -0.482767
    100          1           0        2.094857   -1.388500    1.356271
 ---------------------------------------------------------------------

 SCF Done:  E(RCAM-B3LYP) =  -1857.33242136     A.U. after   18 cycles

 Excitation energies and oscillator strengths:

 Excited State   1:      Singlet-A      1.7964 eV  690.17 nm  f=3.2680  <S**2>=0.000
     163 ->166         0.12531
     164 ->165         0.70378
     164 <-165        -0.13016
 This state for optimization and/or second-order correction.
 Total Energy, E(TD-HF/TD-DFT) =  -1857.26640350
 Copying the excited state density for this state as the 1-particle RhoCI density.

 The electronic state is 1-A.
 Alpha  occ. eigenvalues --  -19.23340 -19.22363 -19.21352 -19.20938 -10.32365
 Alpha  occ. eigenvalues --  -10.31964 -10.31272 -10.31114 -10.30364 -10.28656
 Alpha  occ. eigenvalues --  -10.28290 -10.28133 -10.28065 -10.27843 -10.27817
 Alpha  occ. eigenvalues --  -10.27345 -10.27198 -10.27079 -10.26762 -10.26745
 Alpha  occ. eigenvalues --  -10.26688 -10.26394 -10.26282 -10.26119 -10.26104
 Alpha  occ. eigenvalues --  -10.26048 -10.26040 -10.25863 -10.25648 -10.25582
 Alpha  occ. eigenvalues --  -10.25488 -10.25455 -10.25386 -10.25335 -10.25281
 Alpha  occ. eigenvalues --  -10.25281 -10.25261 -10.25207 -10.25201 -10.25010
 Alpha  occ. eigenvalues --  -10.24841 -10.24577 -10.24488 -10.24174  -1.18905
 Alpha  occ. eigenvalues --   -1.11367  -1.10664  -1.09156  -0.93760  -0.92558
 Alpha  occ. eigenvalues --   -0.91981  -0.91217  -0.90574  -0.90092  -0.87054
 Alpha  occ. eigenvalues --   -0.86798  -0.86081  -0.85350  -0.84114  -0.83009
 Alpha  occ. eigenvalues --   -0.82038  -0.80839  -0.79910  -0.78508  -0.77296
 Alpha  occ. eigenvalues --   -0.76789  -0.76698  -0.76599  -0.76152  -0.75443
 Alpha  occ. eigenvalues --   -0.75196  -0.73876  -0.72202  -0.70860  -0.70174
 Alpha  occ. eigenvalues --   -0.68758  -0.67411  -0.66710  -0.65296  -0.64463
 Alpha  occ. eigenvalues --   -0.62899  -0.61683  -0.61186  -0.60343  -0.59906
 Alpha  occ. eigenvalues --   -0.59583  -0.59119  -0.57815  -0.57321  -0.56126
 Alpha  occ. eigenvalues --   -0.55920  -0.55343  -0.55105  -0.54818  -0.53824
 Alpha  occ. eigenvalues --   -0.53627  -0.53318  -0.53180  -0.52397  -0.51974
 Alpha  occ. eigenvalues --   -0.51688  -0.50917  -0.50785  -0.50052  -0.50047
 Alpha  occ. eigenvalues --   -0.49523  -0.49462  -0.48894  -0.48529  -0.48282
 Alpha  occ. eigenvalues --   -0.47935  -0.47810  -0.47674  -0.47603  -0.47393
 Alpha  occ. eigenvalues --   -0.47131  -0.46357  -0.46069  -0.45611  -0.45511
 Alpha  occ. eigenvalues --   -0.44415  -0.44167  -0.44104  -0.43858  -0.43771
 Alpha  occ. eigenvalues --   -0.43331  -0.43194  -0.42915  -0.42591  -0.42300
 Alpha  occ. eigenvalues --   -0.42004  -0.41952  -0.41486  -0.41345  -0.41196
 Alpha  occ. eigenvalues --   -0.40938  -0.40389  -0.40360  -0.40123  -0.39853
 Alpha  occ. eigenvalues --   -0.39749  -0.39236  -0.39090  -0.39028  -0.38671
 Alpha  occ. eigenvalues --   -0.38169  -0.38086  -0.38001  -0.37843  -0.37365
 Alpha  occ. eigenvalues --   -0.36955  -0.35682  -0.35196  -0.34460  -0.33548
 Alpha  occ. eigenvalues --   -0.33288  -0.32524  -0.31507  -0.31221  -0.30936
 Alpha  occ. eigenvalues --   -0.29526  -0.28038  -0.23161  -0.18026
 Alpha virt. eigenvalues --   -0.07016  -0.01225   0.03794   0.05313   0.07976
 Alpha virt. eigenvalues --    0.09447   0.10412   0.11188   0.11573   0.12648
 Alpha virt. eigenvalues --    0.12737   0.13259   0.13854   0.14148   0.14290

 Mulliken charges:
               1
     1  O   -0.487412
     2  O   -0.523952
     3  O   -0.583439
     4  O   -0.528739
     5  C    0.261711
     6  C    0.158121
     7  C    0.009441
     8  C   -0.209883
     9  C   -0.201024
    10  C    0.141833
    11  C   -0.294892
    12  C   -0.126777
    13  C   -0.282679
    14  C   -0.310788
    15  C   -0.063536
    16  C    0.070208
    17  C   -0.360847
    18  C   -0.102846
    19  C   -0.053170
    20  C    0.018396
    21  C    0.259772
    22  C   -0.209032
    23  C    0.122425
    24  C   -0.192614
    25  C   -0.048350
    26  C   -0.312065
    27  C   -0.301540
    28  C   -0.284362
    29  C   -0.150247
    30  C    0.195647
    31  C    0.101309
    32  C   -0.306791
    33  C   -0.375572
    34  C   -0.098160
    35  C    0.110458
    36  C   -0.361994
    37  C   -0.105254
    38  C   -0.093886
    39  C   -0.100242
    40  C   -0.113828
    41  C   -0.109998
    42  C   -0.116899
    43  C    0.109646
    44  C   -0.359955
    45  H    0.097027
    46  H    0.123471
    47  H    0.098891
    48  H    0.101539
    49  H    0.095229
    50  H    0.092170
    51  H    0.117199
    52  H    0.121301
    53  H    0.089701
    54  H    0.099640
    55  H    0.072201
    56  H    0.095621
    57  H    0.110659
    58  H    0.110595
    59  H    0.098561
    60  H    0.299760
    61  H    0.050628
    62  H    0.132632
    63  H    0.111157
    64  H    0.106430
    65  H    0.087615
    66  H    0.070780
    67  H    0.086314
    68  H    0.095060
    69  H    0.085977
    70  H    0.107941
    71  H    0.122903
    72  H    0.076298
    73  H    0.122284
    74  H    0.112347
    75  H    0.129946
    76  H    0.106814
    77  H    0.085325
    78  H    0.104594
    79  H    0.088741
    80  H    0.123892
    81  H    0.063299
    82  H    0.313512
    83  H    0.309530
    84  H    0.102537
    85  H    0.117497
    86  H    0.117851
    87  H    0.117617
    88  H    0.088093
    89  H    0.107147
    90  H    0.122268
    91  H    0.101319
    92  H    0.080331
    93  H    0.085146
    94  H    0.081262
    95  H    0.056773
    96  H    0.071404
    97  H    0.082350
    98  H    0.119221
    99  H    0.124429
   100  H    0.118975
 Sum of Mulliken charges =  -0.00000

 Dipole moment (field-independent basis, Debye):
    X=              5.8065    Y=             -0.0924    Z=              1.4961  Tot=              5.9969
 Quadrupole moment (field-independent basis, Debye-Ang):
   XX=           -254.5691   YY=           -257.6738   ZZ=           -278.2256
   XY=             -8.4547   XZ=             28.5929   YZ=             -2.9267

 Normal termination of Gaussian 16 at Fri Aug  2 13:13:40 2019.
