 Gaussian 16, Revision A.03,
 Gaussian 16:  ES64L-G16RevA.03 25-Dec-2016

 -------------------------------------
 # td=(NStates=1) CAM-B3LYP/6-31G(d,p)
 -------------------------------------

 --
 TD
 --
 Symbolic Z-matrix:
 Charge =  0 Multiplicity = 1

                         Standard orientation:
 ---------------------------------------------------------------------
 Center     Atomic      Atomic             Coordinates (Angstroms)
 Number     Number       Type             X           Y           Z
 ---------------------------------------------------------------------
      1          8           0       11.714967    0.376076    1.569271
      2          8           0       13.166282   -2.663016   -1.243219
      3          8           0      -10.625756   -1.162029    2.109246
      4          8           0      -14.617857   -1.153277    0.093750
      5          6           0       11.031162   -0.077857    0.327005
      6          6           0       11.635501   -1.011242    1.353480
      7          6           0       11.852950    0.307295   -0.929100
      8          6           0       12.945873   -1.769802    1.033361
      9          6           0       13.329313   -0.150070   -0.786898
     10          6           0       13.624371   -1.596474   -0.269716
     11          6           0       10.608846   -1.761989    2.285138
     12          6           0        9.538791    0.114055    0.347073
     13          6           0       11.102255   -0.253780   -2.097960
     14          6           0       11.861523    1.826180   -1.066175
     15          6           0        8.593031   -0.688031   -0.208007
     16          6           0        7.239117   -0.549280   -0.277622
     17          6           0        6.457706   -1.799792   -0.552574
     18          6           0        6.597547    0.691988   -0.024667
     19          6           0        5.159274    0.915041   -0.076323
     20          6           0      -11.915306    0.091419   -1.238759
     21          6           0      -11.662767   -0.732064    1.332669
     22          6           0      -12.573924   -1.297900   -1.498429
     23          6           0      -13.311692   -1.913207   -0.334689
     24          6           0      -12.437196   -1.987389    0.883187
     25          6           0      -11.006424   -0.039499    0.057398
     26          6           0      -10.958175    0.526630   -2.332630
     27          6           0      -12.989204    1.241182   -1.180494
     28          6           0      -12.438071    0.309841    2.083332
     29          6           0        4.686215    2.182635    0.358657
     30          6           0       -9.878502    0.464526    0.109173
     31          6           0        3.372336    2.585733    0.382360
     32          6           0       -8.710796    1.029927    0.283806
     33          6           0        2.962476    4.088754    0.833949
     34          6           0        2.339032    1.694778    0.023004
     35          6           0       -7.475076    0.194803   -0.061848
     36          6           0       -7.722057   -1.192318   -0.416365
     37          6           0       -6.210006    0.810192    0.182425
     38          6           0        0.933399    1.850625    0.282380
     39          6           0       -4.926674    0.220635   -0.091417
     40          6           0        0.001215    0.979696   -0.007503
     41          6           0       -3.832023    0.945181    0.079766
     42          6           0       -1.374478    1.233704    0.071544
     43          6           0       -2.511185    0.349914   -0.141023
     44          6           0       -2.325040   -1.080463   -0.548702
     45          1           0       12.927221   -2.727317    1.399548
     46          1           0       13.589253   -1.280941    1.815011
     47          1           0       13.831608   -0.422346   -1.832402
     48          1           0       13.757953    0.515675   -0.245589
     49          1           0       14.730047   -1.579418   -0.097579
     50          1           0       10.203413   -2.747401    1.744292
     51          1           0       11.105087   -2.148017    3.101120
     52          1           0        9.631430   -1.402636    2.396161
     53          1           0        9.325226    1.062167    1.142073
     54          1           0       10.075900    0.212714   -2.244760
     55          1           0       11.605444   -0.043409   -2.891491
     56          1           0       10.985799   -1.416619   -2.134604
     57          1           0       11.997017    2.099937   -0.144713
     58          1           0       12.679911    2.005265   -1.683529
     59          1           0       10.933616    2.194814   -1.530810
     60          1           0       12.254484   -2.912922   -1.025705
     61          1           0        9.048712   -1.673973   -0.752323
     62          1           0        6.280981   -2.406472    0.396699
     63          1           0        5.405410   -1.501235   -0.966593
     64          1           0        6.953674   -2.644557   -1.163695
     65          1           0        7.238261    1.456290    0.195852
     66          1           0        4.561481    0.090410   -0.092240
     67          1           0      -13.168194   -1.293037   -2.304194
     68          1           0      -11.847496   -2.002084   -1.716562
     69          1           0      -13.522161   -2.923906   -0.614729
     70          1           0      -12.837781   -2.529535    1.829113
     71          1           0      -11.696320   -2.681029    0.657845
     72          1           0      -11.570183    0.179809   -3.354819
     73          1           0      -10.576897    1.414649   -2.393422
     74          1           0       -9.875996   -0.347171   -2.370800
     75          1           0      -13.729623    1.089867   -0.529717
     76          1           0      -12.383136    2.272628   -0.939602
     77          1           0      -13.554679    1.535141   -2.118214
     78          1           0      -12.637901   -0.255334    3.090363
     79          1           0      -12.021448    1.127380    2.266950
     80          1           0      -13.446778    0.357649    1.722233
     81          1           0        5.767298    2.896036    0.468256
     82          1           0      -10.060346   -0.461211    2.286748
     83          1           0      -15.173367   -1.287621   -0.737822
     84          1           0       -8.538265    2.083309    0.612089
     85          1           0        2.450588    4.496431   -0.074053
     86          1           0        2.176432    3.900425    1.768598
     87          1           0        3.858152    4.615569    0.934969
     88          1           0        2.849739    0.615401   -0.101292
     89          1           0       -6.812168   -1.785310   -0.405746
     90          1           0       -8.446192   -1.766040    0.145931
     91          1           0       -8.138178   -1.284522   -1.376987
     92          1           0       -6.157805    1.836878    0.407288
     93          1           0        0.490667    2.849338    0.481727
     94          1           0       -4.781681   -0.734537   -0.780063
     95          1           0        0.425499   -0.008618   -0.510310
     96          1           0       -4.139415    1.968151    0.151518
     97          1           0       -1.648933    2.227616    0.503244
     98          1           0       -1.306887   -1.548673   -0.418505
     99          1           0       -2.866288   -1.682086    0.293474
    100          1           0       -2.983305   -1.309059   -1.503464
 ---------------------------------------------------------------------

 SCF Done:  E(RCAM-B3LYP) =  -1857.22401050     A.U. after   15 cycles

 Excitation energies and oscillator strengths:

 Excited State   1:      Singlet-A      2.1273 eV  582.84 nm  f=2.7963  <S**2>=0.000
     163 ->166        -0.13877
     164 ->165         0.69399
 This state for optimization and/or second-order correction.
 Total Energy, E(TD-HF/TD-DFT) =  -1857.14583540
 Copying the excited state density for this state as the 1-particle RhoCI density.

 The electronic state is 1-A.
 Alpha  occ. eigenvalues --  -19.22469 -19.22154 -19.21342 -19.20435 -10.32650
 Alpha  occ. eigenvalues --  -10.32067 -10.31943 -10.31761 -10.31246 -10.29282
 Alpha  occ. eigenvalues --  -10.28993 -10.28632 -10.28579 -10.27980 -10.27910
 Alpha  occ. eigenvalues --  -10.27866 -10.27535 -10.27403 -10.27338 -10.27298
 Alpha  occ. eigenvalues --  -10.27283 -10.27162 -10.27114 -10.26845 -10.26773
 Alpha  occ. eigenvalues --  -10.26555 -10.26539 -10.26413 -10.26277 -10.26238
 Alpha  occ. eigenvalues --  -10.26131 -10.25849 -10.25691 -10.25560 -10.25496
 Alpha  occ. eigenvalues --  -10.25484 -10.25441 -10.25355 -10.25255 -10.24842
 Alpha  occ. eigenvalues --  -10.24273 -10.23347 -10.22524 -10.22231  -1.14169
 Alpha  occ. eigenvalues --   -1.12680  -1.06986  -1.06048  -0.93242  -0.92205
 Alpha  occ. eigenvalues --   -0.91855  -0.91342  -0.90739  -0.89803  -0.88280
 Alpha  occ. eigenvalues --   -0.87064  -0.86802  -0.85721  -0.84473  -0.83482
 Alpha  occ. eigenvalues --   -0.81985  -0.81573  -0.80364  -0.78105  -0.77584
 Alpha  occ. eigenvalues --   -0.77374  -0.77268  -0.76762  -0.75936  -0.75848
 Alpha  occ. eigenvalues --   -0.75141  -0.74531  -0.72451  -0.70996  -0.70381
 Alpha  occ. eigenvalues --   -0.68368  -0.66551  -0.65435  -0.64930  -0.64499
 Alpha  occ. eigenvalues --   -0.63124  -0.61756  -0.61176  -0.60167  -0.59928
 Alpha  occ. eigenvalues --   -0.59215  -0.58677  -0.57300  -0.57115  -0.55832
 Alpha  occ. eigenvalues --   -0.55494  -0.55091  -0.54974  -0.54024  -0.53957
 Alpha  occ. eigenvalues --   -0.53681  -0.53582  -0.53124  -0.52789  -0.52466
 Alpha  occ. eigenvalues --   -0.51548  -0.50766  -0.50424  -0.50043  -0.49745
 Alpha  occ. eigenvalues --   -0.49499  -0.49335  -0.49228  -0.49140  -0.48907
 Alpha  occ. eigenvalues --   -0.48421  -0.47911  -0.47797  -0.47229  -0.47021
 Alpha  occ. eigenvalues --   -0.46915  -0.46769  -0.46351  -0.45694  -0.45053
 Alpha  occ. eigenvalues --   -0.44492  -0.44416  -0.44217  -0.43925  -0.43850
 Alpha  occ. eigenvalues --   -0.43770  -0.43332  -0.43079  -0.42871  -0.42689
 Alpha  occ. eigenvalues --   -0.42116  -0.41471  -0.41454  -0.41168  -0.41139
 Alpha  occ. eigenvalues --   -0.41117  -0.40778  -0.40532  -0.40216  -0.39890
 Alpha  occ. eigenvalues --   -0.39697  -0.39584  -0.39440  -0.38648  -0.38394
 Alpha  occ. eigenvalues --   -0.38358  -0.37766  -0.37490  -0.36824  -0.36821
 Alpha  occ. eigenvalues --   -0.36578  -0.36344  -0.35537  -0.34448  -0.33905
 Alpha  occ. eigenvalues --   -0.33777  -0.32342  -0.32116  -0.31510  -0.31086
 Alpha  occ. eigenvalues --   -0.30343  -0.27649  -0.23858  -0.19666
 Alpha virt. eigenvalues --   -0.06013  -0.00965   0.03105   0.06027   0.07776
 Alpha virt. eigenvalues --    0.09545   0.09648   0.10100   0.11166   0.11230
 Alpha virt. eigenvalues --    0.11317   0.12238   0.12826   0.13273   0.13402

 Mulliken charges:
               1
     1  O   -0.517338
     2  O   -0.568807
     3  O   -0.537268
     4  O   -0.558255
     5  C    0.166575
     6  C    0.274027
     7  C    0.020929
     8  C   -0.231968
     9  C   -0.182572
    10  C    0.139583
    11  C   -0.333098
    12  C   -0.126728
    13  C   -0.289815
    14  C   -0.308660
    15  C   -0.091537
    16  C    0.109188
    17  C   -0.379066
    18  C   -0.104306
    19  C   -0.063899
    20  C    0.031490
    21  C    0.253981
    22  C   -0.176663
    23  C    0.106720
    24  C   -0.195422
    25  C   -0.142115
    26  C   -0.249849
    27  C   -0.304158
    28  C   -0.296850
    29  C   -0.117141
    30  C    0.226818
    31  C    0.056380
    32  C   -0.299684
    33  C   -0.345514
    34  C   -0.113166
    35  C    0.098628
    36  C   -0.393292
    37  C   -0.135464
    38  C   -0.089339
    39  C   -0.068434
    40  C   -0.047096
    41  C   -0.101902
    42  C   -0.148168
    43  C    0.094681
    44  C   -0.381259
    45  H    0.111626
    46  H    0.115675
    47  H    0.102425
    48  H    0.110307
    49  H    0.112926
    50  H    0.069430
    51  H    0.117827
    52  H    0.135302
    53  H    0.098172
    54  H    0.105280
    55  H    0.107775
    56  H    0.064358
    57  H    0.130620
    58  H    0.110696
    59  H    0.099902
    60  H    0.311796
    61  H    0.072579
    62  H    0.120031
    63  H    0.103763
    64  H    0.107265
    65  H    0.077795
    66  H    0.094246
    67  H    0.095212
    68  H    0.112752
    69  H    0.104701
    70  H    0.107436
    71  H    0.121248
    72  H    0.063123
    73  H    0.128851
    74  H    0.030245
    75  H    0.138637
    76  H    0.074311
    77  H    0.093845
    78  H    0.091110
    79  H    0.100138
    80  H    0.141046
    81  H    0.071143
    82  H    0.298420
    83  H    0.304683
    84  H    0.109873
    85  H    0.127258
    86  H    0.114298
    87  H    0.120096
    88  H    0.063599
    89  H    0.110515
    90  H    0.138829
    91  H    0.128427
    92  H    0.077364
    93  H    0.085104
    94  H    0.079700
    95  H    0.074398
    96  H    0.092620
    97  H    0.079188
    98  H    0.125864
    99  H    0.118999
   100  H    0.117005
 Sum of Mulliken charges =  -0.00000

 Dipole moment (field-independent basis, Debye):
    X=             -3.9823    Y=             -0.9558    Z=             -1.6918  Tot=              4.4311
 Quadrupole moment (field-independent basis, Debye-Ang):
   XX=           -272.1130   YY=           -258.1408   ZZ=           -279.0100
   XY=              2.8564   XZ=             38.2407   YZ=              2.6370

 Normal termination of Gaussian 16 at Tue Jul 30 04:45:13 2019.
