 Gaussian 16, Revision A.03,
 Gaussian 16:  ES64L-G16RevA.03 25-Dec-2016

 -------------------------------------
 # td=(NStates=1) CAM-B3LYP/6-31G(d,p)
 -------------------------------------

 --
 TD
 --
 Symbolic Z-matrix:
 Charge =  0 Multiplicity = 1

                         Standard orientation:
 ---------------------------------------------------------------------
 Center     Atomic      Atomic             Coordinates (Angstroms)
 Number     Number       Type             X           Y           Z
 ---------------------------------------------------------------------
      1          8           0      -11.735839    0.262048   -1.558599
      2          8           0      -13.012504   -2.587422    1.262689
      3          8           0       10.651506   -1.036087   -2.086312
      4          8           0       14.528880   -1.152507   -0.053411
      5          6           0      -11.112302   -0.116235   -0.276252
      6          6           0      -11.584693   -1.174832   -1.124960
      7          6           0      -11.761793    0.353657    0.913879
      8          6           0      -12.910874   -1.796524   -0.882948
      9          6           0      -13.342749   -0.150876    0.769790
     10          6           0      -13.526960   -1.635934    0.507890
     11          6           0      -10.692507   -1.929792   -2.109907
     12          6           0       -9.580408    0.110218   -0.357467
     13          6           0      -11.179932   -0.080335    2.218910
     14          6           0      -11.699336    1.894873    0.991910
     15          6           0       -8.609035   -0.751414    0.151142
     16          6           0       -7.247779   -0.555349    0.132815
     17          6           0       -6.458853   -1.686471    0.334937
     18          6           0       -6.595188    0.658211   -0.152290
     19          6           0       -5.210182    0.959957   -0.120414
     20          6           0       11.889761    0.046139    1.263558
     21          6           0       11.666269   -0.641036   -1.336964
     22          6           0       12.634735   -1.263294    1.570257
     23          6           0       13.320338   -1.905961    0.304363
     24          6           0       12.437441   -1.921121   -0.888600
     25          6           0       11.085837    0.050081   -0.052097
     26          6           0       10.959721    0.392100    2.558818
     27          6           0       12.864290    1.351348    1.144494
     28          6           0       12.596790    0.353435   -2.079489
     29          6           0       -4.695133    2.263471   -0.449536
     30          6           0        9.880195    0.458912   -0.116496
     31          6           0       -3.372490    2.596282   -0.556662
     32          6           0        8.686190    0.943669   -0.117467
     33          6           0       -3.047750    3.976337   -0.711730
     34          6           0       -2.341079    1.789697   -0.240682
     35          6           0        7.421663    0.137579    0.137008
     36          6           0        7.580581   -1.299834    0.283254
     37          6           0        6.282757    0.726326   -0.002861
     38          6           0       -0.995756    1.950522   -0.240411
     39          6           0        4.984818    0.111459    0.021041
     40          6           0       -0.007623    0.960295    0.017287
     41          6           0        3.846809    0.738475   -0.002320
     42          6           0        1.346803    1.234499   -0.027848
     43          6           0        2.457446    0.251824    0.054551
     44          6           0        2.197301   -1.269908    0.224945
     45          1           0      -12.820219   -2.878612   -1.228821
     46          1           0      -13.471021   -1.424230   -1.677948
     47          1           0      -13.783549    0.288159    1.693373
     48          1           0      -13.902452    0.266745   -0.037959
     49          1           0      -14.590406   -1.731666    0.473021
     50          1           0      -10.317227   -2.718713   -1.495741
     51          1           0      -11.480722   -2.201740   -3.029405
     52          1           0       -9.805295   -1.273505   -2.481907
     53          1           0       -9.221233    1.006005   -0.946852
     54          1           0      -10.182105    0.324949    2.528826
     55          1           0      -11.772220    0.120360    3.194914
     56          1           0      -11.079790   -1.215379    2.276677
     57          1           0      -12.298556    1.960446    0.033991
     58          1           0      -12.212092    2.365332    1.758719
     59          1           0      -10.628889    2.251553    0.724674
     60          1           0      -11.973207   -2.331176    1.652981
     61          1           0       -9.134604   -1.661464    0.681886
     62          1           0       -5.681931   -1.975859   -0.460271
     63          1           0       -5.641761   -1.387080    1.115566
     64          1           0       -7.214470   -2.519655    0.630157
     65          1           0       -7.259802    1.520314   -0.209559
     66          1           0       -4.405494    0.221361   -0.206585
     67          1           0       13.360890   -1.320023    2.315200
     68          1           0       11.911792   -2.113891    1.766064
     69          1           0       13.673459   -2.894892    0.647649
     70          1           0       13.079219   -2.314623   -1.824281
     71          1           0       11.627736   -2.597678   -0.655265
     72          1           0       11.736013    0.123824    3.455050
     73          1           0       10.417501    1.166777    2.513747
     74          1           0       10.245463   -0.414907    2.523220
     75          1           0       13.668216    1.054909    0.471032
     76          1           0       12.309858    2.259059    0.963549
     77          1           0       13.497930    1.536963    2.025612
     78          1           0       12.719678   -0.170895   -3.013836
     79          1           0       12.107719    1.313903   -1.932284
     80          1           0       13.579727    0.549727   -1.571456
     81          1           0       -5.426983    3.088688   -0.626070
     82          1           0       10.171155   -0.295754   -2.410390
     83          1           0       14.962381   -0.582311    0.827956
     84          1           0        8.325883    1.951238   -0.580624
     85          1           0       -2.136332    4.304399   -0.076835
     86          1           0       -2.693904    3.823982   -1.816398
     87          1           0       -3.862624    4.651980   -0.610697
     88          1           0       -2.312279    0.702028    0.222823
     89          1           0        6.809849   -1.972895   -0.051034
     90          1           0        8.660911   -1.281033   -0.263891
     91          1           0        7.858844   -1.686500    1.312016
     92          1           0        6.235683    1.839524   -0.047239
     93          1           0       -0.709123    3.056257   -0.383792
     94          1           0        4.970648   -0.904857    0.154260
     95          1           0       -0.466672   -0.144626    0.046792
     96          1           0        3.835866    1.863417   -0.034741
     97          1           0        1.715651    2.286569   -0.233967
     98          1           0        1.195555   -1.315964    0.161229
     99          1           0        2.807946   -1.668954   -0.527585
    100          1           0        2.539121   -1.570540    1.228830
 ---------------------------------------------------------------------

 SCF Done:  E(RCAM-B3LYP) =  -1857.26426927     A.U. after   15 cycles

 Excitation energies and oscillator strengths:

 Excited State   1:      Singlet-A      1.9071 eV  650.10 nm  f=2.5988  <S**2>=0.000
     163 ->166        -0.11461
     164 ->165         0.70633
     164 <-165        -0.13095
 This state for optimization and/or second-order correction.
 Total Energy, E(TD-HF/TD-DFT) =  -1857.19418289
 Copying the excited state density for this state as the 1-particle RhoCI density.

 The electronic state is 1-A.
 Alpha  occ. eigenvalues --  -19.22249 -19.22086 -19.22017 -19.21146 -10.32101
 Alpha  occ. eigenvalues --  -10.31802 -10.31378 -10.31372 -10.30147 -10.29675
 Alpha  occ. eigenvalues --  -10.28941 -10.28353 -10.28226 -10.27739 -10.27702
 Alpha  occ. eigenvalues --  -10.27551 -10.27455 -10.27381 -10.27154 -10.27059
 Alpha  occ. eigenvalues --  -10.26977 -10.26900 -10.26808 -10.26761 -10.26620
 Alpha  occ. eigenvalues --  -10.26566 -10.26557 -10.26320 -10.26192 -10.26102
 Alpha  occ. eigenvalues --  -10.26066 -10.26052 -10.25925 -10.25633 -10.25559
 Alpha  occ. eigenvalues --  -10.25375 -10.25134 -10.25053 -10.25013 -10.24865
 Alpha  occ. eigenvalues --  -10.24827 -10.24676 -10.24041 -10.24033  -1.14782
 Alpha  occ. eigenvalues --   -1.12421  -1.10723  -1.06009  -0.93863  -0.93010
 Alpha  occ. eigenvalues --   -0.92672  -0.91768  -0.91528  -0.90008  -0.87786
 Alpha  occ. eigenvalues --   -0.86932  -0.86007  -0.85214  -0.84818  -0.83523
 Alpha  occ. eigenvalues --   -0.82748  -0.81137  -0.80878  -0.79480  -0.76970
 Alpha  occ. eigenvalues --   -0.76771  -0.76691  -0.76558  -0.76298  -0.76194
 Alpha  occ. eigenvalues --   -0.75496  -0.75401  -0.73031  -0.70689  -0.70461
 Alpha  occ. eigenvalues --   -0.68824  -0.67210  -0.66280  -0.65496  -0.65299
 Alpha  occ. eigenvalues --   -0.63261  -0.61558  -0.60600  -0.60443  -0.59689
 Alpha  occ. eigenvalues --   -0.59325  -0.58645  -0.57812  -0.56812  -0.56321
 Alpha  occ. eigenvalues --   -0.56056  -0.55521  -0.54898  -0.54885  -0.54260
 Alpha  occ. eigenvalues --   -0.53930  -0.53405  -0.53168  -0.52655  -0.52249
 Alpha  occ. eigenvalues --   -0.51918  -0.51603  -0.51026  -0.50773  -0.50418
 Alpha  occ. eigenvalues --   -0.49969  -0.49436  -0.49297  -0.49107  -0.48698
 Alpha  occ. eigenvalues --   -0.48577  -0.48228  -0.47872  -0.47781  -0.47164
 Alpha  occ. eigenvalues --   -0.46964  -0.46637  -0.46441  -0.46231  -0.45898
 Alpha  occ. eigenvalues --   -0.45577  -0.45142  -0.44868  -0.44174  -0.43771
 Alpha  occ. eigenvalues --   -0.43703  -0.43621  -0.43387  -0.43359  -0.42857
 Alpha  occ. eigenvalues --   -0.42755  -0.42527  -0.42022  -0.41946  -0.41415
 Alpha  occ. eigenvalues --   -0.41036  -0.40887  -0.40594  -0.40406  -0.39986
 Alpha  occ. eigenvalues --   -0.39930  -0.39794  -0.39034  -0.38193  -0.38110
 Alpha  occ. eigenvalues --   -0.37973  -0.37356  -0.37090  -0.36810  -0.36061
 Alpha  occ. eigenvalues --   -0.35617  -0.35201  -0.34952  -0.34497  -0.33086
 Alpha  occ. eigenvalues --   -0.32639  -0.31930  -0.31922  -0.31340  -0.30952
 Alpha  occ. eigenvalues --   -0.30299  -0.27982  -0.24845  -0.18956
 Alpha virt. eigenvalues --   -0.07030  -0.00595   0.03400   0.05644   0.06495
 Alpha virt. eigenvalues --    0.06756   0.07556   0.10265   0.11345   0.12223
 Alpha virt. eigenvalues --    0.12442   0.12612   0.13613   0.13698   0.14028

 Mulliken charges:
               1
     1  O   -0.527162
     2  O   -0.536558
     3  O   -0.523475
     4  O   -0.570559
     5  C    0.242343
     6  C    0.211449
     7  C   -0.007493
     8  C   -0.214500
     9  C   -0.216741
    10  C    0.175171
    11  C   -0.300350
    12  C   -0.131438
    13  C   -0.297401
    14  C   -0.311639
    15  C   -0.111916
    16  C    0.158356
    17  C   -0.391800
    18  C   -0.118388
    19  C   -0.081304
    20  C    0.013287
    21  C    0.266677
    22  C   -0.223936
    23  C    0.171803
    24  C   -0.182771
    25  C   -0.131631
    26  C   -0.276918
    27  C   -0.322174
    28  C   -0.319644
    29  C   -0.133619
    30  C    0.217900
    31  C    0.106623
    32  C   -0.312539
    33  C   -0.365693
    34  C   -0.095094
    35  C    0.139984
    36  C   -0.380474
    37  C   -0.123324
    38  C   -0.088514
    39  C   -0.072173
    40  C   -0.109255
    41  C   -0.095210
    42  C   -0.119055
    43  C    0.037201
    44  C   -0.342831
    45  H    0.093149
    46  H    0.123401
    47  H    0.082465
    48  H    0.125913
    49  H    0.100560
    50  H    0.114940
    51  H    0.094444
    52  H    0.124807
    53  H    0.107639
    54  H    0.127896
    55  H    0.112668
    56  H    0.032688
    57  H    0.126393
    58  H    0.113100
    59  H    0.100435
    60  H    0.313917
    61  H    0.071182
    62  H    0.126259
    63  H    0.112594
    64  H    0.095145
    65  H    0.073478
    66  H    0.092289
    67  H    0.103189
    68  H    0.101425
    69  H    0.090122
    70  H    0.097083
    71  H    0.113886
    72  H    0.080782
    73  H    0.113885
    74  H    0.101364
    75  H    0.102307
    76  H    0.117342
    77  H    0.085964
    78  H    0.115648
    79  H    0.093431
    80  H    0.135849
    81  H    0.080023
    82  H    0.306852
    83  H    0.299600
    84  H    0.103639
    85  H    0.120068
    86  H    0.123096
    87  H    0.116229
    88  H    0.063252
    89  H    0.118595
    90  H    0.113390
    91  H    0.112463
    92  H    0.070393
    93  H    0.064055
    94  H    0.068633
    95  H    0.090093
    96  H    0.066866
    97  H    0.091019
    98  H    0.113307
    99  H    0.130767
   100  H    0.124805
 Sum of Mulliken charges =  -0.00000

 Dipole moment (field-independent basis, Debye):
    X=              2.6166    Y=              0.8750    Z=              2.5831  Tot=              3.7795
 Quadrupole moment (field-independent basis, Debye-Ang):
   XX=           -282.4377   YY=           -265.8656   ZZ=           -274.7596
   XY=              0.2282   XZ=             12.7492   YZ=             -2.4643

 Normal termination of Gaussian 16 at Mon Jul 29 15:02:37 2019.
