 Gaussian 16, Revision A.03,
 Gaussian 16:  ES64L-G16RevA.03 25-Dec-2016

 -------------------------------------
 # td=(NStates=1) CAM-B3LYP/6-31G(d,p)
 -------------------------------------

 --
 TD
 --
 Symbolic Z-matrix:
 Charge =  0 Multiplicity = 1

                         Standard orientation:
 ---------------------------------------------------------------------
 Center     Atomic      Atomic             Coordinates (Angstroms)
 Number     Number       Type             X           Y           Z
 ---------------------------------------------------------------------
      1          8           0      -11.738041    0.481820   -1.480262
      2          8           0      -12.834683   -2.703945    1.242175
      3          8           0       10.748830   -0.909883   -2.318511
      4          8           0       14.597485   -0.874978   -0.008694
      5          6           0      -11.109010   -0.114362   -0.281852
      6          6           0      -11.689382   -1.022318   -1.246867
      7          6           0      -11.754857    0.316739    1.098914
      8          6           0      -13.102663   -1.674805   -1.050920
      9          6           0      -13.264115   -0.232028    1.085454
     10          6           0      -13.424898   -1.561230    0.411210
     11          6           0      -10.826115   -1.828405   -2.233478
     12          6           0       -9.654623    0.164560   -0.328129
     13          6           0      -10.975922   -0.208409    2.324773
     14          6           0      -11.757353    1.857076    1.091575
     15          6           0       -8.720050   -0.667563    0.107348
     16          6           0       -7.204381   -0.640165    0.079659
     17          6           0       -6.499607   -1.964272    0.083453
     18          6           0       -6.627332    0.597594   -0.000573
     19          6           0       -5.301190    0.916591   -0.096903
     20          6           0       11.855947   -0.146461    1.407953
     21          6           0       11.671597   -0.511452   -1.162013
     22          6           0       12.731994   -1.497495    1.385584
     23          6           0       13.463611   -1.821573    0.159512
     24          6           0       12.512693   -1.743585   -1.029049
     25          6           0       11.028161   -0.040453    0.085326
     26          6           0       10.895321   -0.234738    2.577487
     27          6           0       12.659024    1.147138    1.621447
     28          6           0       12.551229    0.641501   -1.864817
     29          6           0       -4.686169    2.187393   -0.278359
     30          6           0        9.873074    0.476752    0.071151
     31          6           0       -3.379114    2.606642   -0.225719
     32          6           0        8.625917    1.030222   -0.151611
     33          6           0       -2.958187    4.025905   -0.395275
     34          6           0       -2.308085    1.622633   -0.305462
     35          6           0        7.543582    0.172413   -0.073931
     36          6           0        7.595828   -1.281039    0.162116
     37          6           0        6.266755    0.692256   -0.046106
     38          6           0       -0.930295    1.914925   -0.472398
     39          6           0        4.932480    0.281420   -0.039757
     40          6           0        0.059723    0.939114   -0.308554
     41          6           0        3.808445    0.929981   -0.195839
     42          6           0        1.410087    1.231913   -0.300432
     43          6           0        2.466704    0.370681   -0.116775
     44          6           0        2.224395   -1.088449    0.171997
     45          1           0      -12.956883   -2.685592   -1.449782
     46          1           0      -13.780580   -1.196369   -1.660658
     47          1           0      -13.957459   -0.181085    2.062145
     48          1           0      -13.785735    0.429878    0.384295
     49          1           0      -14.562797   -1.714476    0.521062
     50          1           0      -10.415915   -2.781405   -1.858190
     51          1           0      -11.496103   -1.685520   -3.189675
     52          1           0       -9.826265   -1.319574   -2.468239
     53          1           0       -9.441723    1.066360   -0.823104
     54          1           0       -9.874602    0.101544    2.241550
     55          1           0      -11.387996    0.185323    3.239140
     56          1           0      -11.077793   -1.279676    2.367149
     57          1           0      -11.970033    2.030987    0.121151
     58          1           0      -12.609283    2.346656    1.786825
     59          1           0      -10.715705    2.027889    1.362332
     60          1           0      -11.881971   -2.477034    1.005136
     61          1           0       -9.321591   -1.661612    0.363952
     62          1           0       -6.195743   -2.418397   -0.870441
     63          1           0       -5.497128   -1.876972    0.770798
     64          1           0       -7.117284   -2.621345    0.723113
     65          1           0       -7.500728    1.293953    0.240268
     66          1           0       -4.624658    0.058372   -0.102698
     67          1           0       13.399882   -1.469895    2.368524
     68          1           0       12.098487   -2.172679    1.458131
     69          1           0       13.942885   -2.685704    0.213206
     70          1           0       12.976518   -1.993887   -1.877900
     71          1           0       11.762162   -2.691149   -0.868275
     72          1           0       11.387520   -0.482062    3.567252
     73          1           0       10.326714    0.685684    2.832556
     74          1           0       10.093413   -1.138368    2.364327
     75          1           0       13.678495    1.358378    1.042637
     76          1           0       12.018632    2.021894    1.404767
     77          1           0       12.968971    1.094029    2.698785
     78          1           0       13.023373    0.195165   -2.887143
     79          1           0       11.909656    1.567050   -2.043479
     80          1           0       13.449222    0.830525   -1.156393
     81          1           0       -5.374646    3.057091   -0.426790
     82          1           0       10.253177   -0.015833   -2.485717
     83          1           0       14.975350   -1.183810    0.832404
     84          1           0        8.355874    2.059110   -0.430713
     85          1           0       -2.515929    4.533974    0.491430
     86          1           0       -2.151560    4.134142   -0.990619
     87          1           0       -3.735558    4.620329   -0.586013
     88          1           0       -2.435073    0.419574   -0.325583
     89          1           0        6.559591   -1.859192    0.164578
     90          1           0        8.035676   -1.750338   -0.668964
     91          1           0        8.347239   -1.606104    1.140065
     92          1           0        6.424274    1.628872   -0.361622
     93          1           0       -0.575935    3.078883   -0.619518
     94          1           0        4.849222   -0.826823    0.254698
     95          1           0       -0.212313   -0.116699    0.097073
     96          1           0        3.628623    2.215881   -0.217683
     97          1           0        1.854288    2.262585   -0.351889
     98          1           0        1.123462   -1.356338    0.266675
     99          1           0        2.724287   -1.794102   -0.557214
    100          1           0        2.623927   -1.274079    1.093791
 ---------------------------------------------------------------------

 SCF Done:  E(RCAM-B3LYP) =  -1857.28629719     A.U. after   15 cycles

 Excitation energies and oscillator strengths:

 Excited State   1:      Singlet-A      2.0472 eV  605.63 nm  f=2.9958  <S**2>=0.000
     163 ->166         0.12558
     164 ->165         0.70039
     164 <-165        -0.10740
 This state for optimization and/or second-order correction.
 Total Energy, E(TD-HF/TD-DFT) =  -1857.21106366
 Copying the excited state density for this state as the 1-particle RhoCI density.

 The electronic state is 1-A.
 Alpha  occ. eigenvalues --  -19.22297 -19.21532 -19.21501 -19.21228 -10.32916
 Alpha  occ. eigenvalues --  -10.32717 -10.31986 -10.31154 -10.30433 -10.29654
 Alpha  occ. eigenvalues --  -10.28446 -10.28359 -10.28227 -10.28205 -10.28171
 Alpha  occ. eigenvalues --  -10.28117 -10.27980 -10.27913 -10.27808 -10.27787
 Alpha  occ. eigenvalues --  -10.27711 -10.27534 -10.27382 -10.27287 -10.27223
 Alpha  occ. eigenvalues --  -10.27196 -10.26999 -10.26751 -10.26717 -10.26687
 Alpha  occ. eigenvalues --  -10.26684 -10.26388 -10.26320 -10.26249 -10.26202
 Alpha  occ. eigenvalues --  -10.26159 -10.25981 -10.25956 -10.25933 -10.25573
 Alpha  occ. eigenvalues --  -10.24560 -10.24403 -10.24239 -10.24081  -1.12190
 Alpha  occ. eigenvalues --   -1.09506  -1.06346  -1.05816  -0.94268  -0.92960
 Alpha  occ. eigenvalues --   -0.92182  -0.91699  -0.90877  -0.89924  -0.87987
 Alpha  occ. eigenvalues --   -0.87532  -0.87037  -0.86215  -0.85669  -0.84098
 Alpha  occ. eigenvalues --   -0.82541  -0.81050  -0.80890  -0.78968  -0.77785
 Alpha  occ. eigenvalues --   -0.77656  -0.76754  -0.76545  -0.76173  -0.75739
 Alpha  occ. eigenvalues --   -0.75132  -0.74522  -0.73387  -0.71112  -0.70463
 Alpha  occ. eigenvalues --   -0.68139  -0.66883  -0.64956  -0.64812  -0.64298
 Alpha  occ. eigenvalues --   -0.63232  -0.62058  -0.60182  -0.59344  -0.59102
 Alpha  occ. eigenvalues --   -0.58331  -0.58085  -0.57196  -0.57168  -0.56435
 Alpha  occ. eigenvalues --   -0.56259  -0.55591  -0.55074  -0.54743  -0.54152
 Alpha  occ. eigenvalues --   -0.53771  -0.53399  -0.53048  -0.52433  -0.52124
 Alpha  occ. eigenvalues --   -0.51531  -0.51032  -0.50717  -0.50345  -0.49766
 Alpha  occ. eigenvalues --   -0.49673  -0.49354  -0.49296  -0.48572  -0.48277
 Alpha  occ. eigenvalues --   -0.47944  -0.47776  -0.47421  -0.47205  -0.46998
 Alpha  occ. eigenvalues --   -0.46645  -0.46427  -0.46130  -0.45925  -0.45394
 Alpha  occ. eigenvalues --   -0.44706  -0.44567  -0.44248  -0.44060  -0.43656
 Alpha  occ. eigenvalues --   -0.43421  -0.43221  -0.43093  -0.42975  -0.42899
 Alpha  occ. eigenvalues --   -0.41825  -0.41767  -0.41641  -0.41203  -0.41039
 Alpha  occ. eigenvalues --   -0.40974  -0.40686  -0.40506  -0.40378  -0.40049
 Alpha  occ. eigenvalues --   -0.39843  -0.39371  -0.39228  -0.39062  -0.38836
 Alpha  occ. eigenvalues --   -0.38476  -0.38346  -0.38145  -0.38007  -0.37671
 Alpha  occ. eigenvalues --   -0.37610  -0.36314  -0.35353  -0.34380  -0.34079
 Alpha  occ. eigenvalues --   -0.33484  -0.32750  -0.32428  -0.32151  -0.31734
 Alpha  occ. eigenvalues --   -0.31316  -0.28423  -0.24378  -0.19566
 Alpha virt. eigenvalues --   -0.06711  -0.01305   0.02870   0.06088   0.06877
 Alpha virt. eigenvalues --    0.08599   0.09031   0.09811   0.10086   0.11417
 Alpha virt. eigenvalues --    0.11888   0.12096   0.12501   0.12655   0.13297

 Mulliken charges:
               1
     1  O   -0.524364
     2  O   -0.549612
     3  O   -0.569844
     4  O   -0.546872
     5  C    0.167552
     6  C    0.201978
     7  C    0.008700
     8  C   -0.183477
     9  C   -0.181535
    10  C    0.100835
    11  C   -0.343766
    12  C   -0.090789
    13  C   -0.310131
    14  C   -0.302927
    15  C   -0.092395
    16  C    0.082879
    17  C   -0.374652
    18  C   -0.081765
    19  C   -0.091567
    20  C    0.021463
    21  C    0.206819
    22  C   -0.164370
    23  C    0.125633
    24  C   -0.175574
    25  C   -0.072501
    26  C   -0.306934
    27  C   -0.297425
    28  C   -0.304238
    29  C   -0.121288
    30  C    0.144013
    31  C    0.093989
    32  C   -0.257350
    33  C   -0.370594
    34  C   -0.123963
    35  C    0.158787
    36  C   -0.368862
    37  C   -0.100710
    38  C   -0.076022
    39  C   -0.105240
    40  C   -0.104493
    41  C   -0.088172
    42  C   -0.108200
    43  C    0.125215
    44  C   -0.374858
    45  H    0.125868
    46  H    0.137189
    47  H    0.100329
    48  H    0.108646
    49  H    0.089126
    50  H    0.122002
    51  H    0.117448
    52  H    0.122078
    53  H    0.112590
    54  H    0.104434
    55  H    0.112292
    56  H    0.094825
    57  H    0.142640
    58  H    0.087495
    59  H    0.101437
    60  H    0.297906
    61  H    0.049415
    62  H    0.134685
    63  H    0.094485
    64  H    0.120860
    65  H    0.085461
    66  H    0.081016
    67  H    0.070523
    68  H    0.106300
    69  H    0.100161
    70  H    0.123841
    71  H    0.088875
    72  H    0.096054
    73  H    0.119703
    74  H    0.083980
    75  H    0.114255
    76  H    0.108555
    77  H    0.091869
    78  H    0.104329
    79  H    0.086910
    80  H    0.133810
    81  H    0.074793
    82  H    0.302485
    83  H    0.300621
    84  H    0.121114
    85  H    0.115658
    86  H    0.133458
    87  H    0.117213
    88  H    0.085363
    89  H    0.095013
    90  H    0.143529
    91  H    0.079728
    92  H    0.050622
    93  H    0.080110
    94  H    0.074842
    95  H    0.090189
    96  H    0.062207
    97  H    0.070208
    98  H    0.099825
    99  H    0.119549
   100  H    0.138708
 Sum of Mulliken charges =  -0.00000

 Dipole moment (field-independent basis, Debye):
    X=              3.9315    Y=             -0.2908    Z=              1.7583  Tot=              4.3166
 Quadrupole moment (field-independent basis, Debye-Ang):
   XX=           -282.1799   YY=           -261.2382   ZZ=           -278.9571
   XY=            -13.5821   XZ=             39.0639   YZ=              0.7089

 Normal termination of Gaussian 16 at Mon Jul 29 10:45:34 2019.
