 Gaussian 16, Revision A.03,
 Gaussian 16:  ES64L-G16RevA.03 25-Dec-2016

 -------------------------------------
 # td=(NStates=1) CAM-B3LYP/6-31G(d,p)
 -------------------------------------

 --
 TD
 --
 Symbolic Z-matrix:
 Charge =  0 Multiplicity = 1

                         Standard orientation:
 ---------------------------------------------------------------------
 Center     Atomic      Atomic             Coordinates (Angstroms)
 Number     Number       Type             X           Y           Z
 ---------------------------------------------------------------------
      1          8           0      -11.767330    0.070340   -1.602267
      2          8           0      -13.026476   -2.413432    1.537287
      3          8           0       10.580983   -0.723833   -2.285971
      4          8           0       14.526119   -1.231260   -0.022473
      5          6           0      -11.061734   -0.182267   -0.353919
      6          6           0      -11.554616   -1.271752   -1.233360
      7          6           0      -11.796449    0.382243    0.828851
      8          6           0      -12.867337   -2.007673   -0.882374
      9          6           0      -13.251164   -0.046886    0.835765
     10          6           0      -13.496326   -1.565841    0.426015
     11          6           0      -10.581067   -2.126722   -2.058705
     12          6           0       -9.628046    0.073925   -0.335747
     13          6           0      -11.053081   -0.058874    2.165163
     14          6           0      -11.809536    1.903071    0.715334
     15          6           0       -8.627099   -0.726356    0.119853
     16          6           0       -7.208668   -0.562002    0.153129
     17          6           0       -6.334086   -1.718390    0.379603
     18          6           0       -6.607337    0.772289   -0.017296
     19          6           0       -5.184490    0.994873   -0.030979
     20          6           0       11.760859   -0.085266    1.443832
     21          6           0       11.711475   -0.507510   -1.241161
     22          6           0       12.493740   -1.470532    1.414076
     23          6           0       13.319335   -1.855821    0.229545
     24          6           0       12.421280   -1.955661   -1.059823
     25          6           0       11.034592    0.050888    0.105530
     26          6           0       10.834681    0.011654    2.621430
     27          6           0       12.895888    1.067430    1.381236
     28          6           0       12.597518    0.488914   -1.903015
     29          6           0       -4.765633    2.292188   -0.229760
     30          6           0        9.874895    0.517422   -0.044520
     31          6           0       -3.366498    2.616830   -0.332217
     32          6           0        8.674119    0.997432   -0.162575
     33          6           0       -3.040176    4.102983   -0.537741
     34          6           0       -2.314677    1.662004   -0.230431
     35          6           0        7.451248    0.212275    0.053272
     36          6           0        7.625073   -1.294122    0.146044
     37          6           0        6.220847    0.769494   -0.027228
     38          6           0       -0.963341    1.972128   -0.370559
     39          6           0        4.944803    0.161929    0.078205
     40          6           0        0.039796    1.000104   -0.235573
     41          6           0        3.747222    0.925114   -0.078363
     42          6           0        1.408731    1.295467   -0.204683
     43          6           0        2.422867    0.382575   -0.100280
     44          6           0        2.349346   -1.040544    0.193767
     45          1           0      -12.606028   -3.124274   -1.001764
     46          1           0      -13.563973   -2.087472   -1.715331
     47          1           0      -13.616853    0.011030    1.866349
     48          1           0      -13.913096    0.495061    0.290312
     49          1           0      -14.596613   -1.918778    0.543629
     50          1           0      -10.226497   -3.030342   -1.414880
     51          1           0      -11.208796   -2.474019   -3.107437
     52          1           0       -9.686815   -1.528131   -2.367496
     53          1           0       -9.285152    1.004160   -0.836848
     54          1           0      -10.213732    0.589023    2.355071
     55          1           0      -11.826124   -0.028119    2.944462
     56          1           0      -10.687429   -1.225836    2.120312
     57          1           0      -12.277807    2.432220   -0.134947
     58          1           0      -12.258056    2.315862    1.554525
     59          1           0      -10.876291    2.317556    0.722709
     60          1           0      -12.006346   -2.441339    1.592203
     61          1           0       -9.122462   -1.646173    0.414733
     62          1           0       -6.288178   -2.133766   -0.856384
     63          1           0       -5.080811   -1.683153    0.615947
     64          1           0       -6.773536   -2.483468    1.068329
     65          1           0       -7.290737    1.566934    0.000874
     66          1           0       -4.561212    0.113976    0.007903
     67          1           0       13.092873   -1.512857    2.245767
     68          1           0       11.603880   -2.118119    1.590611
     69          1           0       13.557781   -2.918388    0.346799
     70          1           0       13.134160   -1.920212   -1.871844
     71          1           0       11.728583   -2.725034   -0.867565
     72          1           0       11.384137   -0.148039    3.566583
     73          1           0       10.428679    0.946687    2.390666
     74          1           0        9.988647   -0.802098    2.638744
     75          1           0       13.770236    0.757492    0.820110
     76          1           0       12.432473    1.990909    1.133673
     77          1           0       13.449265    1.122524    2.412494
     78          1           0       12.834594    0.074500   -2.901792
     79          1           0       12.140023    1.565336   -1.967026
     80          1           0       13.509668    0.498041   -1.399386
     81          1           0       -5.406048    3.121407   -0.320538
     82          1           0        9.973114    0.044684   -2.381282
     83          1           0       15.105141   -1.174680    0.806224
     84          1           0        8.384701    2.049634   -0.364948
     85          1           0       -2.269799    4.708994    0.147906
     86          1           0       -2.568474    4.380738   -1.451488
     87          1           0       -3.903660    4.587490   -0.558740
     88          1           0       -2.659824    0.575706   -0.188667
     89          1           0        6.826948   -1.832585   -0.009363
     90          1           0        8.388196   -1.609355   -0.676076
     91          1           0        8.096912   -1.396246    1.150046
     92          1           0        6.039987    2.009345    0.178724
     93          1           0       -0.624352    2.856486   -0.567312
     94          1           0        4.689006   -0.787725    0.356759
     95          1           0       -0.224140   -0.156458   -0.076809
     96          1           0        3.784396    2.050020   -0.335072
     97          1           0        1.609920    2.469420   -0.158161
     98          1           0        1.258501   -1.472394    0.293662
     99          1           0        3.005279   -1.840365   -0.514461
    100          1           0        2.997657   -1.112398    1.134820
 ---------------------------------------------------------------------

 SCF Done:  E(RCAM-B3LYP) =  -1857.33771851     A.U. after   15 cycles

 Excitation energies and oscillator strengths:

 Excited State   1:      Singlet-A      2.0847 eV  594.74 nm  f=2.8829  <S**2>=0.000
     163 ->166         0.13484
     164 ->165         0.69563
 This state for optimization and/or second-order correction.
 Total Energy, E(TD-HF/TD-DFT) =  -1857.26110835
 Copying the excited state density for this state as the 1-particle RhoCI density.

 The electronic state is 1-A.
 Alpha  occ. eigenvalues --  -19.23707 -19.22160 -19.19977 -19.19036 -10.32686
 Alpha  occ. eigenvalues --  -10.32314 -10.31504 -10.31406 -10.31199 -10.30037
 Alpha  occ. eigenvalues --  -10.28951 -10.28594 -10.28356 -10.28076 -10.27900
 Alpha  occ. eigenvalues --  -10.27814 -10.27309 -10.27277 -10.27138 -10.27128
 Alpha  occ. eigenvalues --  -10.27096 -10.27022 -10.26879 -10.26852 -10.26736
 Alpha  occ. eigenvalues --  -10.26686 -10.26668 -10.26649 -10.26611 -10.26525
 Alpha  occ. eigenvalues --  -10.26520 -10.26087 -10.26048 -10.25844 -10.25756
 Alpha  occ. eigenvalues --  -10.25576 -10.25536 -10.25471 -10.25400 -10.25152
 Alpha  occ. eigenvalues --  -10.24362 -10.24347 -10.24054 -10.23345  -1.15450
 Alpha  occ. eigenvalues --   -1.11748  -1.05863  -1.04235  -0.93242  -0.92365
 Alpha  occ. eigenvalues --   -0.92094  -0.91294  -0.90493  -0.89997  -0.87564
 Alpha  occ. eigenvalues --   -0.86294  -0.85767  -0.85454  -0.84935  -0.83214
 Alpha  occ. eigenvalues --   -0.82284  -0.80746  -0.79851  -0.78686  -0.77131
 Alpha  occ. eigenvalues --   -0.77038  -0.76994  -0.76059  -0.76026  -0.75955
 Alpha  occ. eigenvalues --   -0.75094  -0.74965  -0.73032  -0.70003  -0.69372
 Alpha  occ. eigenvalues --   -0.68467  -0.67237  -0.65298  -0.65061  -0.64760
 Alpha  occ. eigenvalues --   -0.63551  -0.62192  -0.61349  -0.60256  -0.59662
 Alpha  occ. eigenvalues --   -0.58990  -0.58345  -0.57617  -0.56798  -0.56709
 Alpha  occ. eigenvalues --   -0.55750  -0.55600  -0.55180  -0.54995  -0.54090
 Alpha  occ. eigenvalues --   -0.53334  -0.52963  -0.52607  -0.52418  -0.51865
 Alpha  occ. eigenvalues --   -0.51618  -0.51139  -0.50463  -0.50285  -0.49736
 Alpha  occ. eigenvalues --   -0.48934  -0.48755  -0.48586  -0.48312  -0.47923
 Alpha  occ. eigenvalues --   -0.47539  -0.47385  -0.47235  -0.46765  -0.46709
 Alpha  occ. eigenvalues --   -0.46584  -0.46161  -0.46039  -0.45798  -0.45644
 Alpha  occ. eigenvalues --   -0.45266  -0.44986  -0.44608  -0.44348  -0.44320
 Alpha  occ. eigenvalues --   -0.44137  -0.43626  -0.43283  -0.42708  -0.42650
 Alpha  occ. eigenvalues --   -0.42437  -0.42352  -0.42163  -0.41698  -0.41593
 Alpha  occ. eigenvalues --   -0.41434  -0.40535  -0.40333  -0.40263  -0.39599
 Alpha  occ. eigenvalues --   -0.39454  -0.39412  -0.39171  -0.38987  -0.38836
 Alpha  occ. eigenvalues --   -0.38055  -0.37984  -0.37779  -0.37247  -0.36768
 Alpha  occ. eigenvalues --   -0.36430  -0.36060  -0.34871  -0.33920  -0.33590
 Alpha  occ. eigenvalues --   -0.32741  -0.32020  -0.31612  -0.31466  -0.30908
 Alpha  occ. eigenvalues --   -0.30047  -0.27424  -0.23883  -0.19304
 Alpha virt. eigenvalues --   -0.06095  -0.00887   0.03102   0.06593   0.07492
 Alpha virt. eigenvalues --    0.08850   0.09120   0.10163   0.10712   0.11351
 Alpha virt. eigenvalues --    0.12173   0.12508   0.12580   0.12803   0.13347

 Mulliken charges:
               1
     1  O   -0.501470
     2  O   -0.575029
     3  O   -0.601491
     4  O   -0.543947
     5  C    0.203582
     6  C    0.258502
     7  C    0.019517
     8  C   -0.204078
     9  C   -0.175753
    10  C    0.134712
    11  C   -0.324474
    12  C   -0.124091
    13  C   -0.301005
    14  C   -0.322119
    15  C   -0.071145
    16  C    0.085040
    17  C   -0.352835
    18  C   -0.117850
    19  C   -0.043604
    20  C    0.001920
    21  C    0.227050
    22  C   -0.190619
    23  C    0.156944
    24  C   -0.181274
    25  C   -0.118278
    26  C   -0.298206
    27  C   -0.320177
    28  C   -0.301995
    29  C   -0.113213
    30  C    0.254577
    31  C    0.075118
    32  C   -0.318180
    33  C   -0.376503
    34  C   -0.110663
    35  C    0.102269
    36  C   -0.356885
    37  C   -0.124596
    38  C   -0.054039
    39  C   -0.079080
    40  C   -0.082126
    41  C   -0.137357
    42  C   -0.135189
    43  C    0.168254
    44  C   -0.391258
    45  H    0.098853
    46  H    0.116573
    47  H    0.107417
    48  H    0.114866
    49  H    0.098802
    50  H    0.103992
    51  H    0.084941
    52  H    0.128723
    53  H    0.094946
    54  H    0.123312
    55  H    0.119671
    56  H    0.056062
    57  H    0.121932
    58  H    0.107595
    59  H    0.103072
    60  H    0.291883
    61  H    0.064069
    62  H    0.090624
    63  H    0.101725
    64  H    0.123889
    65  H    0.084825
    66  H    0.089091
    67  H    0.083393
    68  H    0.102041
    69  H    0.079980
    70  H    0.123679
    71  H    0.127472
    72  H    0.103302
    73  H    0.122713
    74  H    0.094510
    75  H    0.125196
    76  H    0.116100
    77  H    0.069599
    78  H    0.119249
    79  H    0.089087
    80  H    0.130783
    81  H    0.090785
    82  H    0.302889
    83  H    0.317181
    84  H    0.104704
    85  H    0.101076
    86  H    0.127300
    87  H    0.110550
    88  H    0.073475
    89  H    0.114252
    90  H    0.125847
    91  H    0.113906
    92  H    0.061386
    93  H    0.071047
    94  H    0.072913
    95  H    0.067155
    96  H    0.073454
    97  H    0.082853
    98  H    0.101316
    99  H    0.102506
   100  H    0.132480
 Sum of Mulliken charges =  -0.00000

 Dipole moment (field-independent basis, Debye):
    X=              3.5964    Y=              0.1223    Z=              2.8466  Tot=              4.5883
 Quadrupole moment (field-independent basis, Debye-Ang):
   XX=           -262.2163   YY=           -257.4592   ZZ=           -281.9647
   XY=            -10.4384   XZ=             38.0019   YZ=             -2.9087

 Normal termination of Gaussian 16 at Thu Aug  1 04:59:19 2019.
