 Gaussian 16, Revision A.03,
 Gaussian 16:  ES64L-G16RevA.03 25-Dec-2016

 -------------------------------------
 # td=(NStates=1) CAM-B3LYP/6-31G(d,p)
 -------------------------------------

 --
 TD
 --
 Symbolic Z-matrix:
 Charge =  0 Multiplicity = 1

                         Standard orientation:
 ---------------------------------------------------------------------
 Center     Atomic      Atomic             Coordinates (Angstroms)
 Number     Number       Type             X           Y           Z
 ---------------------------------------------------------------------
      1          8           0      -11.716750    0.321565   -1.505786
      2          8           0      -13.116837   -2.467928    1.254462
      3          8           0       10.575022   -0.929507   -2.072971
      4          8           0       14.544983   -1.017562   -0.040850
      5          6           0      -11.041825   -0.017375   -0.267627
      6          6           0      -11.620316   -1.107171   -1.220880
      7          6           0      -11.752771    0.341220    1.044846
      8          6           0      -13.018620   -1.623630   -0.985634
      9          6           0      -13.235997   -0.017605    0.895078
     10          6           0      -13.538463   -1.347398    0.401649
     11          6           0      -10.860067   -1.913764   -2.264243
     12          6           0       -9.610418    0.272633   -0.271624
     13          6           0      -11.039794   -0.239922    2.327240
     14          6           0      -11.643773    1.833504    1.049994
     15          6           0       -8.687452   -0.666614    0.060005
     16          6           0       -7.226366   -0.589620    0.118348
     17          6           0       -6.450240   -1.715296    0.263080
     18          6           0       -6.614342    0.621289   -0.128357
     19          6           0       -5.176842    0.868033   -0.230980
     20          6           0       11.950795    0.150914    1.331925
     21          6           0       11.679409   -0.553091   -1.298015
     22          6           0       12.522356   -1.274276    1.424654
     23          6           0       13.396963   -1.841412    0.177550
     24          6           0       12.495929   -1.849402   -1.028672
     25          6           0       11.063709    0.006694    0.159342
     26          6           0       11.052122    0.321602    2.585626
     27          6           0       13.008049    1.407116    1.237967
     28          6           0       12.515744    0.475992   -2.070137
     29          6           0       -4.616482    2.176098   -0.481673
     30          6           0        9.870947    0.527647   -0.013528
     31          6           0       -3.352791    2.542484   -0.484872
     32          6           0        8.640493    0.803254   -0.255148
     33          6           0       -2.936291    3.892688   -0.998595
     34          6           0       -2.330727    1.627595    0.057649
     35          6           0        7.452389    0.038297   -0.049367
     36          6           0        7.623539   -1.394672    0.259680
     37          6           0        6.167014    0.635577   -0.117012
     38          6           0       -0.931251    1.752343   -0.238893
     39          6           0        4.943140    0.082858    0.113861
     40          6           0       -0.032277    0.823969    0.044130
     41          6           0        3.715459    0.796700    0.109595
     42          6           0        1.354494    1.147773    0.073447
     43          6           0        2.447784    0.231985    0.141261
     44          6           0        2.321131   -1.218293    0.257372
     45          1           0      -13.107278   -2.727220   -1.189819
     46          1           0      -13.702853   -1.209798   -1.735562
     47          1           0      -13.595507   -0.161619    1.910037
     48          1           0      -13.844121    0.854053    0.509143
     49          1           0      -14.718651   -1.643241    0.493730
     50          1           0      -10.771299   -2.875354   -1.790180
     51          1           0      -11.238324   -2.174381   -3.307872
     52          1           0       -9.800187   -1.499600   -2.608259
     53          1           0       -9.328818    1.255492   -0.649427
     54          1           0       -9.912707   -0.005097    2.438185
     55          1           0      -11.538146   -0.085093    3.356830
     56          1           0      -11.043238   -1.346044    2.276888
     57          1           0      -12.065974    2.344035    0.178838
     58          1           0      -11.774308    2.324970    2.139827
     59          1           0      -10.578190    2.054924    1.038646
     60          1           0      -12.129851   -2.646564    1.135932
     61          1           0       -9.133677   -1.618388    0.367589
     62          1           0       -6.068050   -2.395085   -0.513430
     63          1           0       -5.425706   -1.765150    0.950035
     64          1           0       -7.161178   -2.395473    0.839505
     65          1           0       -7.231357    1.472385   -0.110575
     66          1           0       -4.510032   -0.013185   -0.162516
     67          1           0       13.311660   -1.300741    2.190545
     68          1           0       11.879827   -2.183078    1.764453
     69          1           0       13.671513   -2.719101    0.687256
     70          1           0       12.818534   -2.106174   -1.954438
     71          1           0       11.798971   -2.660401   -0.688100
     72          1           0       11.692863    0.147836    3.449014
     73          1           0       10.500960    1.448153    2.531122
     74          1           0       10.273177   -0.345889    2.525987
     75          1           0       13.697309    1.225639    0.298524
     76          1           0       12.167697    2.212946    0.950350
     77          1           0       13.676748    1.486666    2.059789
     78          1           0       12.696399    0.042633   -3.018472
     79          1           0       12.000172    1.421102   -1.942515
     80          1           0       13.640497    0.442755   -1.830847
     81          1           0       -5.453202    2.879519   -0.892595
     82          1           0       10.041105   -0.180274   -2.309992
     83          1           0       15.011534   -1.230627    0.631534
     84          1           0        8.462659    1.968636   -0.467632
     85          1           0       -2.586810    4.480529   -0.099386
     86          1           0       -2.254492    3.728970   -1.849254
     87          1           0       -3.798890    4.510049   -1.291241
     88          1           0       -2.515004    0.471448    0.198043
     89          1           0        6.817271   -2.075058    0.191970
     90          1           0        8.483037   -1.772381   -0.247952
     91          1           0        7.809203   -1.550134    1.321309
     92          1           0        6.281910    1.763444   -0.185060
     93          1           0       -0.687936    2.634787   -0.717274
     94          1           0        4.536788   -0.972009    0.278061
     95          1           0       -0.306330   -0.220243    0.155492
     96          1           0        3.715281    1.897412   -0.049174
     97          1           0        1.530802    2.184944    0.046456
     98          1           0        1.147588   -1.515533    0.163413
     99          1           0        2.914352   -1.654336   -0.354664
    100          1           0        2.386735   -1.510947    1.434645
 ---------------------------------------------------------------------

 SCF Done:  E(RCAM-B3LYP) =  -1857.30060057     A.U. after   16 cycles

 Excitation energies and oscillator strengths:

 Excited State   1:      Singlet-A      1.7546 eV  706.61 nm  f=2.7851  <S**2>=0.000
     163 ->166        -0.12301
     164 ->165         0.70401
     164 <-165        -0.12950
 This state for optimization and/or second-order correction.
 Total Energy, E(TD-HF/TD-DFT) =  -1857.23611937
 Copying the excited state density for this state as the 1-particle RhoCI density.

 The electronic state is 1-A.
 Alpha  occ. eigenvalues --  -19.21932 -19.21342 -19.20904 -19.20866 -10.32628
 Alpha  occ. eigenvalues --  -10.32520 -10.32481 -10.31594 -10.31059 -10.28296
 Alpha  occ. eigenvalues --  -10.28055 -10.27853 -10.27566 -10.27417 -10.27200
 Alpha  occ. eigenvalues --  -10.27190 -10.27156 -10.27122 -10.27046 -10.26879
 Alpha  occ. eigenvalues --  -10.26825 -10.26808 -10.26711 -10.26677 -10.26569
 Alpha  occ. eigenvalues --  -10.26553 -10.26520 -10.26505 -10.26478 -10.26432
 Alpha  occ. eigenvalues --  -10.26342 -10.26277 -10.26012 -10.25898 -10.25861
 Alpha  occ. eigenvalues --  -10.25729 -10.25193 -10.25193 -10.25122 -10.24947
 Alpha  occ. eigenvalues --  -10.24901 -10.24687 -10.24452 -10.23761  -1.13609
 Alpha  occ. eigenvalues --   -1.13601  -1.10546  -1.07194  -0.92767  -0.92642
 Alpha  occ. eigenvalues --   -0.92334  -0.91579  -0.91057  -0.90535  -0.88077
 Alpha  occ. eigenvalues --   -0.86934  -0.86511  -0.85069  -0.84754  -0.82754
 Alpha  occ. eigenvalues --   -0.82165  -0.81061  -0.80772  -0.78784  -0.77002
 Alpha  occ. eigenvalues --   -0.76758  -0.76538  -0.76333  -0.75947  -0.75837
 Alpha  occ. eigenvalues --   -0.75110  -0.74087  -0.72671  -0.70334  -0.69872
 Alpha  occ. eigenvalues --   -0.68511  -0.67133  -0.65562  -0.64820  -0.64250
 Alpha  occ. eigenvalues --   -0.63508  -0.62704  -0.61637  -0.60044  -0.59424
 Alpha  occ. eigenvalues --   -0.59230  -0.58436  -0.58103  -0.57829  -0.56926
 Alpha  occ. eigenvalues --   -0.56268  -0.55688  -0.54842  -0.54557  -0.54009
 Alpha  occ. eigenvalues --   -0.53434  -0.52878  -0.52640  -0.52516  -0.51961
 Alpha  occ. eigenvalues --   -0.51461  -0.51156  -0.50905  -0.50717  -0.50412
 Alpha  occ. eigenvalues --   -0.50278  -0.49529  -0.49153  -0.49097  -0.49026
 Alpha  occ. eigenvalues --   -0.48206  -0.47487  -0.47284  -0.47222  -0.46869
 Alpha  occ. eigenvalues --   -0.46199  -0.46125  -0.45584  -0.45081  -0.45021
 Alpha  occ. eigenvalues --   -0.44488  -0.44161  -0.44089  -0.43819  -0.43539
 Alpha  occ. eigenvalues --   -0.43273  -0.43094  -0.42911  -0.42737  -0.42518
 Alpha  occ. eigenvalues --   -0.42124  -0.41816  -0.41628  -0.41589  -0.41293
 Alpha  occ. eigenvalues --   -0.40929  -0.40594  -0.40038  -0.40010  -0.39660
 Alpha  occ. eigenvalues --   -0.39302  -0.39125  -0.38752  -0.38609  -0.38585
 Alpha  occ. eigenvalues --   -0.38377  -0.38317  -0.38271  -0.37987  -0.36945
 Alpha  occ. eigenvalues --   -0.36561  -0.35588  -0.34682  -0.34503  -0.34007
 Alpha  occ. eigenvalues --   -0.32518  -0.32117  -0.31663  -0.31314  -0.30586
 Alpha  occ. eigenvalues --   -0.29728  -0.28129  -0.23499  -0.18425
 Alpha virt. eigenvalues --   -0.07193  -0.01581   0.03330   0.05632   0.06577
 Alpha virt. eigenvalues --    0.09342   0.10556   0.10714   0.11194   0.11618
 Alpha virt. eigenvalues --    0.12483   0.13040   0.13387   0.13731   0.14072

 Mulliken charges:
               1
     1  O   -0.512878
     2  O   -0.566676
     3  O   -0.547881
     4  O   -0.499581
     5  C    0.211554
     6  C    0.212083
     7  C    0.036540
     8  C   -0.198137
     9  C   -0.173290
    10  C    0.143264
    11  C   -0.342078
    12  C   -0.102225
    13  C   -0.323265
    14  C   -0.322193
    15  C   -0.082640
    16  C    0.139067
    17  C   -0.404125
    18  C   -0.111605
    19  C   -0.075671
    20  C    0.014587
    21  C    0.246646
    22  C   -0.213302
    23  C    0.118539
    24  C   -0.165367
    25  C   -0.062200
    26  C   -0.283786
    27  C   -0.301846
    28  C   -0.324948
    29  C   -0.127646
    30  C    0.159471
    31  C    0.088143
    32  C   -0.331493
    33  C   -0.373784
    34  C   -0.124843
    35  C    0.160803
    36  C   -0.393831
    37  C   -0.138937
    38  C   -0.078236
    39  C   -0.089921
    40  C   -0.074137
    41  C   -0.104860
    42  C   -0.131405
    43  C    0.117705
    44  C   -0.370360
    45  H    0.098622
    46  H    0.122699
    47  H    0.115821
    48  H    0.115561
    49  H    0.084366
    50  H    0.106544
    51  H    0.118866
    52  H    0.111166
    53  H    0.111806
    54  H    0.111871
    55  H    0.110862
    56  H    0.084735
    57  H    0.128412
    58  H    0.086218
    59  H    0.101576
    60  H    0.297302
    61  H    0.067687
    62  H    0.135152
    63  H    0.095611
    64  H    0.094930
    65  H    0.074543
    66  H    0.086520
    67  H    0.065516
    68  H    0.094845
    69  H    0.096096
    70  H    0.107238
    71  H    0.103393
    72  H    0.096803
    73  H    0.073061
    74  H    0.119330
    75  H    0.126408
    76  H    0.097008
    77  H    0.111584
    78  H    0.119668
    79  H    0.106183
    80  H    0.129270
    81  H    0.078433
    82  H    0.306291
    83  H    0.282263
    84  H    0.090005
    85  H    0.130996
    86  H    0.132546
    87  H    0.113943
    88  H    0.071130
    89  H    0.116362
    90  H    0.134972
    91  H    0.120076
    92  H    0.079855
    93  H    0.082352
    94  H    0.080381
    95  H    0.078094
    96  H    0.070869
    97  H    0.081874
    98  H    0.092638
    99  H    0.137845
   100  H    0.116547
 Sum of Mulliken charges =  -0.00000

 Dipole moment (field-independent basis, Debye):
    X=              4.2794    Y=             -0.8473    Z=              1.0212  Tot=              4.4804
 Quadrupole moment (field-independent basis, Debye-Ang):
   XX=           -274.4472   YY=           -258.3203   ZZ=           -275.5099
   XY=            -13.3708   XZ=             24.8813   YZ=             -4.1589

 Normal termination of Gaussian 16 at Wed Jul 31 17:49:50 2019.
