 Gaussian 16, Revision A.03,
 Gaussian 16:  ES64L-G16RevA.03 25-Dec-2016

 -------------------------------------
 # td=(NStates=1) CAM-B3LYP/6-31G(d,p)
 -------------------------------------

 --
 TD
 --
 Symbolic Z-matrix:
 Charge =  0 Multiplicity = 1

                         Standard orientation:
 ---------------------------------------------------------------------
 Center     Atomic      Atomic             Coordinates (Angstroms)
 Number     Number       Type             X           Y           Z
 ---------------------------------------------------------------------
      1          8           0      -11.586524    0.126245   -1.603183
      2          8           0      -13.049523   -2.307268    1.605926
      3          8           0       10.518523   -1.279104   -1.885867
      4          8           0       14.405912   -0.953486   -0.179865
      5          6           0      -11.075403   -0.141624   -0.262601
      6          6           0      -11.644212   -1.145764   -1.139291
      7          6           0      -11.723112    0.519529    0.914332
      8          6           0      -13.201484   -1.657811   -0.818084
      9          6           0      -13.263605    0.082791    1.044756
     10          6           0      -13.533002   -1.349546    0.679747
     11          6           0      -10.917314   -2.126989   -2.076242
     12          6           0       -9.613790    0.072170   -0.298664
     13          6           0      -11.059295    0.143071    2.258571
     14          6           0      -11.691505    2.019782    0.830078
     15          6           0       -8.723500   -0.738756    0.151244
     16          6           0       -7.186329   -0.711727    0.116365
     17          6           0       -6.443942   -2.002455    0.365029
     18          6           0       -6.626008    0.521717   -0.179485
     19          6           0       -5.244968    0.830415   -0.286772
     20          6           0       11.901112    0.127067    1.334991
     21          6           0       11.644730   -0.753876   -1.146922
     22          6           0       12.601152   -1.113233    1.606637
     23          6           0       13.326939   -1.732013    0.426437
     24          6           0       12.295737   -1.974496   -0.706850
     25          6           0       11.084088    0.025935    0.051416
     26          6           0       11.067901    0.472213    2.573284
     27          6           0       12.938228    1.337605    1.160380
     28          6           0       12.422815    0.272911   -2.018305
     29          6           0       -4.655400    2.071505   -0.489523
     30          6           0        9.902427    0.554710   -0.026698
     31          6           0       -3.325928    2.444091   -0.482038
     32          6           0        8.765180    1.073095   -0.202140
     33          6           0       -3.048612    3.920610   -0.687198
     34          6           0       -2.325818    1.548695   -0.366192
     35          6           0        7.566622    0.241469    0.004642
     36          6           0        7.773918   -1.186219    0.396196
     37          6           0        6.323276    0.810109   -0.135322
     38          6           0       -0.959370    1.798819   -0.541407
     39          6           0        5.039671    0.142043    0.082080
     40          6           0        0.059954    0.766842   -0.445782
     41          6           0        3.849383    0.832411   -0.062726
     42          6           0        1.434664    1.127078   -0.410607
     43          6           0        2.524519    0.284561   -0.135898
     44          6           0        2.372449   -1.263177    0.101323
     45          1           0      -13.356830   -2.722950   -0.948992
     46          1           0      -13.835539   -1.105419   -1.516471
     47          1           0      -13.465684    0.128285    2.093017
     48          1           0      -13.740827    0.839179    0.252454
     49          1           0      -14.710463   -1.437321    0.881155
     50          1           0      -10.608249   -3.094037   -1.619395
     51          1           0      -11.751238   -2.471525   -2.960854
     52          1           0       -9.952600   -1.677252   -2.310094
     53          1           0       -9.428632    0.982086   -0.761725
     54          1           0       -9.920825    0.384976    2.163226
     55          1           0      -11.688893    0.495144    3.253838
     56          1           0      -10.860103   -0.908801    2.464535
     57          1           0      -12.207544    2.347945   -0.298616
     58          1           0      -12.247944    2.394042    1.479232
     59          1           0      -10.710744    2.504414    0.981193
     60          1           0      -12.113538   -2.326436    1.502761
     61          1           0       -9.025155   -1.706065    0.463575
     62          1           0       -5.787856   -2.241575   -0.528719
     63          1           0       -5.804960   -1.932762    1.243070
     64          1           0       -7.165453   -2.876771    0.395535
     65          1           0       -7.208171    1.432631   -0.141766
     66          1           0       -4.520425    0.056773   -0.104042
     67          1           0       13.436956   -0.911241    2.528239
     68          1           0       11.895737   -1.877722    2.035138
     69          1           0       13.950730   -2.741753    0.756162
     70          1           0       12.901026   -2.426502   -1.597118
     71          1           0       11.471087   -2.730482   -0.482861
     72          1           0       11.697046    0.246764    3.403847
     73          1           0       10.444210    1.334824    2.398423
     74          1           0       10.288906   -0.352131    2.772236
     75          1           0       13.574640    1.294527    0.169399
     76          1           0       12.216170    2.118495    0.991319
     77          1           0       13.563820    1.356740    2.157099
     78          1           0       12.752730   -0.598551   -2.733437
     79          1           0       11.732475    0.907804   -2.624380
     80          1           0       13.112394    0.797848   -1.585311
     81          1           0       -5.339656    2.829424   -0.780410
     82          1           0        9.856741   -0.576001   -2.099774
     83          1           0       14.750227   -0.858230    0.620188
     84          1           0        8.562130    2.032874   -0.521165
     85          1           0       -2.314333    4.293910    0.192078
     86          1           0       -2.831173    4.128920   -1.665003
     87          1           0       -3.996987    4.520706   -0.430190
     88          1           0       -2.532808    0.517936   -0.242012
     89          1           0        6.879153   -1.924293    0.679113
     90          1           0        8.406574   -1.839865   -0.397922
     91          1           0        8.322093   -1.219985    1.354837
     92          1           0        6.271747    1.965430   -0.588063
     93          1           0       -0.639163    2.834357   -0.634064
     94          1           0        4.732967   -0.838572    0.321291
     95          1           0       -0.186694   -0.337582   -0.336807
     96          1           0        3.988129    2.072950   -0.243054
     97          1           0        1.931623    2.226642   -0.544063
     98          1           0        1.401568   -1.486100   -0.089906
     99          1           0        3.072925   -1.904730   -0.505742
    100          1           0        2.638572   -1.473405    1.170347
 ---------------------------------------------------------------------

 SCF Done:  E(RCAM-B3LYP) =  -1857.32391195     A.U. after   15 cycles

 Excitation energies and oscillator strengths:

 Excited State   1:      Singlet-A      2.2501 eV  551.01 nm  f=3.0232  <S**2>=0.000
     163 ->166        -0.13028
     164 ->165         0.69697
 This state for optimization and/or second-order correction.
 Total Energy, E(TD-HF/TD-DFT) =  -1857.24122080
 Copying the excited state density for this state as the 1-particle RhoCI density.

 The electronic state is 1-A.
 Alpha  occ. eigenvalues --  -19.22559 -19.21675 -19.21531 -19.20987 -10.33025
 Alpha  occ. eigenvalues --  -10.32680 -10.32008 -10.31815 -10.31179 -10.28625
 Alpha  occ. eigenvalues --  -10.28464 -10.28084 -10.28053 -10.27930 -10.27891
 Alpha  occ. eigenvalues --  -10.27848 -10.27832 -10.27781 -10.27431 -10.27374
 Alpha  occ. eigenvalues --  -10.27277 -10.26974 -10.26938 -10.26853 -10.26770
 Alpha  occ. eigenvalues --  -10.26614 -10.26501 -10.26441 -10.26410 -10.26359
 Alpha  occ. eigenvalues --  -10.26356 -10.26204 -10.26203 -10.26179 -10.26153
 Alpha  occ. eigenvalues --  -10.25817 -10.25789 -10.25788 -10.25691 -10.25338
 Alpha  occ. eigenvalues --  -10.25222 -10.25181 -10.24799 -10.24268  -1.17787
 Alpha  occ. eigenvalues --   -1.12962  -1.10441  -1.09002  -0.94401  -0.92723
 Alpha  occ. eigenvalues --   -0.92190  -0.91576  -0.90492  -0.90114  -0.87181
 Alpha  occ. eigenvalues --   -0.86988  -0.86193  -0.85051  -0.84232  -0.83101
 Alpha  occ. eigenvalues --   -0.82026  -0.80499  -0.80240  -0.78537  -0.77222
 Alpha  occ. eigenvalues --   -0.77011  -0.76772  -0.76523  -0.75755  -0.75667
 Alpha  occ. eigenvalues --   -0.75528  -0.74897  -0.73412  -0.70602  -0.69865
 Alpha  occ. eigenvalues --   -0.68745  -0.66747  -0.66029  -0.64851  -0.64634
 Alpha  occ. eigenvalues --   -0.63407  -0.61570  -0.60524  -0.60436  -0.59461
 Alpha  occ. eigenvalues --   -0.59147  -0.58450  -0.58275  -0.57338  -0.56900
 Alpha  occ. eigenvalues --   -0.56738  -0.55741  -0.55314  -0.54681  -0.54339
 Alpha  occ. eigenvalues --   -0.53439  -0.53279  -0.52725  -0.52519  -0.52048
 Alpha  occ. eigenvalues --   -0.51768  -0.51318  -0.50989  -0.50648  -0.49950
 Alpha  occ. eigenvalues --   -0.49588  -0.49468  -0.49191  -0.48811  -0.48040
 Alpha  occ. eigenvalues --   -0.47954  -0.47597  -0.47578  -0.47363  -0.46996
 Alpha  occ. eigenvalues --   -0.46795  -0.46756  -0.46140  -0.46032  -0.45733
 Alpha  occ. eigenvalues --   -0.45316  -0.44859  -0.44796  -0.44426  -0.44238
 Alpha  occ. eigenvalues --   -0.43611  -0.43003  -0.42761  -0.42538  -0.42482
 Alpha  occ. eigenvalues --   -0.42270  -0.41696  -0.41618  -0.41449  -0.40887
 Alpha  occ. eigenvalues --   -0.40758  -0.40396  -0.40385  -0.40323  -0.40212
 Alpha  occ. eigenvalues --   -0.39852  -0.39341  -0.39228  -0.39086  -0.38685
 Alpha  occ. eigenvalues --   -0.38605  -0.38459  -0.38389  -0.38112  -0.37936
 Alpha  occ. eigenvalues --   -0.37391  -0.36274  -0.35659  -0.34893  -0.33625
 Alpha  occ. eigenvalues --   -0.33088  -0.32938  -0.32359  -0.31721  -0.31179
 Alpha  occ. eigenvalues --   -0.29588  -0.28412  -0.24825  -0.19817
 Alpha virt. eigenvalues --   -0.05913  -0.00235   0.03646   0.06799   0.07626
 Alpha virt. eigenvalues --    0.09461   0.09982   0.10491   0.11940   0.12287
 Alpha virt. eigenvalues --    0.12443   0.12705   0.13125   0.13299   0.13605

 Mulliken charges:
               1
     1  O   -0.481721
     2  O   -0.536297
     3  O   -0.582391
     4  O   -0.507159
     5  C    0.183905
     6  C    0.234059
     7  C    0.002761
     8  C   -0.218098
     9  C   -0.172236
    10  C    0.140633
    11  C   -0.323300
    12  C   -0.083907
    13  C   -0.321271
    14  C   -0.278121
    15  C   -0.077394
    16  C    0.070593
    17  C   -0.378423
    18  C   -0.107590
    19  C   -0.068376
    20  C    0.022522
    21  C    0.258533
    22  C   -0.188846
    23  C    0.102871
    24  C   -0.188707
    25  C   -0.094325
    26  C   -0.302356
    27  C   -0.294536
    28  C   -0.258586
    29  C   -0.128947
    30  C    0.208310
    31  C    0.110427
    32  C   -0.300937
    33  C   -0.376818
    34  C   -0.101173
    35  C    0.119573
    36  C   -0.379131
    37  C   -0.135126
    38  C   -0.090238
    39  C   -0.073458
    40  C   -0.119755
    41  C   -0.113614
    42  C   -0.106532
    43  C    0.087555
    44  C   -0.368512
    45  H    0.106879
    46  H    0.118925
    47  H    0.106424
    48  H    0.096309
    49  H    0.079020
    50  H    0.098761
    51  H    0.096482
    52  H    0.124515
    53  H    0.109849
    54  H    0.103424
    55  H    0.098688
    56  H    0.092186
    57  H    0.079974
    58  H    0.119773
    59  H    0.099660
    60  H    0.299466
    61  H    0.061376
    62  H    0.127492
    63  H    0.138282
    64  H    0.109997
    65  H    0.087261
    66  H    0.068634
    67  H    0.049946
    68  H    0.111715
    69  H    0.068293
    70  H    0.106904
    71  H    0.126258
    72  H    0.107265
    73  H    0.120118
    74  H    0.090301
    75  H    0.117090
    76  H    0.108181
    77  H    0.085591
    78  H    0.100463
    79  H    0.092580
    80  H    0.122204
    81  H    0.072459
    82  H    0.307858
    83  H    0.294139
    84  H    0.104598
    85  H    0.109770
    86  H    0.144375
    87  H    0.103283
    88  H    0.076071
    89  H    0.095623
    90  H    0.122367
    91  H    0.120774
    92  H    0.074053
    93  H    0.092067
    94  H    0.083377
    95  H    0.096485
    96  H    0.050966
    97  H    0.080651
    98  H    0.110589
    99  H    0.122333
   100  H    0.124018
 Sum of Mulliken charges =  -0.00000

 Dipole moment (field-independent basis, Debye):
    X=              2.0298    Y=              0.0276    Z=              2.3246  Tot=              3.0862
 Quadrupole moment (field-independent basis, Debye-Ang):
   XX=           -301.8999   YY=           -260.4438   ZZ=           -278.7344
   XY=             -1.7110   XZ=             26.5223   YZ=             -3.7162

 Normal termination of Gaussian 16 at Mon Jul 29 14:43:36 2019.
