 Gaussian 16, Revision A.03,
 Gaussian 16:  ES64L-G16RevA.03 25-Dec-2016

 -------------------------------------
 # td=(NStates=1) CAM-B3LYP/6-31G(d,p)
 -------------------------------------

 --
 TD
 --
 Symbolic Z-matrix:
 Charge =  0 Multiplicity = 1

                         Standard orientation:
 ---------------------------------------------------------------------
 Center     Atomic      Atomic             Coordinates (Angstroms)
 Number     Number       Type             X           Y           Z
 ---------------------------------------------------------------------
      1          8           0      -11.526496    0.015362   -1.632069
      2          8           0      -13.097476   -2.351055    1.588380
      3          8           0       10.452620   -1.132352   -2.049664
      4          8           0       14.359601   -1.062085   -0.213158
      5          6           0      -10.950738   -0.224209   -0.387520
      6          6           0      -11.598167   -1.325131   -1.164925
      7          6           0      -11.755662    0.405784    0.843104
      8          6           0      -13.067213   -1.926778   -0.934010
      9          6           0      -13.228685   -0.021063    0.761001
     10          6           0      -13.484076   -1.495003    0.481857
     11          6           0      -10.891262   -2.265697   -2.098066
     12          6           0       -9.507315   -0.039272   -0.424570
     13          6           0      -11.164611   -0.105709    2.242016
     14          6           0      -11.635385    1.926928    0.867172
     15          6           0       -8.587519   -0.767241    0.165413
     16          6           0       -7.141416   -0.486495    0.258313
     17          6           0       -6.142903   -1.613193    0.709114
     18          6           0       -6.621147    0.788864   -0.072721
     19          6           0       -5.225810    1.128227   -0.286766
     20          6           0       11.836873   -0.001308    1.319881
     21          6           0       11.520830   -0.659409   -1.241391
     22          6           0       12.549152   -1.331508    1.480195
     23          6           0       13.185616   -1.879581    0.265449
     24          6           0       12.231721   -1.966657   -0.834195
     25          6           0       11.063409    0.035448    0.018935
     26          6           0       11.019268    0.192232    2.596894
     27          6           0       12.872720    1.130332    1.314312
     28          6           0       12.436595    0.232638   -2.080219
     29          6           0       -4.677014    2.283393   -0.581047
     30          6           0        9.873644    0.544830    0.021103
     31          6           0       -3.303576    2.673875   -0.481414
     32          6           0        8.654448    0.961112   -0.226585
     33          6           0       -2.951493    4.087301   -0.673343
     34          6           0       -2.302513    1.749105   -0.191950
     35          6           0        7.392011    0.173581    0.043467
     36          6           0        7.712951   -1.305085    0.305724
     37          6           0        6.249189    0.810075   -0.087883
     38          6           0       -0.834165    2.013323   -0.304163
     39          6           0        4.943761    0.203673    0.054377
     40          6           0        0.052289    1.010694   -0.082270
     41          6           0        3.746583    0.887853   -0.106018
     42          6           0        1.432465    1.310127   -0.059119
     43          6           0        2.548506    0.371388    0.018953
     44          6           0        2.220836   -1.065818    0.328819
     45          1           0      -13.096611   -2.975383   -1.065967
     46          1           0      -13.768966   -1.289902   -1.604280
     47          1           0      -13.764521    0.150497    1.581036
     48          1           0      -13.768043    0.548106   -0.024506
     49          1           0      -14.594306   -1.728253    0.386736
     50          1           0      -10.668844   -3.235158   -1.632215
     51          1           0      -11.461049   -2.647528   -2.850138
     52          1           0      -10.078886   -1.553385   -2.503890
     53          1           0       -9.225564    0.656024   -1.194066
     54          1           0       -9.998027    0.047298    2.140874
     55          1           0      -11.590458    0.469226    2.988435
     56          1           0      -11.350300   -1.153372    2.520419
     57          1           0      -11.600429    2.386503   -0.200255
     58          1           0      -12.549576    2.380572    1.579536
     59          1           0      -10.592278    2.142370    1.445952
     60          1           0      -12.207437   -2.722813    1.410790
     61          1           0       -8.870833   -1.714866    0.594878
     62          1           0       -5.656721   -2.064536   -0.314931
     63          1           0       -5.361780   -0.964670    1.216629
     64          1           0       -6.714606   -2.447708    1.131258
     65          1           0       -7.418694    1.425044   -0.276003
     66          1           0       -4.661685    0.127310   -0.087310
     67          1           0       13.452649   -1.148060    2.170840
     68          1           0       11.699481   -1.965211    1.782814
     69          1           0       13.814750   -2.792629    0.395559
     70          1           0       12.586249   -2.444330   -1.800903
     71          1           0       11.454783   -2.629251   -0.453161
     72          1           0       11.792346    0.251351    3.481547
     73          1           0       10.488629    1.089795    2.444427
     74          1           0       10.288516   -0.531675    2.585332
     75          1           0       13.630574    1.068512    0.375108
     76          1           0       12.367344    2.205677    1.331666
     77          1           0       13.565226    1.137390    2.233709
     78          1           0       12.482831   -0.331068   -3.187489
     79          1           0       12.071899    1.224208   -2.414465
     80          1           0       13.493493    0.383620   -1.523198
     81          1           0       -5.415932    3.057769   -0.969845
     82          1           0        9.867901   -0.464166   -2.293396
     83          1           0       15.019546   -1.045290    0.522997
     84          1           0        8.451856    2.081628   -0.582740
     85          1           0       -2.496376    4.526619    0.188883
     86          1           0       -2.408463    4.120722   -1.649208
     87          1           0       -3.639323    4.736742   -0.906034
     88          1           0       -2.382161    0.702474    0.003967
     89          1           0        6.924772   -2.019864   -0.164098
     90          1           0        8.587232   -1.674656   -0.294324
     91          1           0        7.873639   -1.492016    1.423593
     92          1           0        6.425515    2.030617   -0.299500
     93          1           0       -0.315593    2.891176   -0.447267
     94          1           0        5.002838   -0.883615   -0.103098
     95          1           0       -0.238015   -0.007364   -0.080371
     96          1           0        3.989112    1.997493   -0.078479
     97          1           0        1.613887    2.443049   -0.482854
     98          1           0        1.157445   -1.399421    0.587681
     99          1           0        2.647095   -2.024079   -0.532007
    100          1           0        2.806685   -1.340227    1.275878
 ---------------------------------------------------------------------

 SCF Done:  E(RCAM-B3LYP) =  -1857.33154909     A.U. after   15 cycles

 Excitation energies and oscillator strengths:

 Excited State   1:      Singlet-A      2.2999 eV  539.08 nm  f=2.9435  <S**2>=0.000
     163 ->166        -0.14641
     164 ->165         0.68772
 This state for optimization and/or second-order correction.
 Total Energy, E(TD-HF/TD-DFT) =  -1857.24702814
 Copying the excited state density for this state as the 1-particle RhoCI density.

 The electronic state is 1-A.
 Alpha  occ. eigenvalues --  -19.22552 -19.21571 -19.21125 -19.20764 -10.32343
 Alpha  occ. eigenvalues --  -10.32187 -10.32155 -10.30845 -10.30695 -10.29076
 Alpha  occ. eigenvalues --  -10.28359 -10.28106 -10.28025 -10.27911 -10.27833
 Alpha  occ. eigenvalues --  -10.27797 -10.27659 -10.27656 -10.27510 -10.27272
 Alpha  occ. eigenvalues --  -10.26978 -10.26861 -10.26851 -10.26800 -10.26692
 Alpha  occ. eigenvalues --  -10.26669 -10.26576 -10.26554 -10.26289 -10.26178
 Alpha  occ. eigenvalues --  -10.26169 -10.26115 -10.26032 -10.25968 -10.25880
 Alpha  occ. eigenvalues --  -10.25792 -10.25696 -10.25464 -10.25048 -10.24984
 Alpha  occ. eigenvalues --  -10.24447 -10.24375 -10.24265 -10.24042  -1.17317
 Alpha  occ. eigenvalues --   -1.10703  -1.08482  -1.07516  -0.94303  -0.92457
 Alpha  occ. eigenvalues --   -0.91915  -0.90953  -0.90235  -0.89682  -0.88056
 Alpha  occ. eigenvalues --   -0.86984  -0.86722  -0.85965  -0.85495  -0.82780
 Alpha  occ. eigenvalues --   -0.82300  -0.81374  -0.79901  -0.78076  -0.76509
 Alpha  occ. eigenvalues --   -0.76375  -0.76146  -0.75817  -0.75547  -0.74640
 Alpha  occ. eigenvalues --   -0.74577  -0.74092  -0.72864  -0.70283  -0.69696
 Alpha  occ. eigenvalues --   -0.69011  -0.66701  -0.65483  -0.64927  -0.64539
 Alpha  occ. eigenvalues --   -0.63597  -0.62189  -0.60890  -0.59673  -0.59512
 Alpha  occ. eigenvalues --   -0.59317  -0.58287  -0.57904  -0.56922  -0.56376
 Alpha  occ. eigenvalues --   -0.56001  -0.54900  -0.54813  -0.54528  -0.54412
 Alpha  occ. eigenvalues --   -0.53878  -0.53427  -0.52952  -0.52332  -0.51859
 Alpha  occ. eigenvalues --   -0.51756  -0.50799  -0.50668  -0.50038  -0.50004
 Alpha  occ. eigenvalues --   -0.49625  -0.48987  -0.48769  -0.48329  -0.48127
 Alpha  occ. eigenvalues --   -0.47612  -0.47230  -0.47005  -0.46705  -0.46333
 Alpha  occ. eigenvalues --   -0.46118  -0.45975  -0.45745  -0.45502  -0.45082
 Alpha  occ. eigenvalues --   -0.44541  -0.44166  -0.43925  -0.43727  -0.43562
 Alpha  occ. eigenvalues --   -0.43067  -0.42988  -0.42878  -0.42571  -0.42178
 Alpha  occ. eigenvalues --   -0.42061  -0.41789  -0.41463  -0.41250  -0.40903
 Alpha  occ. eigenvalues --   -0.40799  -0.40573  -0.40419  -0.40173  -0.39802
 Alpha  occ. eigenvalues --   -0.39681  -0.39585  -0.39047  -0.38966  -0.38502
 Alpha  occ. eigenvalues --   -0.38446  -0.37970  -0.37835  -0.37308  -0.36980
 Alpha  occ. eigenvalues --   -0.36509  -0.35917  -0.34963  -0.34524  -0.33804
 Alpha  occ. eigenvalues --   -0.33349  -0.32665  -0.31882  -0.31190  -0.30782
 Alpha  occ. eigenvalues --   -0.29645  -0.28523  -0.24539  -0.19971
 Alpha virt. eigenvalues --   -0.05674  -0.01146   0.03828   0.06087   0.06482
 Alpha virt. eigenvalues --    0.09088   0.09852   0.10439   0.10609   0.12408
 Alpha virt. eigenvalues --    0.12618   0.13030   0.13350   0.13609   0.13709

 Mulliken charges:
               1
     1  O   -0.497669
     2  O   -0.551010
     3  O   -0.556864
     4  O   -0.574918
     5  C    0.211006
     6  C    0.213928
     7  C    0.042115
     8  C   -0.218927
     9  C   -0.170807
    10  C    0.140288
    11  C   -0.331374
    12  C   -0.120901
    13  C   -0.316595
    14  C   -0.300540
    15  C   -0.062735
    16  C    0.048862
    17  C   -0.362505
    18  C   -0.103327
    19  C   -0.055004
    20  C   -0.014816
    21  C    0.261494
    22  C   -0.165203
    23  C    0.150235
    24  C   -0.188600
    25  C   -0.022822
    26  C   -0.279809
    27  C   -0.293462
    28  C   -0.309000
    29  C   -0.129496
    30  C    0.136691
    31  C    0.086799
    32  C   -0.309991
    33  C   -0.365154
    34  C   -0.130192
    35  C    0.148120
    36  C   -0.387911
    37  C   -0.117305
    38  C   -0.074980
    39  C   -0.129807
    40  C   -0.056633
    41  C   -0.101291
    42  C   -0.156143
    43  C    0.137246
    44  C   -0.358342
    45  H    0.107303
    46  H    0.124207
    47  H    0.112058
    48  H    0.097315
    49  H    0.083569
    50  H    0.095049
    51  H    0.125916
    52  H    0.111649
    53  H    0.115843
    54  H    0.090813
    55  H    0.113193
    56  H    0.097830
    57  H    0.113452
    58  H    0.085624
    59  H    0.091657
    60  H    0.300865
    61  H    0.075626
    62  H    0.105054
    63  H    0.134608
    64  H    0.115277
    65  H    0.071888
    66  H    0.075335
    67  H    0.074465
    68  H    0.106641
    69  H    0.095012
    70  H    0.113615
    71  H    0.114594
    72  H    0.094078
    73  H    0.115974
    74  H    0.104848
    75  H    0.106404
    76  H    0.084804
    77  H    0.077279
    78  H    0.079395
    79  H    0.095787
    80  H    0.141542
    81  H    0.085942
    82  H    0.299234
    83  H    0.300412
    84  H    0.093772
    85  H    0.132926
    86  H    0.121961
    87  H    0.117311
    88  H    0.086741
    89  H    0.100274
    90  H    0.138776
    91  H    0.119347
    92  H    0.062820
    93  H    0.078989
    94  H    0.090115
    95  H    0.084284
    96  H    0.091010
    97  H    0.075195
    98  H    0.118557
    99  H    0.069747
   100  H    0.121361
 Sum of Mulliken charges =  -0.00000

 Dipole moment (field-independent basis, Debye):
    X=              0.6723    Y=             -0.9198    Z=              1.0394  Tot=              1.5422
 Quadrupole moment (field-independent basis, Debye-Ang):
   XX=           -275.3256   YY=           -255.0884   ZZ=           -280.0018
   XY=              2.7163   XZ=             36.1167   YZ=             -3.6608

 Normal termination of Gaussian 16 at Wed Jul 31 06:33:57 2019.
