 Gaussian 16, Revision A.03,
 Gaussian 16:  ES64L-G16RevA.03 25-Dec-2016

 -------------------------------------
 # td=(NStates=1) CAM-B3LYP/6-31G(d,p)
 -------------------------------------

 --
 TD
 --
 Symbolic Z-matrix:
 Charge =  0 Multiplicity = 1

                         Standard orientation:
 ---------------------------------------------------------------------
 Center     Atomic      Atomic             Coordinates (Angstroms)
 Number     Number       Type             X           Y           Z
 ---------------------------------------------------------------------
      1          8           0       11.711991    0.309480    1.464465
      2          8           0       12.931649   -2.518374   -1.347083
      3          8           0      -10.687566   -0.910484    2.251093
      4          8           0      -14.460970   -0.927798    0.268216
      5          6           0       11.039950   -0.138397    0.387590
      6          6           0       11.731293   -1.140706    1.310059
      7          6           0       11.725191    0.346463   -0.929964
      8          6           0       13.163887   -1.680091    1.007864
      9          6           0       13.212482   -0.099745   -0.959135
     10          6           0       13.568414   -1.399348   -0.509446
     11          6           0       10.898210   -1.843454    2.354698
     12          6           0        9.526056    0.033435    0.447667
     13          6           0       11.025107   -0.145379   -2.296096
     14          6           0       11.687138    1.875944   -0.980960
     15          6           0        8.592457   -0.730083   -0.169157
     16          6           0        7.170748   -0.677757   -0.073067
     17          6           0        6.388904   -1.849115   -0.474765
     18          6           0        6.558194    0.596524    0.177013
     19          6           0        5.284786    0.988728    0.240887
     20          6           0      -11.865486    0.011045   -1.332999
     21          6           0      -11.686485   -0.533669    1.270566
     22          6           0      -12.643889   -1.277547   -1.435082
     23          6           0      -13.384348   -1.795128   -0.094787
     24          6           0      -12.369587   -1.854392    1.065343
     25          6           0      -11.069162   -0.041977   -0.078006
     26          6           0      -11.018951    0.086550   -2.446992
     27          6           0      -12.800197    1.291372   -1.271757
     28          6           0      -12.552043    0.471348    1.967413
     29          6           0        4.763421    2.221741    0.516980
     30          6           0       -9.900412    0.499273   -0.000825
     31          6           0        3.383098    2.518078    0.470239
     32          6           0       -8.649424    0.860280    0.068052
     33          6           0        3.074103    3.893219    0.792219
     34          6           0        2.342516    1.646221    0.215258
     35          6           0       -7.523778    0.142402   -0.128457
     36          6           0       -7.779924   -1.362640   -0.360440
     37          6           0       -6.203127    0.656118    0.154969
     38          6           0        0.926835    2.027531    0.104465
     39          6           0       -4.942822    0.135188   -0.037586
     40          6           0       -0.081735    0.985009   -0.049547
     41          6           0       -3.752831    0.785067   -0.140239
     42          6           0       -1.379036    1.223567   -0.121402
     43          6           0       -2.485854    0.322103   -0.234526
     44          6           0       -2.301938   -1.173759   -0.454760
     45          1           0       13.111086   -2.692671    1.124810
     46          1           0       13.824554   -1.550358    1.983944
     47          1           0       13.790843    0.085037   -1.999220
     48          1           0       13.522824    0.496248    0.014195
     49          1           0       14.544048   -1.664280   -0.687670
     50          1           0       11.043220   -2.959011    2.113391
     51          1           0       11.281450   -1.611341    3.515278
     52          1           0        9.832172   -1.463461    2.329790
     53          1           0        9.446896    1.026223    0.979812
     54          1           0        9.830357    0.003939   -2.318234
     55          1           0       11.490570    0.578503   -3.011961
     56          1           0       11.459362   -1.294599   -2.501005
     57          1           0       12.187113    2.235781    0.045942
     58          1           0       12.093448    2.486145   -1.952389
     59          1           0       10.701056    2.186486   -0.990744
     60          1           0       12.040229   -2.815070   -0.937940
     61          1           0        9.066063   -1.765038   -0.632641
     62          1           0        5.449250   -1.773954    0.197982
     63          1           0        5.991276   -1.686404   -1.504228
     64          1           0        7.100977   -2.667069   -0.349444
     65          1           0        7.352755    1.368515    0.165960
     66          1           0        4.750653    0.030729   -0.209115
     67          1           0      -13.588375   -1.162912   -2.290586
     68          1           0      -12.068155   -2.194617   -1.817830
     69          1           0      -13.881865   -2.765230   -0.512023
     70          1           0      -12.642143   -2.234375    2.115936
     71          1           0      -11.605748   -2.732781    0.495675
     72          1           0      -11.573626    0.074365   -3.486220
     73          1           0      -10.385577    1.036933   -2.292292
     74          1           0      -10.281566   -0.554644   -2.497115
     75          1           0      -13.426633    1.126484   -0.441096
     76          1           0      -12.220932    2.117517   -1.092582
     77          1           0      -13.134192    1.539090   -2.315083
     78          1           0      -12.871071   -0.046245    2.894112
     79          1           0      -11.990454    1.277124    2.402411
     80          1           0      -13.316915    0.993707    1.370228
     81          1           0        5.455652    3.066767    0.642162
     82          1           0      -10.092428   -0.192116    2.434117
     83          1           0      -14.960042   -0.998505   -0.526188
     84          1           0       -8.354944    1.830076    0.629167
     85          1           0        2.417294    4.344374    0.080872
     86          1           0        2.584104    3.833654    1.920860
     87          1           0        3.904744    4.405321    0.655745
     88          1           0        2.581269    0.582325    0.005515
     89          1           0       -6.976631   -2.030311   -0.252296
     90          1           0       -8.378069   -1.938365    0.282226
     91          1           0       -8.346676   -1.684560   -1.314158
     92          1           0       -6.053003    1.696706    0.371170
     93          1           0        0.579794    3.044480   -0.036053
     94          1           0       -4.879253   -0.932259   -0.115597
     95          1           0        0.188973   -0.113021   -0.243212
     96          1           0       -3.917266    1.868855   -0.081272
     97          1           0       -1.732765    2.312499    0.107878
     98          1           0       -1.316172   -1.569459   -0.423223
     99          1           0       -2.943426   -1.815897    0.367600
    100          1           0       -2.675501   -1.606050   -1.336604
 ---------------------------------------------------------------------

 SCF Done:  E(RCAM-B3LYP) =  -1857.25073980     A.U. after   16 cycles

 Excitation energies and oscillator strengths:

 Excited State   1:      Singlet-A      1.7810 eV  696.13 nm  f=3.2894  <S**2>=0.000
     163 ->166        -0.12633
     164 ->165         0.70250
     164 <-165        -0.12668
 This state for optimization and/or second-order correction.
 Total Energy, E(TD-HF/TD-DFT) =  -1857.18528755
 Copying the excited state density for this state as the 1-particle RhoCI density.

 The electronic state is 1-A.
 Alpha  occ. eigenvalues --  -19.22726 -19.21722 -19.20970 -19.20631 -10.32959
 Alpha  occ. eigenvalues --  -10.32676 -10.32571 -10.32368 -10.30965 -10.28724
 Alpha  occ. eigenvalues --  -10.28535 -10.28311 -10.28161 -10.28129 -10.28046
 Alpha  occ. eigenvalues --  -10.27906 -10.27827 -10.27731 -10.27430 -10.27297
 Alpha  occ. eigenvalues --  -10.27167 -10.27118 -10.27069 -10.26954 -10.26952
 Alpha  occ. eigenvalues --  -10.26939 -10.26775 -10.26650 -10.26630 -10.26555
 Alpha  occ. eigenvalues --  -10.26529 -10.26482 -10.26247 -10.26146 -10.26042
 Alpha  occ. eigenvalues --  -10.25929 -10.25564 -10.25523 -10.25376 -10.24756
 Alpha  occ. eigenvalues --  -10.24600 -10.24124 -10.23966 -10.23729  -1.17889
 Alpha  occ. eigenvalues --   -1.11103  -1.09315  -1.05412  -0.95021  -0.93102
 Alpha  occ. eigenvalues --   -0.92547  -0.91576  -0.91059  -0.89998  -0.87966
 Alpha  occ. eigenvalues --   -0.87096  -0.86836  -0.86054  -0.84730  -0.83543
 Alpha  occ. eigenvalues --   -0.82718  -0.81276  -0.80507  -0.79126  -0.77701
 Alpha  occ. eigenvalues --   -0.77399  -0.76980  -0.76821  -0.76463  -0.75532
 Alpha  occ. eigenvalues --   -0.74259  -0.73272  -0.73099  -0.70668  -0.70084
 Alpha  occ. eigenvalues --   -0.68866  -0.66933  -0.65572  -0.65341  -0.64368
 Alpha  occ. eigenvalues --   -0.63600  -0.61358  -0.61229  -0.60673  -0.59275
 Alpha  occ. eigenvalues --   -0.59064  -0.58950  -0.57608  -0.57417  -0.56886
 Alpha  occ. eigenvalues --   -0.56249  -0.55674  -0.55277  -0.55101  -0.54563
 Alpha  occ. eigenvalues --   -0.53263  -0.52942  -0.52787  -0.52315  -0.52074
 Alpha  occ. eigenvalues --   -0.51797  -0.51389  -0.50757  -0.50540  -0.50411
 Alpha  occ. eigenvalues --   -0.49676  -0.49205  -0.49141  -0.48834  -0.48231
 Alpha  occ. eigenvalues --   -0.47467  -0.47212  -0.46987  -0.46575  -0.46309
 Alpha  occ. eigenvalues --   -0.46019  -0.45930  -0.45416  -0.45356  -0.45153
 Alpha  occ. eigenvalues --   -0.44978  -0.44926  -0.44684  -0.44209  -0.43994
 Alpha  occ. eigenvalues --   -0.43879  -0.43689  -0.43181  -0.42822  -0.42683
 Alpha  occ. eigenvalues --   -0.42361  -0.42024  -0.41503  -0.41392  -0.41373
 Alpha  occ. eigenvalues --   -0.40964  -0.40766  -0.40455  -0.40133  -0.39595
 Alpha  occ. eigenvalues --   -0.39568  -0.39335  -0.38925  -0.38876  -0.38602
 Alpha  occ. eigenvalues --   -0.38323  -0.37799  -0.37679  -0.37563  -0.36986
 Alpha  occ. eigenvalues --   -0.36753  -0.35607  -0.35261  -0.34999  -0.33877
 Alpha  occ. eigenvalues --   -0.33275  -0.32138  -0.32040  -0.31757  -0.31410
 Alpha  occ. eigenvalues --   -0.30078  -0.27731  -0.23974  -0.18590
 Alpha virt. eigenvalues --   -0.07607  -0.02330   0.02422   0.05895   0.06503
 Alpha virt. eigenvalues --    0.08729   0.09563   0.10430   0.11114   0.11766
 Alpha virt. eigenvalues --    0.12444   0.12651   0.12757   0.13119   0.13468

 Mulliken charges:
               1
     1  O   -0.488495
     2  O   -0.585100
     3  O   -0.570896
     4  O   -0.522055
     5  C    0.199988
     6  C    0.212309
     7  C    0.032467
     8  C   -0.245504
     9  C   -0.178764
    10  C    0.180052
    11  C   -0.322150
    12  C   -0.104190
    13  C   -0.315232
    14  C   -0.305349
    15  C   -0.101563
    16  C    0.068320
    17  C   -0.365131
    18  C   -0.099831
    19  C   -0.046216
    20  C    0.045219
    21  C    0.246501
    22  C   -0.190902
    23  C    0.127268
    24  C   -0.145404
    25  C   -0.068567
    26  C   -0.300772
    27  C   -0.303985
    28  C   -0.286572
    29  C   -0.140378
    30  C    0.169001
    31  C    0.096500
    32  C   -0.311632
    33  C   -0.349931
    34  C   -0.113242
    35  C    0.166315
    36  C   -0.399984
    37  C   -0.145240
    38  C   -0.112125
    39  C   -0.067337
    40  C   -0.077428
    41  C   -0.116786
    42  C   -0.118082
    43  C    0.134973
    44  C   -0.384919
    45  H    0.116545
    46  H    0.110882
    47  H    0.095599
    48  H    0.115118
    49  H    0.117918
    50  H    0.095693
    51  H    0.098475
    52  H    0.130917
    53  H    0.114753
    54  H    0.090756
    55  H    0.096195
    56  H    0.103688
    57  H    0.101853
    58  H    0.089145
    59  H    0.109863
    60  H    0.300763
    61  H    0.071872
    62  H    0.119334
    63  H    0.138349
    64  H    0.114747
    65  H    0.070472
    66  H    0.069027
    67  H    0.043346
    68  H    0.099745
    69  H    0.074865
    70  H    0.117105
    71  H    0.068448
    72  H    0.082088
    73  H    0.092352
    74  H    0.115053
    75  H    0.126003
    76  H    0.113150
    77  H    0.095183
    78  H    0.114611
    79  H    0.093106
    80  H    0.123368
    81  H    0.096416
    82  H    0.300620
    83  H    0.302250
    84  H    0.094939
    85  H    0.115986
    86  H    0.113984
    87  H    0.107310
    88  H    0.080479
    89  H    0.109075
    90  H    0.141475
    91  H    0.101715
    92  H    0.071893
    93  H    0.101446
    94  H    0.068559
    95  H    0.081941
    96  H    0.069941
    97  H    0.073293
    98  H    0.111304
    99  H    0.094923
   100  H    0.136915
 Sum of Mulliken charges =  -0.00000

 Dipole moment (field-independent basis, Debye):
    X=             -1.4362    Y=             -0.4231    Z=             -0.9550  Tot=              1.7759
 Quadrupole moment (field-independent basis, Debye-Ang):
   XX=           -278.2718   YY=           -259.2129   ZZ=           -279.2122
   XY=             -2.3740   XZ=             34.5705   YZ=              0.5971

 Normal termination of Gaussian 16 at Wed Jul 31 18:09:29 2019.
