 Gaussian 16, Revision A.03,
 Gaussian 16:  ES64L-G16RevA.03 25-Dec-2016

 -------------------------------------
 # td=(NStates=1) CAM-B3LYP/6-31G(d,p)
 -------------------------------------

 --
 TD
 --
 Symbolic Z-matrix:
 Charge =  0 Multiplicity = 1

                         Standard orientation:
 ---------------------------------------------------------------------
 Center     Atomic      Atomic             Coordinates (Angstroms)
 Number     Number       Type             X           Y           Z
 ---------------------------------------------------------------------
      1          8           0      -11.701629    0.201694   -1.613881
      2          8           0      -13.199524   -2.350180    1.461221
      3          8           0       10.735484   -1.029106   -2.042117
      4          8           0       14.548147   -0.894751   -0.064910
      5          6           0      -10.933036   -0.085098   -0.394612
      6          6           0      -11.618779   -1.127430   -1.210896
      7          6           0      -11.746499    0.389592    0.890525
      8          6           0      -13.041714   -1.660160   -0.947862
      9          6           0      -13.318031    0.108696    0.881752
     10          6           0      -13.613162   -1.347519    0.528539
     11          6           0      -10.891227   -2.107613   -2.108133
     12          6           0       -9.444684    0.069386   -0.430415
     13          6           0      -11.080717   -0.055722    2.235805
     14          6           0      -11.666223    2.039509    0.768339
     15          6           0       -8.592562   -0.922204    0.028512
     16          6           0       -7.160392   -0.717632    0.125344
     17          6           0       -6.353801   -1.860271    0.621219
     18          6           0       -6.634122    0.566201   -0.083532
     19          6           0       -5.259860    0.926378   -0.108839
     20          6           0       11.927592    0.064789    1.228513
     21          6           0       11.727199   -0.625848   -1.239594
     22          6           0       12.763303   -1.263994    1.458738
     23          6           0       13.445947   -1.703957    0.225711
     24          6           0       12.521251   -1.844477   -0.884203
     25          6           0       11.088889   -0.039697   -0.036684
     26          6           0       10.956682    0.409081    2.474447
     27          6           0       12.884484    1.317302    1.207073
     28          6           0       12.515119    0.487073   -2.000731
     29          6           0       -4.761155    2.065838   -0.324641
     30          6           0        9.861660    0.425201    0.033416
     31          6           0       -3.369959    2.439957   -0.502295
     32          6           0        8.590270    0.911690   -0.132171
     33          6           0       -3.020017    3.976431   -0.619856
     34          6           0       -2.383012    1.490037   -0.305721
     35          6           0        7.480013    0.051904   -0.001863
     36          6           0        7.571359   -1.356158    0.335829
     37          6           0        6.166374    0.654686   -0.094934
     38          6           0       -0.994531    1.908493   -0.304226
     39          6           0        4.928882    0.014325    0.021311
     40          6           0       -0.007012    0.891015   -0.132782
     41          6           0        3.753188    0.741024   -0.106995
     42          6           0        1.375212    1.145034   -0.062858
     43          6           0        2.397355    0.250875   -0.023770
     44          6           0        2.264416   -1.224261    0.324672
     45          1           0      -12.961398   -2.708093   -1.135567
     46          1           0      -13.707499   -1.231673   -1.482449
     47          1           0      -13.460079    0.510909    2.114392
     48          1           0      -13.807188    0.661290    0.102170
     49          1           0      -14.827340   -1.430849    0.417020
     50          1           0      -10.564308   -3.061051   -1.692265
     51          1           0      -11.500690   -2.111479   -3.156909
     52          1           0      -10.004389   -1.476493   -2.434216
     53          1           0       -9.050379    1.129582   -0.518739
     54          1           0      -10.073765    0.261301    2.124623
     55          1           0      -11.625093    0.452956    2.833986
     56          1           0      -11.174791   -1.191334    2.467255
     57          1           0      -11.902097    2.216398   -0.271889
     58          1           0      -12.492769    2.417666    1.558386
     59          1           0      -10.593280    2.153612    0.932895
     60          1           0      -12.417781   -2.631143    1.245597
     61          1           0       -9.099266   -1.827088    0.463161
     62          1           0       -5.558594   -2.080524   -0.032319
     63          1           0       -5.820612   -1.440777    1.776430
     64          1           0       -7.131828   -2.719149    0.727700
     65          1           0       -7.142146    1.555611   -0.488777
     66          1           0       -4.579718    0.165646    0.326777
     67          1           0       13.516258   -0.916583    2.237097
     68          1           0       12.173579   -1.988624    1.953339
     69          1           0       13.944046   -2.666369    0.558362
     70          1           0       13.180546   -2.183375   -1.817375
     71          1           0       11.678517   -2.575591   -0.599655
     72          1           0       11.686187    0.364763    3.321253
     73          1           0       10.336123    1.223391    2.385309
     74          1           0       10.152502   -0.423468    2.481949
     75          1           0       13.871682    0.953278    0.516644
     76          1           0       12.468026    2.103738    0.698390
     77          1           0       13.219473    1.479089    2.274819
     78          1           0       13.299187   -0.034689   -2.760365
     79          1           0       11.583622    1.130483   -2.584130
     80          1           0       13.147561    1.339035   -1.301287
     81          1           0       -5.284553    3.036908   -0.543942
     82          1           0       10.285022   -0.215576   -2.246712
     83          1           0       15.166504   -1.249272    0.737797
     84          1           0        8.627538    1.985568   -0.514828
     85          1           0       -2.624476    4.636203    0.232114
     86          1           0       -2.216724    4.124707   -1.452305
     87          1           0       -3.943247    4.457640   -0.938301
     88          1           0       -2.532434    0.543328   -0.299430
     89          1           0        6.577373   -1.906718    0.053714
     90          1           0        8.296290   -1.774592   -0.349140
     91          1           0        8.071550   -1.536246    1.521441
     92          1           0        6.114313    1.739312   -0.042487
     93          1           0       -0.776206    2.952256   -0.459956
     94          1           0        5.067147   -0.999756    0.432159
     95          1           0       -0.444523   -0.206532   -0.003130
     96          1           0        3.935754    2.040312   -0.383265
     97          1           0        1.742358    2.167189    0.033885
     98          1           0        1.032391   -1.581942    0.373882
     99          1           0        2.541282   -1.951832   -0.477798
    100          1           0        2.570303   -1.517460    1.169377
 ---------------------------------------------------------------------

 SCF Done:  E(RCAM-B3LYP) =  -1857.17693230     A.U. after   15 cycles

 Excitation energies and oscillator strengths:

 Excited State   1:      Singlet-A      2.2489 eV  551.31 nm  f=3.2661  <S**2>=0.000
     163 ->166        -0.16693
     164 ->165         0.68116
 This state for optimization and/or second-order correction.
 Total Energy, E(TD-HF/TD-DFT) =  -1857.09428731
 Copying the excited state density for this state as the 1-particle RhoCI density.

 The electronic state is 1-A.
 Alpha  occ. eigenvalues --  -19.23430 -19.22028 -19.21064 -19.20246 -10.32067
 Alpha  occ. eigenvalues --  -10.31994 -10.31641 -10.31326 -10.31168 -10.28923
 Alpha  occ. eigenvalues --  -10.28863 -10.28752 -10.28432 -10.28275 -10.28160
 Alpha  occ. eigenvalues --  -10.28144 -10.27990 -10.27942 -10.27858 -10.27794
 Alpha  occ. eigenvalues --  -10.27745 -10.27559 -10.27536 -10.27519 -10.27463
 Alpha  occ. eigenvalues --  -10.27162 -10.27146 -10.26988 -10.26647 -10.26560
 Alpha  occ. eigenvalues --  -10.26404 -10.26362 -10.26257 -10.26183 -10.26072
 Alpha  occ. eigenvalues --  -10.25954 -10.25693 -10.25514 -10.25366 -10.25344
 Alpha  occ. eigenvalues --  -10.24736 -10.24699 -10.24094 -10.23530  -1.15258
 Alpha  occ. eigenvalues --   -1.14177  -1.11271  -1.11251  -0.92973  -0.92835
 Alpha  occ. eigenvalues --   -0.91895  -0.91093  -0.90496  -0.89050  -0.87552
 Alpha  occ. eigenvalues --   -0.86612  -0.85972  -0.85314  -0.84119  -0.83410
 Alpha  occ. eigenvalues --   -0.82244  -0.80465  -0.79942  -0.78755  -0.76637
 Alpha  occ. eigenvalues --   -0.76407  -0.76107  -0.75920  -0.75647  -0.75200
 Alpha  occ. eigenvalues --   -0.74149  -0.73948  -0.72827  -0.70376  -0.69306
 Alpha  occ. eigenvalues --   -0.68480  -0.66721  -0.65561  -0.64650  -0.63676
 Alpha  occ. eigenvalues --   -0.62861  -0.62169  -0.61090  -0.59990  -0.59674
 Alpha  occ. eigenvalues --   -0.59274  -0.59050  -0.58815  -0.58081  -0.56950
 Alpha  occ. eigenvalues --   -0.56199  -0.55668  -0.55336  -0.54601  -0.54035
 Alpha  occ. eigenvalues --   -0.53518  -0.52710  -0.52420  -0.52377  -0.52032
 Alpha  occ. eigenvalues --   -0.51721  -0.50803  -0.50421  -0.50326  -0.49768
 Alpha  occ. eigenvalues --   -0.49370  -0.49063  -0.48498  -0.48464  -0.47765
 Alpha  occ. eigenvalues --   -0.47452  -0.47194  -0.46993  -0.46838  -0.46637
 Alpha  occ. eigenvalues --   -0.46281  -0.46214  -0.46039  -0.45979  -0.45275
 Alpha  occ. eigenvalues --   -0.45140  -0.44873  -0.44853  -0.44169  -0.43936
 Alpha  occ. eigenvalues --   -0.43493  -0.43101  -0.42890  -0.42707  -0.42665
 Alpha  occ. eigenvalues --   -0.42306  -0.42229  -0.41575  -0.41502  -0.41187
 Alpha  occ. eigenvalues --   -0.40870  -0.40829  -0.40555  -0.40267  -0.40221
 Alpha  occ. eigenvalues --   -0.39830  -0.39204  -0.38986  -0.38886  -0.38388
 Alpha  occ. eigenvalues --   -0.38287  -0.38220  -0.37994  -0.37793  -0.37151
 Alpha  occ. eigenvalues --   -0.36356  -0.35637  -0.34828  -0.34074  -0.33603
 Alpha  occ. eigenvalues --   -0.32614  -0.31826  -0.31380  -0.31052  -0.30304
 Alpha  occ. eigenvalues --   -0.29672  -0.27557  -0.23995  -0.20108
 Alpha virt. eigenvalues --   -0.05958  -0.02001   0.01959   0.06363   0.07065
 Alpha virt. eigenvalues --    0.07267   0.09202   0.09891   0.10637   0.10756
 Alpha virt. eigenvalues --    0.11025   0.11144   0.11419   0.11897   0.12851

 Mulliken charges:
               1
     1  O   -0.502804
     2  O   -0.521883
     3  O   -0.531314
     4  O   -0.529810
     5  C    0.212449
     6  C    0.221998
     7  C   -0.033279
     8  C   -0.202968
     9  C   -0.147005
    10  C    0.141182
    11  C   -0.342385
    12  C   -0.115479
    13  C   -0.274267
    14  C   -0.313474
    15  C   -0.086901
    16  C    0.070409
    17  C   -0.345970
    18  C   -0.099346
    19  C   -0.079951
    20  C   -0.007202
    21  C    0.271049
    22  C   -0.181855
    23  C    0.150546
    24  C   -0.195275
    25  C   -0.033205
    26  C   -0.297952
    27  C   -0.305384
    28  C   -0.264076
    29  C   -0.079701
    30  C    0.051520
    31  C    0.049250
    32  C   -0.238414
    33  C   -0.374079
    34  C   -0.067269
    35  C    0.110477
    36  C   -0.365990
    37  C   -0.103121
    38  C   -0.076678
    39  C   -0.082294
    40  C   -0.104002
    41  C   -0.129071
    42  C   -0.117178
    43  C    0.117840
    44  C   -0.356315
    45  H    0.101894
    46  H    0.124110
    47  H    0.068934
    48  H    0.112527
    49  H    0.066419
    50  H    0.110748
    51  H    0.099452
    52  H    0.117558
    53  H    0.104754
    54  H    0.110116
    55  H    0.109816
    56  H    0.084672
    57  H    0.137110
    58  H    0.087379
    59  H    0.096824
    60  H    0.285216
    61  H    0.089889
    62  H    0.141190
    63  H    0.088418
    64  H    0.105007
    65  H    0.084172
    66  H    0.078963
    67  H    0.071361
    68  H    0.107729
    69  H    0.069706
    70  H    0.102138
    71  H    0.118843
    72  H    0.087606
    73  H    0.125097
    74  H    0.079925
    75  H    0.113026
    76  H    0.111041
    77  H    0.086766
    78  H    0.104651
    79  H    0.048261
    80  H    0.097685
    81  H    0.065340
    82  H    0.299039
    83  H    0.318270
    84  H    0.120654
    85  H    0.124440
    86  H    0.111773
    87  H    0.109196
    88  H    0.069637
    89  H    0.105365
    90  H    0.138549
    91  H    0.094936
    92  H    0.079067
    93  H    0.090908
    94  H    0.097520
    95  H    0.084391
    96  H    0.056231
    97  H    0.089622
    98  H    0.058125
    99  H    0.122006
   100  H    0.145107
 Sum of Mulliken charges =  -0.00000

 Dipole moment (field-independent basis, Debye):
    X=              4.7962    Y=             -0.9308    Z=              1.5771  Tot=              5.1340
 Quadrupole moment (field-independent basis, Debye-Ang):
   XX=           -291.4357   YY=           -257.8570   ZZ=           -282.8735
   XY=             -9.0167   XZ=             28.6638   YZ=             -2.7776

 Normal termination of Gaussian 16 at Thu Aug  1 09:23:36 2019.
