 Gaussian 16, Revision A.03,
 Gaussian 16:  ES64L-G16RevA.03 25-Dec-2016

 -------------------------------------
 # td=(NStates=1) CAM-B3LYP/6-31G(d,p)
 -------------------------------------

 --
 TD
 --
 Symbolic Z-matrix:
 Charge =  0 Multiplicity = 1

                         Standard orientation:
 ---------------------------------------------------------------------
 Center     Atomic      Atomic             Coordinates (Angstroms)
 Number     Number       Type             X           Y           Z
 ---------------------------------------------------------------------
      1          8           0      -11.721318    0.107641   -1.626327
      2          8           0      -12.908335   -2.424267    1.475600
      3          8           0       10.494792   -1.078198   -2.044874
      4          8           0       14.473701   -1.242520   -0.167117
      5          6           0      -11.021434   -0.231758   -0.423396
      6          6           0      -11.676743   -1.355440   -1.164390
      7          6           0      -11.886316    0.374333    0.831861
      8          6           0      -12.978630   -1.907405   -0.798511
      9          6           0      -13.378271   -0.122752    0.816057
     10          6           0      -13.487758   -1.593443    0.479672
     11          6           0      -10.731064   -2.206781   -2.006816
     12          6           0       -9.597893   -0.001239   -0.407621
     13          6           0      -11.222343   -0.019840    2.069333
     14          6           0      -11.807604    1.972900    0.781622
     15          6           0       -8.668649   -0.764457    0.271260
     16          6           0       -7.250310   -0.459895    0.235647
     17          6           0       -6.333411   -1.595002    0.579503
     18          6           0       -6.713312    0.755144   -0.047035
     19          6           0       -5.284952    1.002222   -0.093911
     20          6           0       11.928918   -0.029303    1.374045
     21          6           0       11.600903   -0.638459   -1.227437
     22          6           0       12.704705   -1.341414    1.491664
     23          6           0       13.275712   -1.929620    0.267349
     24          6           0       12.315500   -1.927876   -0.981201
     25          6           0       11.167440   -0.066193    0.021929
     26          6           0       10.998685    0.138614    2.543793
     27          6           0       12.965039    1.249434    1.231053
     28          6           0       12.432411    0.284310   -2.028255
     29          6           0       -4.699369    2.202785   -0.331549
     30          6           0        9.941943    0.475487    0.061564
     31          6           0       -3.362120    2.559337   -0.532500
     32          6           0        8.682379    0.952014   -0.143323
     33          6           0       -3.085588    4.046061   -0.905098
     34          6           0       -2.320307    1.623900   -0.230074
     35          6           0        7.513220    0.231563    0.065081
     36          6           0        7.692983   -1.225492    0.359413
     37          6           0        6.241024    0.944896    0.049747
     38          6           0       -0.947540    1.925036   -0.220897
     39          6           0        5.025331    0.313278    0.024380
     40          6           0        0.030791    1.031014    0.033950
     41          6           0        3.823452    0.985179   -0.073765
     42          6           0        1.372522    1.372604   -0.109248
     43          6           0        2.512144    0.494407    0.023755
     44          6           0        2.385850   -1.148112   -0.041463
     45          1           0      -12.861993   -2.999090   -0.965282
     46          1           0      -13.759807   -1.727352   -1.546698
     47          1           0      -13.782226    0.414295    1.726549
     48          1           0      -13.755982    0.531849    0.090799
     49          1           0      -14.485854   -2.008201    0.370360
     50          1           0      -10.648443   -3.097528   -1.305957
     51          1           0      -11.166737   -2.572982   -2.903393
     52          1           0       -9.686123   -1.720360   -2.240435
     53          1           0       -9.342768    0.927238   -0.842189
     54          1           0      -10.297678    0.322625    2.353741
     55          1           0      -12.008201    0.082067    2.836950
     56          1           0      -11.002176   -1.092437    2.193041
     57          1           0      -12.323499    2.366186   -0.284079
     58          1           0      -12.309878    2.347874    1.913708
     59          1           0      -10.682508    2.270683    0.908610
     60          1           0      -11.901500   -2.221951    1.429722
     61          1           0       -8.832601   -1.688288    0.692485
     62          1           0       -5.649368   -1.779222   -0.366886
     63          1           0       -5.603753   -1.184797    1.279132
     64          1           0       -6.702028   -2.677287    0.831043
     65          1           0       -7.274456    1.620871   -0.391633
     66          1           0       -4.546909    0.268165    0.101054
     67          1           0       13.395345   -1.168344    2.126581
     68          1           0       11.974548   -2.092660    1.797627
     69          1           0       13.671038   -2.879601    0.541685
     70          1           0       13.037764   -2.105746   -1.691796
     71          1           0       11.488424   -2.718664   -0.919741
     72          1           0       11.661344    0.450545    3.428752
     73          1           0       10.371406    0.953267    2.418967
     74          1           0       10.437582   -0.748070    2.660185
     75          1           0       13.893306    1.097380    0.677876
     76          1           0       12.367655    2.240443    0.798363
     77          1           0       13.403931    1.600948    2.233803
     78          1           0       12.478613   -0.087980   -3.205826
     79          1           0       11.864067    1.048361   -2.205984
     80          1           0       13.496298    0.411208   -1.696300
     81          1           0       -5.244771    3.104875   -0.530544
     82          1           0        9.893095   -0.415732   -2.146191
     83          1           0       14.826818   -0.866647    0.718707
     84          1           0        8.700261    1.913638   -0.431727
     85          1           0       -2.420481    4.575272   -0.292663
     86          1           0       -2.473109    3.794017   -1.942594
     87          1           0       -3.853758    4.552531   -0.932626
     88          1           0       -2.673894    0.476934   -0.079957
     89          1           0        6.712102   -1.678248    0.477025
     90          1           0        8.271361   -1.609305   -0.445619
     91          1           0        8.094980   -1.159222    1.205852
     92          1           0        6.327341    1.917527   -0.073980
     93          1           0       -0.667053    2.945211   -0.411834
     94          1           0        5.153523   -0.806509    0.148345
     95          1           0       -0.023981   -0.212766   -0.016160
     96          1           0        3.889388    2.029363   -0.030531
     97          1           0        1.662122    2.467292   -0.094944
     98          1           0        1.348228   -1.499518   -0.229236
     99          1           0        3.183748   -1.502948   -0.735065
    100          1           0        2.722513   -1.530691    0.823533
 ---------------------------------------------------------------------

 SCF Done:  E(RCAM-B3LYP) =  -1857.27080248     A.U. after   16 cycles

 Excitation energies and oscillator strengths:

 Excited State   1:      Singlet-A      1.9858 eV  624.36 nm  f=3.3600  <S**2>=0.000
     163 ->166        -0.14053
     164 ->165         0.69449
     164 <-165        -0.10239
 This state for optimization and/or second-order correction.
 Total Energy, E(TD-HF/TD-DFT) =  -1857.19782605
 Copying the excited state density for this state as the 1-particle RhoCI density.

 The electronic state is 1-A.
 Alpha  occ. eigenvalues --  -19.22129 -19.20880 -19.20865 -19.20373 -10.31872
 Alpha  occ. eigenvalues --  -10.31471 -10.31102 -10.30433 -10.30044 -10.29415
 Alpha  occ. eigenvalues --  -10.28831 -10.28349 -10.27971 -10.27767 -10.27766
 Alpha  occ. eigenvalues --  -10.27761 -10.27564 -10.27427 -10.27350 -10.27328
 Alpha  occ. eigenvalues --  -10.27327 -10.27098 -10.26926 -10.26874 -10.26618
 Alpha  occ. eigenvalues --  -10.26566 -10.26553 -10.26397 -10.26343 -10.26141
 Alpha  occ. eigenvalues --  -10.25930 -10.25687 -10.25599 -10.25550 -10.25501
 Alpha  occ. eigenvalues --  -10.25371 -10.25297 -10.25151 -10.24959 -10.24701
 Alpha  occ. eigenvalues --  -10.24513 -10.23789 -10.23614 -10.23565  -1.11917
 Alpha  occ. eigenvalues --   -1.10939  -1.09122  -1.08749  -0.94194  -0.92473
 Alpha  occ. eigenvalues --   -0.92337  -0.91258  -0.90531  -0.89997  -0.88593
 Alpha  occ. eigenvalues --   -0.88015  -0.87776  -0.85765  -0.85241  -0.83745
 Alpha  occ. eigenvalues --   -0.82532  -0.81445  -0.81288  -0.79074  -0.78351
 Alpha  occ. eigenvalues --   -0.78012  -0.77090  -0.76803  -0.76555  -0.76002
 Alpha  occ. eigenvalues --   -0.74951  -0.73985  -0.72981  -0.70925  -0.70710
 Alpha  occ. eigenvalues --   -0.69355  -0.67442  -0.66335  -0.66165  -0.63823
 Alpha  occ. eigenvalues --   -0.63306  -0.62012  -0.61195  -0.60320  -0.60082
 Alpha  occ. eigenvalues --   -0.59727  -0.58989  -0.58352  -0.58211  -0.57618
 Alpha  occ. eigenvalues --   -0.56217  -0.55875  -0.55161  -0.55079  -0.54876
 Alpha  occ. eigenvalues --   -0.54229  -0.54033  -0.53732  -0.53248  -0.52637
 Alpha  occ. eigenvalues --   -0.52233  -0.51607  -0.51292  -0.50608  -0.50342
 Alpha  occ. eigenvalues --   -0.50185  -0.49979  -0.49482  -0.48695  -0.48352
 Alpha  occ. eigenvalues --   -0.48224  -0.47823  -0.47472  -0.47294  -0.46913
 Alpha  occ. eigenvalues --   -0.46695  -0.46591  -0.46484  -0.46463  -0.45753
 Alpha  occ. eigenvalues --   -0.45227  -0.45051  -0.44826  -0.44578  -0.44367
 Alpha  occ. eigenvalues --   -0.43879  -0.43474  -0.43051  -0.42816  -0.42449
 Alpha  occ. eigenvalues --   -0.42397  -0.42181  -0.41910  -0.41652  -0.41332
 Alpha  occ. eigenvalues --   -0.41134  -0.40960  -0.40284  -0.40247  -0.39848
 Alpha  occ. eigenvalues --   -0.39695  -0.39494  -0.39287  -0.38965  -0.38876
 Alpha  occ. eigenvalues --   -0.38478  -0.38106  -0.38074  -0.37971  -0.37714
 Alpha  occ. eigenvalues --   -0.37465  -0.36100  -0.35246  -0.34879  -0.34195
 Alpha  occ. eigenvalues --   -0.33600  -0.32836  -0.32163  -0.31438  -0.30692
 Alpha  occ. eigenvalues --   -0.29857  -0.27893  -0.23903  -0.18882
 Alpha virt. eigenvalues --   -0.06524  -0.01550   0.02454   0.05848   0.06519
 Alpha virt. eigenvalues --    0.09465   0.10058   0.10495   0.11565   0.11712
 Alpha virt. eigenvalues --    0.12611   0.12850   0.13176   0.14034   0.14433

 Mulliken charges:
               1
     1  O   -0.534066
     2  O   -0.556819
     3  O   -0.558270
     4  O   -0.561951
     5  C    0.225578
     6  C    0.216350
     7  C   -0.004699
     8  C   -0.212579
     9  C   -0.182055
    10  C    0.160248
    11  C   -0.329054
    12  C   -0.111547
    13  C   -0.291750
    14  C   -0.290095
    15  C   -0.071131
    16  C    0.088916
    17  C   -0.388605
    18  C   -0.111797
    19  C   -0.066181
    20  C    0.010360
    21  C    0.246466
    22  C   -0.187445
    23  C    0.142198
    24  C   -0.190103
    25  C   -0.004555
    26  C   -0.298979
    27  C   -0.327064
    28  C   -0.289165
    29  C   -0.109170
    30  C    0.036665
    31  C    0.051346
    32  C   -0.232413
    33  C   -0.330558
    34  C   -0.118012
    35  C    0.055327
    36  C   -0.338504
    37  C   -0.076210
    38  C   -0.086935
    39  C   -0.074100
    40  C   -0.061997
    41  C   -0.122678
    42  C   -0.130673
    43  C    0.079536
    44  C   -0.373176
    45  H    0.113485
    46  H    0.126296
    47  H    0.098987
    48  H    0.119544
    49  H    0.098104
    50  H    0.094614
    51  H    0.122882
    52  H    0.123712
    53  H    0.111323
    54  H    0.117757
    55  H    0.107664
    56  H    0.064631
    57  H    0.112030
    58  H    0.069301
    59  H    0.101231
    60  H    0.300794
    61  H    0.078403
    62  H    0.113111
    63  H    0.136141
    64  H    0.106209
    65  H    0.087581
    66  H    0.070127
    67  H    0.088003
    68  H    0.106106
    69  H    0.093322
    70  H    0.126646
    71  H    0.113491
    72  H    0.091273
    73  H    0.124226
    74  H    0.113924
    75  H    0.115057
    76  H    0.093085
    77  H    0.085243
    78  H    0.081577
    79  H    0.095348
    80  H    0.137012
    81  H    0.061591
    82  H    0.288413
    83  H    0.302716
    84  H    0.108132
    85  H    0.129701
    86  H    0.109998
    87  H    0.108285
    88  H    0.076435
    89  H    0.095734
    90  H    0.138194
    91  H    0.138848
    92  H    0.064682
    93  H    0.091602
    94  H    0.072776
    95  H    0.069222
    96  H    0.077099
    97  H    0.075023
    98  H    0.105992
    99  H    0.121005
   100  H    0.135654
 Sum of Mulliken charges =  -0.00000

 Dipole moment (field-independent basis, Debye):
    X=              3.3795    Y=              0.6421    Z=              2.2061  Tot=              4.0866
 Quadrupole moment (field-independent basis, Debye-Ang):
   XX=           -286.5373   YY=           -259.0312   ZZ=           -279.7909
   XY=             10.3141   XZ=             38.7238   YZ=             -1.5404

 Normal termination of Gaussian 16 at Fri Aug  2 08:38:17 2019.
