 Gaussian 16, Revision A.03,
 Gaussian 16:  ES64L-G16RevA.03 25-Dec-2016

 -------------------------------------
 # td=(NStates=1) CAM-B3LYP/6-31G(d,p)
 -------------------------------------

 --
 TD
 --
 Symbolic Z-matrix:
 Charge =  0 Multiplicity = 1

                         Standard orientation:
 ---------------------------------------------------------------------
 Center     Atomic      Atomic             Coordinates (Angstroms)
 Number     Number       Type             X           Y           Z
 ---------------------------------------------------------------------
      1          8           0      -11.832809    0.293508   -1.478766
      2          8           0      -12.928571   -2.834794    1.175465
      3          8           0       10.613394   -0.942356   -2.142577
      4          8           0       14.448350   -0.908416   -0.094848
      5          6           0      -11.038680   -0.125437   -0.357050
      6          6           0      -11.683941   -1.039623   -1.315157
      7          6           0      -11.744244    0.175132    0.998474
      8          6           0      -12.887166   -1.825731   -1.046555
      9          6           0      -13.149062   -0.377598    1.038007
     10          6           0      -13.413941   -1.733834    0.406444
     11          6           0      -10.725864   -1.853081   -2.195736
     12          6           0       -9.595244    0.263481   -0.355981
     13          6           0      -11.032279   -0.397177    2.147422
     14          6           0      -11.779885    1.737690    1.168515
     15          6           0       -8.605507   -0.554480   -0.014712
     16          6           0       -7.160622   -0.468039    0.062877
     17          6           0       -6.252511   -1.546341    0.354814
     18          6           0       -6.638796    0.891891   -0.160069
     19          6           0       -5.278277    1.012625   -0.131917
     20          6           0       11.839188   -0.190426    1.340804
     21          6           0       11.736743   -0.617352   -1.305581
     22          6           0       12.635957   -1.487429    1.435328
     23          6           0       13.371663   -1.845764    0.118371
     24          6           0       12.469416   -1.943449   -1.104285
     25          6           0       11.114002   -0.043773   -0.032536
     26          6           0       10.929482   -0.085600    2.634556
     27          6           0       12.856199    1.087107    1.451625
     28          6           0       12.542135    0.450176   -2.002131
     29          6           0       -4.797747    2.342417   -0.232988
     30          6           0        9.877554    0.544120   -0.040592
     31          6           0       -3.493795    2.693929   -0.230031
     32          6           0        8.677120    0.991047   -0.027439
     33          6           0       -3.025416    4.035632   -0.530995
     34          6           0       -2.368912    1.713702   -0.203591
     35          6           0        7.389281    0.131378   -0.004542
     36          6           0        7.585719   -1.263283    0.165596
     37          6           0        6.275475    0.816313   -0.125867
     38          6           0       -0.981642    1.975459   -0.437519
     39          6           0        4.964612    0.264461   -0.029040
     40          6           0        0.003387    1.050447   -0.202428
     41          6           0        3.830807    0.935393    0.035337
     42          6           0        1.356037    1.263144   -0.078528
     43          6           0        2.426491    0.365652    0.049685
     44          6           0        2.183345   -1.119637    0.273631
     45          1           0      -12.802620   -2.845625   -1.353455
     46          1           0      -13.821120   -1.617582   -1.768116
     47          1           0      -13.573163   -0.351237    2.147018
     48          1           0      -13.785571    0.310049    0.602578
     49          1           0      -14.626062   -1.770542    0.339037
     50          1           0      -10.357093   -2.790826   -1.777589
     51          1           0      -11.401723   -1.927353   -3.179581
     52          1           0      -10.086293   -1.097825   -2.400530
     53          1           0       -9.547291    1.159646   -0.944294
     54          1           0      -10.011985    0.196894    2.329512
     55          1           0      -11.767607   -0.391137    3.078640
     56          1           0      -10.678958   -1.540735    2.170136
     57          1           0      -12.263058    2.362105    0.408815
     58          1           0      -12.338622    2.008139    2.102009
     59          1           0      -10.750401    2.224791    1.367298
     60          1           0      -11.995271   -3.032360    1.019050
     61          1           0       -8.915151   -1.690097    0.278543
     62          1           0       -5.228099   -1.449333   -0.344938
     63          1           0       -5.627086   -1.227962    1.328364
     64          1           0       -6.840733   -2.429218    0.406361
     65          1           0       -7.381233    1.749431   -0.296306
     66          1           0       -4.452529    0.267877   -0.051298
     67          1           0       13.181960   -1.583671    2.313497
     68          1           0       11.737696   -2.375932    1.785210
     69          1           0       13.886950   -2.910717    0.368109
     70          1           0       13.140582   -2.441372   -1.783499
     71          1           0       11.768176   -2.874110   -0.922852
     72          1           0       11.600991   -0.515772    3.478428
     73          1           0       10.333864    0.864477    2.560457
     74          1           0       10.107637   -0.860417    2.552906
     75          1           0       13.558700    1.337149    0.592755
     76          1           0       12.201459    2.090092    1.724611
     77          1           0       13.422523    0.966712    2.493497
     78          1           0       12.805933    0.123260   -2.947013
     79          1           0       12.080518    1.535595   -2.159194
     80          1           0       13.424650    0.845040   -1.518904
     81          1           0       -5.462546    3.207217   -0.282483
     82          1           0       10.073103   -0.167351   -2.056950
     83          1           0       15.091832   -1.023940    0.592985
     84          1           0        8.575086    2.046099   -0.280720
     85          1           0       -2.458337    4.454226    0.452929
     86          1           0       -2.093957    4.192980   -1.173626
     87          1           0       -3.804082    4.708492   -0.873050
     88          1           0       -2.550131    0.751113    0.076613
     89          1           0        6.747554   -1.961605    0.227453
     90          1           0        8.382878   -1.551077   -0.562981
     91          1           0        7.872146   -1.427278    1.058112
     92          1           0        6.426534    1.983388   -0.078750
     93          1           0       -0.780238    3.127924   -0.654981
     94          1           0        4.922356   -0.795221    0.104291
     95          1           0       -0.609984    0.059157    0.063953
     96          1           0        3.809437    2.058668    0.088716
     97          1           0        1.669557    2.251735   -0.199438
     98          1           0        1.110479   -1.442016   -0.149419
     99          1           0        2.910849   -1.633917   -0.454251
    100          1           0        2.298113   -1.358438    1.330874
 ---------------------------------------------------------------------

 SCF Done:  E(RCAM-B3LYP) =  -1857.28872195     A.U. after   15 cycles

 Excitation energies and oscillator strengths:

 Excited State   1:      Singlet-A      1.8016 eV  688.19 nm  f=2.1167  <S**2>=0.000
     164 ->165         0.71344
     164 <-165        -0.15181
 This state for optimization and/or second-order correction.
 Total Energy, E(TD-HF/TD-DFT) =  -1857.22251448
 Copying the excited state density for this state as the 1-particle RhoCI density.

 The electronic state is 1-A.
 Alpha  occ. eigenvalues --  -19.22737 -19.22182 -19.20572 -19.20412 -10.33038
 Alpha  occ. eigenvalues --  -10.32912 -10.31457 -10.31066 -10.31010 -10.29147
 Alpha  occ. eigenvalues --  -10.28850 -10.28528 -10.27999 -10.27949 -10.27781
 Alpha  occ. eigenvalues --  -10.27771 -10.27727 -10.27582 -10.27553 -10.27547
 Alpha  occ. eigenvalues --  -10.27491 -10.27273 -10.27250 -10.27193 -10.27050
 Alpha  occ. eigenvalues --  -10.27031 -10.26963 -10.26910 -10.26887 -10.26613
 Alpha  occ. eigenvalues --  -10.26596 -10.26547 -10.26541 -10.26339 -10.26227
 Alpha  occ. eigenvalues --  -10.26099 -10.26060 -10.25886 -10.25308 -10.25055
 Alpha  occ. eigenvalues --  -10.24661 -10.24218 -10.24142 -10.23928  -1.18052
 Alpha  occ. eigenvalues --   -1.10536  -1.10025  -1.08478  -0.93146  -0.92764
 Alpha  occ. eigenvalues --   -0.91802  -0.91428  -0.90876  -0.90134  -0.87936
 Alpha  occ. eigenvalues --   -0.86614  -0.86299  -0.85795  -0.85155  -0.83730
 Alpha  occ. eigenvalues --   -0.82628  -0.81571  -0.80527  -0.79026  -0.77994
 Alpha  occ. eigenvalues --   -0.76598  -0.76229  -0.75912  -0.75896  -0.74626
 Alpha  occ. eigenvalues --   -0.74390  -0.73742  -0.73103  -0.69798  -0.69587
 Alpha  occ. eigenvalues --   -0.68028  -0.67224  -0.65257  -0.64419  -0.63911
 Alpha  occ. eigenvalues --   -0.63713  -0.62508  -0.60804  -0.60520  -0.59770
 Alpha  occ. eigenvalues --   -0.59302  -0.58376  -0.57956  -0.57711  -0.56832
 Alpha  occ. eigenvalues --   -0.56343  -0.55964  -0.55319  -0.55161  -0.54671
 Alpha  occ. eigenvalues --   -0.54266  -0.53137  -0.52485  -0.52034  -0.51789
 Alpha  occ. eigenvalues --   -0.51287  -0.50733  -0.50054  -0.49929  -0.49873
 Alpha  occ. eigenvalues --   -0.49726  -0.49600  -0.49310  -0.48860  -0.48613
 Alpha  occ. eigenvalues --   -0.48012  -0.47802  -0.47024  -0.46926  -0.46716
 Alpha  occ. eigenvalues --   -0.46590  -0.46251  -0.46124  -0.45780  -0.45412
 Alpha  occ. eigenvalues --   -0.44884  -0.44615  -0.44313  -0.44117  -0.43679
 Alpha  occ. eigenvalues --   -0.43409  -0.43046  -0.42917  -0.42848  -0.42792
 Alpha  occ. eigenvalues --   -0.42192  -0.41701  -0.41411  -0.41301  -0.41246
 Alpha  occ. eigenvalues --   -0.40920  -0.40608  -0.40547  -0.40174  -0.39861
 Alpha  occ. eigenvalues --   -0.39259  -0.38959  -0.38586  -0.38519  -0.38337
 Alpha  occ. eigenvalues --   -0.38230  -0.38064  -0.37648  -0.37423  -0.37164
 Alpha  occ. eigenvalues --   -0.36297  -0.35441  -0.35132  -0.34511  -0.33485
 Alpha  occ. eigenvalues --   -0.32801  -0.32410  -0.31912  -0.31759  -0.30614
 Alpha  occ. eigenvalues --   -0.28879  -0.28320  -0.25133  -0.18879
 Alpha virt. eigenvalues --   -0.07300  -0.00400   0.03357   0.04949   0.06666
 Alpha virt. eigenvalues --    0.08985   0.09364   0.10160   0.10895   0.11567
 Alpha virt. eigenvalues --    0.12040   0.12484   0.12632   0.13495   0.13768

 Mulliken charges:
               1
     1  O   -0.492601
     2  O   -0.552416
     3  O   -0.561337
     4  O   -0.538729
     5  C    0.169289
     6  C    0.265705
     7  C    0.046673
     8  C   -0.227059
     9  C   -0.177980
    10  C    0.162817
    11  C   -0.310761
    12  C   -0.140074
    13  C   -0.280266
    14  C   -0.324642
    15  C   -0.050366
    16  C    0.092378
    17  C   -0.371433
    18  C   -0.099623
    19  C   -0.063561
    20  C    0.031019
    21  C    0.264497
    22  C   -0.161182
    23  C    0.127430
    24  C   -0.180407
    25  C   -0.046584
    26  C   -0.309407
    27  C   -0.283205
    28  C   -0.307249
    29  C   -0.124962
    30  C    0.119270
    31  C    0.126278
    32  C   -0.313299
    33  C   -0.395238
    34  C   -0.131913
    35  C    0.135133
    36  C   -0.375799
    37  C   -0.115146
    38  C   -0.053125
    39  C   -0.091949
    40  C   -0.089941
    41  C   -0.104767
    42  C   -0.120752
    43  C    0.089889
    44  C   -0.367418
    45  H    0.113085
    46  H    0.094889
    47  H    0.085960
    48  H    0.107936
    49  H    0.076578
    50  H    0.110077
    51  H    0.083884
    52  H    0.123363
    53  H    0.112188
    54  H    0.091679
    55  H    0.094502
    56  H    0.069953
    57  H    0.120329
    58  H    0.096328
    59  H    0.093035
    60  H    0.303540
    61  H    0.041140
    62  H    0.111129
    63  H    0.120395
    64  H    0.110115
    65  H    0.104019
    66  H    0.093109
    67  H    0.098879
    68  H    0.043812
    69  H    0.054679
    70  H    0.129690
    71  H    0.115337
    72  H    0.100703
    73  H    0.119024
    74  H    0.099345
    75  H    0.124849
    76  H    0.070632
    77  H    0.069975
    78  H    0.121950
    79  H    0.077214
    80  H    0.133811
    81  H    0.083780
    82  H    0.300308
    83  H    0.310670
    84  H    0.113371
    85  H    0.103547
    86  H    0.128138
    87  H    0.108089
    88  H    0.065346
    89  H    0.106371
    90  H    0.136292
    91  H    0.143718
    92  H    0.075744
    93  H    0.064488
    94  H    0.083489
    95  H    0.074041
    96  H    0.081560
    97  H    0.080360
    98  H    0.104733
    99  H    0.114455
   100  H    0.137178
 Sum of Mulliken charges =  -0.00000

 Dipole moment (field-independent basis, Debye):
    X=              5.5746    Y=             -0.3767    Z=              2.1432  Tot=              5.9842
 Quadrupole moment (field-independent basis, Debye-Ang):
   XX=           -282.1789   YY=           -259.1899   ZZ=           -282.9704
   XY=            -14.3878   XZ=             31.3740   YZ=             -2.9962

 Normal termination of Gaussian 16 at Thu Aug  1 08:34:17 2019.
