 Gaussian 16, Revision A.03,
 Gaussian 16:  ES64L-G16RevA.03 25-Dec-2016

 -------------------------------------
 # td=(NStates=1) CAM-B3LYP/6-31G(d,p)
 -------------------------------------

 --
 TD
 --
 Symbolic Z-matrix:
 Charge =  0 Multiplicity = 1

                         Standard orientation:
 ---------------------------------------------------------------------
 Center     Atomic      Atomic             Coordinates (Angstroms)
 Number     Number       Type             X           Y           Z
 ---------------------------------------------------------------------
      1          8           0      -11.679644    0.362809   -1.483236
      2          8           0      -13.206271   -2.442862    1.345359
      3          8           0       10.312983   -1.178739   -2.003790
      4          8           0       14.474328   -0.914539   -0.319510
      5          6           0      -11.011652   -0.209410   -0.303764
      6          6           0      -11.649594   -1.073255   -1.248927
      7          6           0      -11.754788    0.335652    0.975458
      8          6           0      -13.073664   -1.703102   -0.901415
      9          6           0      -13.219930   -0.029906    0.976464
     10          6           0      -13.608077   -1.313225    0.492948
     11          6           0      -10.911768   -1.881881   -2.239859
     12          6           0       -9.554619    0.038442   -0.302638
     13          6           0      -10.978511   -0.194497    2.279610
     14          6           0      -11.616034    1.819828    1.129041
     15          6           0       -8.585357   -0.867398    0.090677
     16          6           0       -7.226746   -0.640190    0.064210
     17          6           0       -6.327009   -1.865851    0.359189
     18          6           0       -6.615659    0.573441   -0.191916
     19          6           0       -5.218051    0.866133   -0.070197
     20          6           0       12.038710    0.024444    1.340018
     21          6           0       11.456924   -0.623566   -1.182169
     22          6           0       12.832122   -1.292508    1.421575
     23          6           0       13.488767   -1.810907    0.223178
     24          6           0       12.414593   -1.831885   -0.949713
     25          6           0       11.100249    0.026884    0.066841
     26          6           0       11.152750    0.134076    2.600772
     27          6           0       12.884206    1.434014    1.274322
     28          6           0       12.236694    0.369943   -2.096281
     29          6           0       -4.737290    2.212097   -0.533992
     30          6           0        9.884307    0.460634    0.087500
     31          6           0       -3.363426    2.536258   -0.457481
     32          6           0        8.658176    0.900054   -0.001490
     33          6           0       -2.963323    4.045967   -0.798156
     34          6           0       -2.364410    1.663417   -0.260783
     35          6           0        7.504569    0.106252    0.091306
     36          6           0        7.687850   -1.377285    0.411034
     37          6           0        6.278251    0.704959   -0.003244
     38          6           0       -0.950431    1.904948   -0.275940
     39          6           0        4.975561    0.220908   -0.026926
     40          6           0        0.044105    0.927199   -0.061392
     41          6           0        3.753732    0.846852   -0.024162
     42          6           0        1.423738    1.196848   -0.204996
     43          6           0        2.451852    0.311994    0.067136
     44          6           0        2.276748   -1.146393    0.399330
     45          1           0      -13.192474   -2.710894   -1.001984
     46          1           0      -13.718945   -1.215745   -1.640572
     47          1           0      -13.709247    0.198392    2.003261
     48          1           0      -13.724990    0.629858    0.151743
     49          1           0      -14.590926   -1.469935    0.114436
     50          1           0      -10.975615   -2.874464   -1.765598
     51          1           0      -11.415595   -1.780597   -3.214862
     52          1           0       -9.959220   -1.372318   -2.486433
     53          1           0       -9.047622    0.907292   -0.676599
     54          1           0       -9.912862    0.204961    2.168389
     55          1           0      -11.618703    0.150105    3.192096
     56          1           0      -11.002882   -1.298423    2.216476
     57          1           0      -12.315714    2.312551    0.237323
     58          1           0      -12.027158    2.153661    2.180102
     59          1           0      -10.509251    2.198974    1.087622
     60          1           0      -12.279564   -2.633925    1.073298
     61          1           0       -8.897972   -1.925210    0.368447
     62          1           0       -5.886750   -2.002376   -0.798488
     63          1           0       -5.621521   -1.640289    1.303867
     64          1           0       -6.849551   -2.746822    0.508587
     65          1           0       -7.172268    1.443864   -0.543720
     66          1           0       -4.543703    0.002247    0.189223
     67          1           0       13.625972   -1.262923    2.114478
     68          1           0       12.306565   -2.186352    1.737918
     69          1           0       13.861232   -2.886243    0.169309
     70          1           0       13.067510   -1.963859   -2.015511
     71          1           0       11.700918   -2.750963   -0.829669
     72          1           0       11.775429    0.037564    3.664108
     73          1           0       10.626554    1.001978    2.467649
     74          1           0       10.177794   -0.396293    2.700659
     75          1           0       13.583018    1.335706    0.349333
     76          1           0       12.112629    2.170268    1.291868
     77          1           0       13.480227    1.547969    2.158741
     78          1           0       12.432528   -0.280545   -3.266894
     79          1           0       11.630352    1.211882   -2.136612
     80          1           0       13.298685    0.861990   -1.818125
     81          1           0       -5.429400    2.871921   -0.877439
     82          1           0        9.836479   -0.325443   -2.425426
     83          1           0       15.243067   -0.796903    0.339747
     84          1           0        8.770757    1.844705   -0.503836
     85          1           0       -2.257263    4.555842   -0.112496
     86          1           0       -2.398900    3.930190   -1.723942
     87          1           0       -3.892589    4.636475   -0.731836
     88          1           0       -2.587602    0.487343    0.061372
     89          1           0        6.562275   -1.792637    0.149385
     90          1           0        8.459575   -1.733657   -0.216744
     91          1           0        7.811875   -1.438311    1.475300
     92          1           0        6.413271    1.715414   -0.242030
     93          1           0       -0.584752    3.045095   -0.528591
     94          1           0        5.051966   -0.876042   -0.132088
     95          1           0       -0.433086   -0.062420    0.045612
     96          1           0        3.893982    1.903092   -0.448328
     97          1           0        1.843812    2.128564   -0.325431
     98          1           0        1.314133   -1.356208    0.771960
     99          1           0        2.534595   -1.749073   -0.533944
    100          1           0        3.048354   -1.372308    1.103321
 ---------------------------------------------------------------------

 SCF Done:  E(RCAM-B3LYP) =  -1857.30011839     A.U. after   15 cycles

 Excitation energies and oscillator strengths:

 Excited State   1:      Singlet-A      2.0282 eV  611.30 nm  f=2.9768  <S**2>=0.000
     163 ->166         0.14290
     164 ->165         0.69390
 This state for optimization and/or second-order correction.
 Total Energy, E(TD-HF/TD-DFT) =  -1857.22558358
 Copying the excited state density for this state as the 1-particle RhoCI density.

 The electronic state is 1-A.
 Alpha  occ. eigenvalues --  -19.22516 -19.22241 -19.21813 -19.20727 -10.32410
 Alpha  occ. eigenvalues --  -10.32165 -10.32072 -10.31637 -10.30040 -10.29735
 Alpha  occ. eigenvalues --  -10.28210 -10.27969 -10.27924 -10.27485 -10.27481
 Alpha  occ. eigenvalues --  -10.27439 -10.27405 -10.27368 -10.27188 -10.27119
 Alpha  occ. eigenvalues --  -10.27118 -10.27106 -10.26958 -10.26763 -10.26732
 Alpha  occ. eigenvalues --  -10.26688 -10.26587 -10.26556 -10.26462 -10.26366
 Alpha  occ. eigenvalues --  -10.26267 -10.26147 -10.26040 -10.25934 -10.25830
 Alpha  occ. eigenvalues --  -10.25702 -10.25699 -10.25589 -10.25549 -10.25544
 Alpha  occ. eigenvalues --  -10.25508 -10.25467 -10.25230 -10.24800  -1.14031
 Alpha  occ. eigenvalues --   -1.08887  -1.07908  -1.06317  -0.93459  -0.92276
 Alpha  occ. eigenvalues --   -0.92127  -0.91241  -0.90825  -0.90333  -0.87282
 Alpha  occ. eigenvalues --   -0.87055  -0.86064  -0.85179  -0.84819  -0.83738
 Alpha  occ. eigenvalues --   -0.82654  -0.80997  -0.80385  -0.78351  -0.77002
 Alpha  occ. eigenvalues --   -0.76973  -0.76529  -0.76002  -0.75859  -0.75103
 Alpha  occ. eigenvalues --   -0.74869  -0.73649  -0.73569  -0.70635  -0.69926
 Alpha  occ. eigenvalues --   -0.68406  -0.66954  -0.65495  -0.65307  -0.64146
 Alpha  occ. eigenvalues --   -0.63820  -0.61257  -0.60264  -0.59550  -0.59412
 Alpha  occ. eigenvalues --   -0.57986  -0.57630  -0.57103  -0.56907  -0.55860
 Alpha  occ. eigenvalues --   -0.55751  -0.55241  -0.55223  -0.54755  -0.54216
 Alpha  occ. eigenvalues --   -0.53808  -0.52933  -0.52374  -0.52057  -0.51742
 Alpha  occ. eigenvalues --   -0.51423  -0.51167  -0.50814  -0.50332  -0.49751
 Alpha  occ. eigenvalues --   -0.49345  -0.49100  -0.49004  -0.48738  -0.48412
 Alpha  occ. eigenvalues --   -0.48320  -0.48211  -0.47458  -0.47364  -0.46563
 Alpha  occ. eigenvalues --   -0.46247  -0.46116  -0.46072  -0.45615  -0.45068
 Alpha  occ. eigenvalues --   -0.45028  -0.44551  -0.44373  -0.44101  -0.43636
 Alpha  occ. eigenvalues --   -0.43460  -0.43313  -0.43122  -0.42551  -0.42486
 Alpha  occ. eigenvalues --   -0.42159  -0.41707  -0.41372  -0.41243  -0.40968
 Alpha  occ. eigenvalues --   -0.40755  -0.40302  -0.40031  -0.39921  -0.39513
 Alpha  occ. eigenvalues --   -0.39122  -0.39088  -0.38617  -0.38388  -0.38275
 Alpha  occ. eigenvalues --   -0.38144  -0.37611  -0.37289  -0.36816  -0.36624
 Alpha  occ. eigenvalues --   -0.35871  -0.35550  -0.35332  -0.34241  -0.33850
 Alpha  occ. eigenvalues --   -0.33707  -0.33417  -0.32650  -0.31757  -0.31479
 Alpha  occ. eigenvalues --   -0.29669  -0.28041  -0.23722  -0.19361
 Alpha virt. eigenvalues --   -0.06395  -0.01685   0.03106   0.06511   0.06896
 Alpha virt. eigenvalues --    0.09357   0.09623   0.10133   0.11171   0.11239
 Alpha virt. eigenvalues --    0.12440   0.12733   0.12835   0.13103   0.13305

 Mulliken charges:
               1
     1  O   -0.516459
     2  O   -0.562830
     3  O   -0.569638
     4  O   -0.549809
     5  C    0.211898
     6  C    0.235894
     7  C    0.011266
     8  C   -0.263190
     9  C   -0.152155
    10  C    0.151165
    11  C   -0.320281
    12  C   -0.130436
    13  C   -0.287781
    14  C   -0.272662
    15  C   -0.077394
    16  C    0.069293
    17  C   -0.354977
    18  C   -0.108518
    19  C   -0.080641
    20  C    0.019000
    21  C    0.240409
    22  C   -0.172691
    23  C    0.134696
    24  C   -0.182914
    25  C   -0.103000
    26  C   -0.300188
    27  C   -0.306007
    28  C   -0.282507
    29  C   -0.128999
    30  C    0.180550
    31  C    0.083879
    32  C   -0.264307
    33  C   -0.371458
    34  C   -0.109033
    35  C    0.072911
    36  C   -0.350636
    37  C   -0.075207
    38  C   -0.078830
    39  C   -0.104043
    40  C   -0.102370
    41  C   -0.140614
    42  C   -0.109961
    43  C    0.124233
    44  C   -0.364355
    45  H    0.120662
    46  H    0.117375
    47  H    0.098702
    48  H    0.097415
    49  H    0.109938
    50  H    0.101909
    51  H    0.121776
    52  H    0.121310
    53  H    0.104284
    54  H    0.113338
    55  H    0.095286
    56  H    0.079670
    57  H    0.090584
    58  H    0.092652
    59  H    0.093176
    60  H    0.301085
    61  H    0.069553
    62  H    0.109699
    63  H    0.117101
    64  H    0.117394
    65  H    0.083564
    66  H    0.098489
    67  H    0.087558
    68  H    0.112816
    69  H    0.092419
    70  H    0.085404
    71  H    0.095577
    72  H    0.079903
    73  H    0.112851
    74  H    0.103031
    75  H    0.117542
    76  H    0.115350
    77  H    0.102131
    78  H    0.068457
    79  H    0.089826
    80  H    0.123317
    81  H    0.090564
    82  H    0.310744
    83  H    0.302025
    84  H    0.112916
    85  H    0.121881
    86  H    0.135944
    87  H    0.106787
    88  H    0.059988
    89  H    0.077607
    90  H    0.150393
    91  H    0.133000
    92  H    0.062163
    93  H    0.069794
    94  H    0.070203
    95  H    0.089466
    96  H    0.078552
    97  H    0.082777
    98  H    0.116959
    99  H    0.120733
   100  H    0.125055
 Sum of Mulliken charges =  -0.00000

 Dipole moment (field-independent basis, Debye):
    X=              4.0253    Y=             -0.0922    Z=              0.7819  Tot=              4.1016
 Quadrupole moment (field-independent basis, Debye-Ang):
   XX=           -255.1628   YY=           -263.5939   ZZ=           -278.3046
   XY=              8.4812   XZ=             37.0196   YZ=             -2.2967

 Normal termination of Gaussian 16 at Sun Jul 28 23:27:35 2019.
