 Gaussian 16, Revision A.03,
 Gaussian 16:  ES64L-G16RevA.03 25-Dec-2016

 -------------------------------------
 # td=(NStates=1) CAM-B3LYP/6-31G(d,p)
 -------------------------------------

 --
 TD
 --
 Symbolic Z-matrix:
 Charge =  0 Multiplicity = 1

                         Standard orientation:
 ---------------------------------------------------------------------
 Center     Atomic      Atomic             Coordinates (Angstroms)
 Number     Number       Type             X           Y           Z
 ---------------------------------------------------------------------
      1          8           0      -11.652559    0.236373   -1.546809
      2          8           0      -13.331439   -2.547387    1.410559
      3          8           0       10.569519   -0.774499   -2.030354
      4          8           0       14.424368   -1.163901   -0.161455
      5          6           0      -11.039063   -0.231974   -0.256573
      6          6           0      -11.676795   -1.213738   -1.221932
      7          6           0      -11.842892    0.290189    0.981687
      8          6           0      -13.073436   -1.678027   -1.114978
      9          6           0      -13.361083   -0.051814    0.836025
     10          6           0      -13.605573   -1.517264    0.383042
     11          6           0      -10.715066   -1.869375   -2.244781
     12          6           0       -9.566937    0.123773   -0.275246
     13          6           0      -11.169626   -0.265762    2.295754
     14          6           0      -11.768001    1.776383    1.073603
     15          6           0       -8.536936   -0.744172    0.075464
     16          6           0       -7.202720   -0.467355    0.145574
     17          6           0       -6.353202   -1.737474    0.328729
     18          6           0       -6.599848    0.681741    0.021039
     19          6           0       -5.237273    0.917612   -0.022866
     20          6           0       11.922822   -0.094565    1.427953
     21          6           0       11.689123   -0.466859   -1.203258
     22          6           0       12.634258   -1.425786    1.444126
     23          6           0       13.193905   -1.934817    0.275969
     24          6           0       12.355141   -1.821599   -1.053891
     25          6           0       11.112713    0.058170    0.167330
     26          6           0       11.110462   -0.007922    2.657769
     27          6           0       12.955763    1.070474    1.528716
     28          6           0       12.631375    0.591687   -1.967599
     29          6           0       -4.717657    2.229644   -0.204004
     30          6           0        9.942760    0.623610    0.151303
     31          6           0       -3.320115    2.646374   -0.329420
     32          6           0        8.660006    0.986439   -0.011749
     33          6           0       -3.028553    4.142626   -0.655740
     34          6           0       -2.288499    1.747882   -0.178149
     35          6           0        7.487917    0.114837   -0.005548
     36          6           0        7.778022   -1.379300   -0.045449
     37          6           0        6.310321    0.758726   -0.184637
     38          6           0       -0.872442    1.951202   -0.250210
     39          6           0        5.004022    0.150527    0.061744
     40          6           0        0.112734    0.971625   -0.285336
     41          6           0        3.841561    0.774589   -0.192432
     42          6           0        1.405948    1.167545   -0.177499
     43          6           0        2.531413    0.310954   -0.014498
     44          6           0        2.295205   -1.178961    0.079139
     45          1           0      -13.215194   -2.789009   -1.327216
     46          1           0      -13.821621   -1.248992   -1.660579
     47          1           0      -13.531638   -0.119888    1.853361
     48          1           0      -13.673349    0.856986    0.303260
     49          1           0      -14.719506   -1.564522    0.375952
     50          1           0      -10.355370   -2.789229   -1.844297
     51          1           0      -11.444652   -2.061196   -3.046379
     52          1           0       -9.853925   -1.225273   -2.385311
     53          1           0       -9.386617    1.043625   -0.800299
     54          1           0      -10.001741   -0.098364    2.440188
     55          1           0      -11.691722    0.168246    3.079302
     56          1           0      -11.635938   -1.303695    2.538301
     57          1           0      -12.173217    2.037073    0.132955
     58          1           0      -12.412574    2.214283    1.780464
     59          1           0      -10.789838    2.299155    1.261669
     60          1           0      -12.508424   -2.749546    1.172570
     61          1           0       -8.808021   -1.904084    0.280241
     62          1           0       -5.902150   -2.224080   -0.611209
     63          1           0       -5.474868   -1.552154    0.968624
     64          1           0       -7.020528   -2.470972    0.712321
     65          1           0       -7.299787    1.547021   -0.067901
     66          1           0       -4.634923   -0.005749    0.081048
     67          1           0       13.506293   -1.301876    2.367504
     68          1           0       11.773319   -2.159232    1.651908
     69          1           0       13.640794   -2.832119    0.464799
     70          1           0       12.725726   -2.078077   -2.139322
     71          1           0       11.499773   -2.540647   -0.950405
     72          1           0       11.542404   -0.331565    3.547307
     73          1           0       10.692244    0.995932    2.572910
     74          1           0       10.178579   -0.698387    2.362563
     75          1           0       13.585322    1.121208    0.459525
     76          1           0       12.339149    2.089234    1.515646
     77          1           0       13.656598    1.067781    2.365285
     78          1           0       12.619031    0.217606   -2.950002
     79          1           0       12.042980    1.539946   -1.985236
     80          1           0       13.642285    0.561328   -1.340201
     81          1           0       -5.558599    3.070636   -0.417021
     82          1           0       10.182588    0.222010   -2.157092
     83          1           0       15.155918   -1.482731    0.290906
     84          1           0        8.587611    2.001340   -0.217549
     85          1           0       -2.241728    4.686238   -0.025976
     86          1           0       -2.818916    4.255409   -1.726836
     87          1           0       -4.008157    4.707426   -0.538827
     88          1           0       -2.647038    0.702827   -0.261684
     89          1           0        6.879598   -1.868813   -0.641861
     90          1           0        8.536271   -1.644558   -0.861177
     91          1           0        8.037989   -1.745681    1.059056
     92          1           0        6.335579    1.928959   -0.245653
     93          1           0       -0.479042    2.922677   -0.217393
     94          1           0        5.037692   -0.963850    0.057811
     95          1           0       -0.342478   -0.035224   -0.345249
     96          1           0        3.791221    1.947737   -0.372782
     97          1           0        1.744326    2.275303   -0.261570
     98          1           0        1.168055   -1.243118    0.069165
     99          1           0        2.789177   -1.661354   -0.880487
    100          1           0        2.683401   -1.789753    0.904298
 ---------------------------------------------------------------------

 SCF Done:  E(RCAM-B3LYP) =  -1857.33513014     A.U. after   15 cycles

 Excitation energies and oscillator strengths:

 Excited State   1:      Singlet-A      2.1282 eV  582.58 nm  f=3.1635  <S**2>=0.000
     163 ->166         0.13397
     164 ->165         0.69567
 This state for optimization and/or second-order correction.
 Total Energy, E(TD-HF/TD-DFT) =  -1857.25692103
 Copying the excited state density for this state as the 1-particle RhoCI density.

 The electronic state is 1-A.
 Alpha  occ. eigenvalues --  -19.22232 -19.21906 -19.20965 -19.19865 -10.32507
 Alpha  occ. eigenvalues --  -10.32131 -10.31979 -10.31939 -10.30740 -10.28995
 Alpha  occ. eigenvalues --  -10.28545 -10.27831 -10.27773 -10.27755 -10.27416
 Alpha  occ. eigenvalues --  -10.27386 -10.27369 -10.27199 -10.27157 -10.27127
 Alpha  occ. eigenvalues --  -10.26978 -10.26924 -10.26911 -10.26714 -10.26707
 Alpha  occ. eigenvalues --  -10.26674 -10.26669 -10.26665 -10.26608 -10.26571
 Alpha  occ. eigenvalues --  -10.26527 -10.26480 -10.26369 -10.26311 -10.26113
 Alpha  occ. eigenvalues --  -10.26099 -10.25787 -10.25480 -10.25068 -10.24987
 Alpha  occ. eigenvalues --  -10.24868 -10.24769 -10.24322 -10.23218  -1.11690
 Alpha  occ. eigenvalues --   -1.11136  -1.08868  -1.08118  -0.94050  -0.93272
 Alpha  occ. eigenvalues --   -0.92329  -0.91068  -0.90947  -0.89994  -0.87734
 Alpha  occ. eigenvalues --   -0.87022  -0.86422  -0.85394  -0.84693  -0.82842
 Alpha  occ. eigenvalues --   -0.82009  -0.80677  -0.80328  -0.78292  -0.76978
 Alpha  occ. eigenvalues --   -0.76509  -0.76483  -0.76075  -0.76006  -0.75553
 Alpha  occ. eigenvalues --   -0.74651  -0.74549  -0.73069  -0.70846  -0.70094
 Alpha  occ. eigenvalues --   -0.69228  -0.67263  -0.65682  -0.64256  -0.63827
 Alpha  occ. eigenvalues --   -0.63329  -0.61695  -0.60761  -0.59480  -0.58949
 Alpha  occ. eigenvalues --   -0.58719  -0.58456  -0.57668  -0.56743  -0.56593
 Alpha  occ. eigenvalues --   -0.55584  -0.55338  -0.55043  -0.54294  -0.53897
 Alpha  occ. eigenvalues --   -0.53690  -0.53124  -0.52366  -0.51872  -0.51569
 Alpha  occ. eigenvalues --   -0.51449  -0.50913  -0.50814  -0.49823  -0.49305
 Alpha  occ. eigenvalues --   -0.49286  -0.48983  -0.48552  -0.48189  -0.48156
 Alpha  occ. eigenvalues --   -0.47677  -0.47540  -0.47308  -0.47140  -0.47017
 Alpha  occ. eigenvalues --   -0.46816  -0.46661  -0.45960  -0.45718  -0.45479
 Alpha  occ. eigenvalues --   -0.45243  -0.44478  -0.44459  -0.43790  -0.43692
 Alpha  occ. eigenvalues --   -0.43311  -0.43170  -0.43015  -0.42773  -0.42635
 Alpha  occ. eigenvalues --   -0.42028  -0.41954  -0.41560  -0.41317  -0.40965
 Alpha  occ. eigenvalues --   -0.40847  -0.40816  -0.40154  -0.39987  -0.39892
 Alpha  occ. eigenvalues --   -0.39578  -0.39305  -0.39065  -0.38764  -0.38435
 Alpha  occ. eigenvalues --   -0.38226  -0.38148  -0.37662  -0.37256  -0.36351
 Alpha  occ. eigenvalues --   -0.36121  -0.35917  -0.35761  -0.34728  -0.34195
 Alpha  occ. eigenvalues --   -0.32731  -0.32582  -0.32100  -0.31541  -0.31305
 Alpha  occ. eigenvalues --   -0.30190  -0.27858  -0.24635  -0.19879
 Alpha virt. eigenvalues --   -0.06619  -0.01338   0.02824   0.06357   0.06774
 Alpha virt. eigenvalues --    0.09664   0.10306   0.11092   0.11703   0.11866
 Alpha virt. eigenvalues --    0.11970   0.12289   0.12591   0.12997   0.13216

 Mulliken charges:
               1
     1  O   -0.527925
     2  O   -0.516586
     3  O   -0.552797
     4  O   -0.570315
     5  C    0.204837
     6  C    0.209828
     7  C    0.004187
     8  C   -0.221325
     9  C   -0.182790
    10  C    0.093118
    11  C   -0.301681
    12  C   -0.130383
    13  C   -0.334091
    14  C   -0.324152
    15  C   -0.106874
    16  C    0.134214
    17  C   -0.383158
    18  C   -0.097055
    19  C   -0.070505
    20  C    0.010317
    21  C    0.219328
    22  C   -0.145351
    23  C    0.132362
    24  C   -0.179997
    25  C   -0.039799
    26  C   -0.279441
    27  C   -0.279896
    28  C   -0.308864
    29  C   -0.137733
    30  C    0.063752
    31  C    0.093648
    32  C   -0.239556
    33  C   -0.375448
    34  C   -0.121385
    35  C    0.137369
    36  C   -0.377365
    37  C   -0.115810
    38  C   -0.084036
    39  C   -0.107609
    40  C   -0.060793
    41  C   -0.098136
    42  C   -0.129383
    43  C    0.119643
    44  C   -0.367955
    45  H    0.100543
    46  H    0.148096
    47  H    0.116198
    48  H    0.120195
    49  H    0.101754
    50  H    0.098567
    51  H    0.111529
    52  H    0.134136
    53  H    0.125610
    54  H    0.110282
    55  H    0.111174
    56  H    0.084268
    57  H    0.122137
    58  H    0.108694
    59  H    0.095787
    60  H    0.296974
    61  H    0.074513
    62  H    0.112392
    63  H    0.116703
    64  H    0.108225
    65  H    0.073310
    66  H    0.092843
    67  H    0.067753
    68  H    0.095043
    69  H    0.095435
    70  H    0.116573
    71  H    0.107559
    72  H    0.107733
    73  H    0.110006
    74  H    0.074531
    75  H    0.092828
    76  H    0.079713
    77  H    0.099199
    78  H    0.119309
    79  H    0.083183
    80  H    0.147977
    81  H    0.083903
    82  H    0.303532
    83  H    0.290215
    84  H    0.102109
    85  H    0.120767
    86  H    0.134193
    87  H    0.103055
    88  H    0.077621
    89  H    0.096576
    90  H    0.156548
    91  H    0.116480
    92  H    0.081308
    93  H    0.077143
    94  H    0.090038
    95  H    0.083191
    96  H    0.065191
    97  H    0.071233
    98  H    0.100700
    99  H    0.106777
   100  H    0.124239
 Sum of Mulliken charges =  -0.00000

 Dipole moment (field-independent basis, Debye):
    X=              2.7928    Y=             -1.0843    Z=              0.6798  Tot=              3.0720
 Quadrupole moment (field-independent basis, Debye-Ang):
   XX=           -263.7072   YY=           -256.8247   ZZ=           -279.9065
   XY=            -12.4628   XZ=             27.7386   YZ=             -1.0712

 Normal termination of Gaussian 16 at Tue Jul 30 05:28:13 2019.
