 Gaussian 16, Revision A.03,
 Gaussian 16:  ES64L-G16RevA.03 25-Dec-2016

 -------------------------------------
 # td=(NStates=1) CAM-B3LYP/6-31G(d,p)
 -------------------------------------

 --
 TD
 --
 Symbolic Z-matrix:
 Charge =  0 Multiplicity = 1

                         Standard orientation:
 ---------------------------------------------------------------------
 Center     Atomic      Atomic             Coordinates (Angstroms)
 Number     Number       Type             X           Y           Z
 ---------------------------------------------------------------------
      1          8           0      -11.835569    0.397529   -1.513841
      2          8           0      -13.031976   -2.335646    1.353316
      3          8           0       10.626874   -1.246581   -1.977962
      4          8           0       14.559107   -0.889689    0.061340
      5          6           0      -11.136830   -0.052552   -0.351345
      6          6           0      -11.766878   -1.031586   -1.234300
      7          6           0      -11.721290    0.352434    1.021539
      8          6           0      -13.184357   -1.600599   -0.970775
      9          6           0      -13.279371    0.039287    0.883223
     10          6           0      -13.617428   -1.332364    0.473197
     11          6           0      -10.924883   -1.814303   -2.209872
     12          6           0       -9.664988    0.043857   -0.352782
     13          6           0      -11.110902   -0.305942    2.344952
     14          6           0      -11.548484    1.906273    0.991948
     15          6           0       -8.702718   -0.739580    0.204065
     16          6           0       -7.337299   -0.531571    0.230154
     17          6           0       -6.489301   -1.717515    0.770568
     18          6           0       -6.707648    0.707598    0.071601
     19          6           0       -5.219427    0.902158   -0.107751
     20          6           0       11.982669    0.401283    1.353899
     21          6           0       11.690074   -0.718325   -1.185309
     22          6           0       12.742355   -0.899104    1.652412
     23          6           0       13.354356   -1.653232    0.578336
     24          6           0       12.453719   -2.011820   -0.657597
     25          6           0       11.137529    0.081562    0.047470
     26          6           0       11.020374    0.841346    2.516280
     27          6           0       12.969317    1.419819    1.155163
     28          6           0       12.564933    0.075369   -2.227997
     29          6           0       -4.657828    2.141601   -0.293894
     30          6           0        9.869272    0.472754   -0.122726
     31          6           0       -3.247815    2.395374   -0.564376
     32          6           0        8.620474    0.823786   -0.286472
     33          6           0       -2.982008    3.839332   -0.768876
     34          6           0       -2.290731    1.453429   -0.486075
     35          6           0        7.439634   -0.039200   -0.059314
     36          6           0        7.688987   -1.417082    0.472505
     37          6           0        6.226001    0.570961   -0.197069
     38          6           0       -0.910689    1.777963   -0.476366
     39          6           0        4.944931   -0.099082   -0.058119
     40          6           0        0.037610    0.769938   -0.286644
     41          6           0        3.851484    0.673959   -0.283644
     42          6           0        1.481818    1.011196   -0.298246
     43          6           0        2.561135    0.160566   -0.193460
     44          6           0        2.217778   -1.322905    0.109612
     45          1           0      -12.965163   -2.792977   -0.954157
     46          1           0      -13.755732   -0.957510   -1.711391
     47          1           0      -13.706339    0.292042    1.922578
     48          1           0      -13.665368    0.764432    0.021641
     49          1           0      -14.790933   -1.657929    0.568768
     50          1           0      -10.973539   -2.918219   -1.896959
     51          1           0      -11.451158   -1.815131   -3.150358
     52          1           0       -9.968690   -1.418472   -2.228400
     53          1           0       -9.150167    1.010766   -0.903956
     54          1           0      -10.166580    0.296391    2.461962
     55          1           0      -11.638310    0.006025    3.172560
     56          1           0      -10.945129   -1.344491    2.372219
     57          1           0      -12.060680    2.244417   -0.050326
     58          1           0      -12.291906    2.426223    1.634155
     59          1           0      -10.439171    2.210019    1.230483
     60          1           0      -12.246445   -2.946427    0.946075
     61          1           0       -9.150977   -1.657285    0.652961
     62          1           0       -5.802757   -2.036983   -0.028951
     63          1           0       -6.111391   -1.870848    1.805196
     64          1           0       -7.264048   -2.478323    0.872974
     65          1           0       -7.247333    1.704106    0.008017
     66          1           0       -4.660281    0.048526    0.085377
     67          1           0       13.431022   -0.674746    2.665466
     68          1           0       11.955511   -1.627854    2.249619
     69          1           0       13.922568   -2.705004    0.802366
     70          1           0       12.901319   -2.217461   -1.561372
     71          1           0       11.706090   -2.663484   -0.266939
     72          1           0       11.574883    1.261452    3.575773
     73          1           0       10.576632    1.682312    2.087852
     74          1           0       10.246636    0.067530    2.963414
     75          1           0       13.711845    1.305165    0.324658
     76          1           0       12.498292    2.436787    0.715595
     77          1           0       13.609542    1.710525    1.891050
     78          1           0       12.713728   -0.565475   -3.272747
     79          1           0       11.937628    0.806417   -2.681767
     80          1           0       13.460102    0.630879   -1.779728
     81          1           0       -5.243965    3.058345   -0.305241
     82          1           0       10.177001   -0.597429   -2.538500
     83          1           0       15.340772   -1.087571    0.650987
     84          1           0        8.363103    1.685420   -0.769339
     85          1           0       -2.403282    4.066657    0.185448
     86          1           0       -2.217455    4.557212   -1.556137
     87          1           0       -3.905616    4.590804   -0.652494
     88          1           0       -2.490587    0.377777   -0.366393
     89          1           0        6.879161   -2.062367    0.345389
     90          1           0        8.434377   -1.998030   -0.157298
     91          1           0        8.153947   -1.567155    1.479258
     92          1           0        6.352561    1.670058   -0.458921
     93          1           0       -0.718755    2.815347   -0.461837
     94          1           0        4.930558   -1.292920    0.277870
     95          1           0       -0.386106   -0.238502   -0.032609
     96          1           0        3.853668    1.750559   -0.713048
     97          1           0        1.796544    2.072930   -0.612936
     98          1           0        1.274350   -1.610404   -0.029300
     99          1           0        2.931136   -1.804513   -0.612447
    100          1           0        2.415955   -1.797022    1.177523
 ---------------------------------------------------------------------

 SCF Done:  E(RCAM-B3LYP) =  -1857.29465550     A.U. after   14 cycles

 Excitation energies and oscillator strengths:

 Excited State   1:      Singlet-A      2.4395 eV  508.24 nm  f=3.0317  <S**2>=0.000
     163 ->166         0.15370
     164 ->165         0.68416
 This state for optimization and/or second-order correction.
 Total Energy, E(TD-HF/TD-DFT) =  -1857.20500676
 Copying the excited state density for this state as the 1-particle RhoCI density.

 The electronic state is 1-A.
 Alpha  occ. eigenvalues --  -19.22654 -19.21614 -19.20803 -19.20606 -10.32822
 Alpha  occ. eigenvalues --  -10.32704 -10.31961 -10.31886 -10.31681 -10.28946
 Alpha  occ. eigenvalues --  -10.28742 -10.28258 -10.28142 -10.28010 -10.27910
 Alpha  occ. eigenvalues --  -10.27817 -10.27656 -10.27556 -10.27518 -10.27474
 Alpha  occ. eigenvalues --  -10.27219 -10.27055 -10.26966 -10.26774 -10.26741
 Alpha  occ. eigenvalues --  -10.26638 -10.26615 -10.26598 -10.26568 -10.26482
 Alpha  occ. eigenvalues --  -10.26310 -10.26217 -10.26151 -10.26150 -10.25969
 Alpha  occ. eigenvalues --  -10.25882 -10.25636 -10.25596 -10.25562 -10.25224
 Alpha  occ. eigenvalues --  -10.25011 -10.24687 -10.24089 -10.23718  -1.15367
 Alpha  occ. eigenvalues --   -1.09219  -1.06710  -1.06184  -0.92694  -0.92292
 Alpha  occ. eigenvalues --   -0.91610  -0.91207  -0.89923  -0.89361  -0.86861
 Alpha  occ. eigenvalues --   -0.86392  -0.85725  -0.85058  -0.84195  -0.82753
 Alpha  occ. eigenvalues --   -0.81795  -0.80470  -0.80044  -0.77576  -0.77065
 Alpha  occ. eigenvalues --   -0.76319  -0.76225  -0.75817  -0.75794  -0.75340
 Alpha  occ. eigenvalues --   -0.75096  -0.74219  -0.73239  -0.69767  -0.68927
 Alpha  occ. eigenvalues --   -0.67877  -0.66357  -0.64871  -0.64668  -0.63897
 Alpha  occ. eigenvalues --   -0.63260  -0.61396  -0.60354  -0.59497  -0.59441
 Alpha  occ. eigenvalues --   -0.58202  -0.57741  -0.57575  -0.56671  -0.55707
 Alpha  occ. eigenvalues --   -0.55523  -0.54942  -0.54742  -0.54275  -0.53970
 Alpha  occ. eigenvalues --   -0.53861  -0.52954  -0.52489  -0.52191  -0.51471
 Alpha  occ. eigenvalues --   -0.50986  -0.50907  -0.50418  -0.49351  -0.48914
 Alpha  occ. eigenvalues --   -0.48702  -0.48583  -0.48369  -0.48307  -0.47899
 Alpha  occ. eigenvalues --   -0.47819  -0.47177  -0.46684  -0.46445  -0.46214
 Alpha  occ. eigenvalues --   -0.46160  -0.46004  -0.45643  -0.45324  -0.45008
 Alpha  occ. eigenvalues --   -0.44374  -0.44022  -0.43964  -0.43732  -0.43431
 Alpha  occ. eigenvalues --   -0.43192  -0.42792  -0.42672  -0.42529  -0.42174
 Alpha  occ. eigenvalues --   -0.41713  -0.41532  -0.41223  -0.40801  -0.40598
 Alpha  occ. eigenvalues --   -0.40376  -0.40152  -0.39953  -0.39715  -0.39583
 Alpha  occ. eigenvalues --   -0.39175  -0.39148  -0.38501  -0.38401  -0.38310
 Alpha  occ. eigenvalues --   -0.37939  -0.37701  -0.37341  -0.37077  -0.36476
 Alpha  occ. eigenvalues --   -0.35880  -0.34993  -0.34808  -0.34526  -0.33566
 Alpha  occ. eigenvalues --   -0.32801  -0.32700  -0.32069  -0.31535  -0.31046
 Alpha  occ. eigenvalues --   -0.29172  -0.27435  -0.24155  -0.20229
 Alpha virt. eigenvalues --   -0.04952  -0.00649   0.03307   0.06608   0.07115
 Alpha virt. eigenvalues --    0.07318   0.09139   0.10421   0.11449   0.11997
 Alpha virt. eigenvalues --    0.12227   0.12442   0.12504   0.13111   0.13658

 Mulliken charges:
               1
     1  O   -0.512365
     2  O   -0.581879
     3  O   -0.569429
     4  O   -0.576774
     5  C    0.258982
     6  C    0.189304
     7  C    0.020742
     8  C   -0.217009
     9  C   -0.188468
    10  C    0.209353
    11  C   -0.308392
    12  C   -0.144838
    13  C   -0.291534
    14  C   -0.321352
    15  C   -0.060966
    16  C    0.064577
    17  C   -0.377022
    18  C   -0.114029
    19  C   -0.067000
    20  C    0.041224
    21  C    0.249686
    22  C   -0.162058
    23  C    0.132818
    24  C   -0.151870
    25  C   -0.102841
    26  C   -0.289579
    27  C   -0.296880
    28  C   -0.316424
    29  C   -0.119540
    30  C    0.188711
    31  C    0.114285
    32  C   -0.312844
    33  C   -0.392720
    34  C   -0.112057
    35  C    0.135216
    36  C   -0.390876
    37  C   -0.109961
    38  C   -0.059934
    39  C   -0.115702
    40  C   -0.107725
    41  C   -0.101868
    42  C   -0.149509
    43  C    0.125787
    44  C   -0.352080
    45  H    0.079162
    46  H    0.137132
    47  H    0.092644
    48  H    0.100595
    49  H    0.080192
    50  H    0.081743
    51  H    0.124102
    52  H    0.131765
    53  H    0.085264
    54  H    0.092412
    55  H    0.115378
    56  H    0.109347
    57  H    0.113745
    58  H    0.101272
    59  H    0.103731
    60  H    0.302176
    61  H    0.070309
    62  H    0.123185
    63  H    0.127701
    64  H    0.101925
    65  H    0.084822
    66  H    0.089399
    67  H    0.074792
    68  H    0.074495
    69  H    0.076928
    70  H    0.124723
    71  H    0.122144
    72  H    0.065295
    73  H    0.129311
    74  H    0.098641
    75  H    0.131593
    76  H    0.064978
    77  H    0.111343
    78  H    0.089674
    79  H    0.095426
    80  H    0.129193
    81  H    0.086350
    82  H    0.307089
    83  H    0.305966
    84  H    0.098333
    85  H    0.128995
    86  H    0.098808
    87  H    0.103987
    88  H    0.081726
    89  H    0.106017
    90  H    0.126796
    91  H    0.121770
    92  H    0.081530
    93  H    0.086172
    94  H    0.106152
    95  H    0.085177
    96  H    0.093789
    97  H    0.064180
    98  H    0.117905
    99  H    0.109066
   100  H    0.098493
 Sum of Mulliken charges =  -0.00000

 Dipole moment (field-independent basis, Debye):
    X=              2.2302    Y=             -1.0920    Z=              1.1232  Tot=              2.7254
 Quadrupole moment (field-independent basis, Debye-Ang):
   XX=           -266.0939   YY=           -255.9366   ZZ=           -275.3523
   XY=              6.1794   XZ=             19.1522   YZ=             -3.0091

 Normal termination of Gaussian 16 at Mon Jul 29 03:45:57 2019.
