 Gaussian 16, Revision A.03,
 Gaussian 16:  ES64L-G16RevA.03 25-Dec-2016

 -------------------------------------
 # td=(NStates=1) CAM-B3LYP/6-31G(d,p)
 -------------------------------------

 --
 TD
 --
 Symbolic Z-matrix:
 Charge =  0 Multiplicity = 1

                         Standard orientation:
 ---------------------------------------------------------------------
 Center     Atomic      Atomic             Coordinates (Angstroms)
 Number     Number       Type             X           Y           Z
 ---------------------------------------------------------------------
      1          8           0      -11.693943    0.268536   -1.443126
      2          8           0      -13.043203   -2.376737    1.399930
      3          8           0       10.672804   -1.136837   -2.036076
      4          8           0       14.435628   -1.058186   -0.046279
      5          6           0      -11.047885   -0.158772   -0.305203
      6          6           0      -11.688590   -1.171280   -1.244263
      7          6           0      -11.696035    0.331967    0.959570
      8          6           0      -12.983997   -1.790872   -0.912420
      9          6           0      -13.178859   -0.018453    0.873187
     10          6           0      -13.516202   -1.447412    0.518954
     11          6           0      -10.848368   -1.935303   -2.340719
     12          6           0       -9.507567    0.100438   -0.271677
     13          6           0      -10.933628   -0.207730    2.172351
     14          6           0      -11.577680    1.910856    1.016434
     15          6           0       -8.582367   -0.813950    0.168962
     16          6           0       -7.155134   -0.614080    0.168711
     17          6           0       -6.205540   -1.774668    0.501758
     18          6           0       -6.663579    0.625554   -0.206023
     19          6           0       -5.338174    1.022456   -0.090077
     20          6           0       11.854975    0.207319    1.287377
     21          6           0       11.623607   -0.695041   -1.193230
     22          6           0       12.532127   -1.278679    1.503928
     23          6           0       13.247084   -1.866550    0.369762
     24          6           0       12.419423   -1.912107   -0.847030
     25          6           0       11.012334    0.044975    0.051608
     26          6           0       10.862354    0.448949    2.541240
     27          6           0       12.778160    1.396825    1.280743
     28          6           0       12.361748    0.392367   -2.008942
     29          6           0       -4.689707    2.237117   -0.322520
     30          6           0        9.848681    0.510434   -0.096800
     31          6           0       -3.365270    2.603222   -0.371404
     32          6           0        8.613980    0.900074   -0.187161
     33          6           0       -3.015295    4.001914   -0.842594
     34          6           0       -2.301897    1.631637   -0.192768
     35          6           0        7.378242    0.074856   -0.026481
     36          6           0        7.656975   -1.363492    0.318948
     37          6           0        6.273649    0.731525   -0.144247
     38          6           0       -0.929613    1.781305   -0.278009
     39          6           0        4.990119    0.203556    0.100167
     40          6           0        0.079402    0.814437   -0.197805
     41          6           0        3.742506    0.839604   -0.171564
     42          6           0        1.420365    1.109097   -0.251141
     43          6           0        2.469179    0.277526   -0.123562
     44          6           0        2.225305   -1.242626    0.196564
     45          1           0      -13.146066   -2.942260   -0.946209
     46          1           0      -13.545217   -1.299709   -1.666081
     47          1           0      -13.610821    0.073320    1.863915
     48          1           0      -13.832795    0.538108    0.215333
     49          1           0      -14.609466   -1.519292    0.609478
     50          1           0      -10.530438   -2.959009   -2.013534
     51          1           0      -11.307930   -2.170245   -3.201811
     52          1           0       -9.926811   -1.171506   -2.426944
     53          1           0       -8.968616    0.891165   -0.821418
     54          1           0       -9.797247    0.435499    2.203018
     55          1           0      -11.488088   -0.147660    3.125374
     56          1           0      -10.655437   -1.302755    2.254314
     57          1           0      -12.094418    2.299673    0.138321
     58          1           0      -12.102897    2.259920    1.978305
     59          1           0      -10.476401    2.324637    0.965219
     60          1           0      -12.123420   -2.409038    1.344570
     61          1           0       -8.854563   -1.805549    0.557924
     62          1           0       -5.706074   -1.810455   -0.395445
     63          1           0       -5.470095   -1.553208    1.380284
     64          1           0       -6.752402   -2.739266    0.841954
     65          1           0       -7.205247    1.628999   -0.106213
     66          1           0       -4.640573    0.203678    0.092511
     67          1           0       13.492662   -1.133196    2.202287
     68          1           0       11.702448   -1.949111    1.662674
     69          1           0       13.459810   -2.925779    0.701166
     70          1           0       13.063253   -2.429413   -1.700992
     71          1           0       11.821471   -2.779906   -0.807331
     72          1           0       11.433161    0.746514    3.606088
     73          1           0       10.148254    1.225170    2.518333
     74          1           0       10.263201   -0.342000    2.710729
     75          1           0       13.178133    1.395368    0.262490
     76          1           0       12.031965    2.390626    1.187788
     77          1           0       13.484911    1.186726    2.171947
     78          1           0       12.552468   -0.139929   -2.939592
     79          1           0       11.787244    1.257564   -2.270346
     80          1           0       13.164413    0.584854   -1.572142
     81          1           0       -5.244192    3.016181   -0.512699
     82          1           0       10.126652   -0.300140   -2.175769
     83          1           0       15.191569   -1.104567    0.648254
     84          1           0        8.374727    1.958301   -0.579801
     85          1           0       -2.019314    4.479686   -0.113341
     86          1           0       -2.627792    3.993951   -1.973198
     87          1           0       -3.704427    4.757741   -0.901910
     88          1           0       -2.577242    0.565495   -0.212063
     89          1           0        6.812944   -2.059599    0.028428
     90          1           0        8.968324   -1.720804    0.011243
     91          1           0        7.718493   -1.547321    1.467266
     92          1           0        6.449691    1.591283   -0.432325
     93          1           0       -0.453217    2.713425   -0.791109
     94          1           0        4.909937   -0.803637    0.235103
     95          1           0       -0.478342   -0.012550    0.155656
     96          1           0        3.753755    1.859634   -0.490786
     97          1           0        1.536211    2.214468   -0.408841
     98          1           0        1.274307   -1.257908    0.534019
     99          1           0        2.357784   -1.917279   -0.811275
    100          1           0        2.932487   -1.355083    1.173847
 ---------------------------------------------------------------------

 SCF Done:  E(RCAM-B3LYP) =  -1857.21395293     A.U. after   16 cycles

 Excitation energies and oscillator strengths:

 Excited State   1:      Singlet-A      1.9307 eV  642.18 nm  f=2.8603  <S**2>=0.000
     163 ->166         0.11955
     164 ->165         0.70296
     164 <-165        -0.11978
 This state for optimization and/or second-order correction.
 Total Energy, E(TD-HF/TD-DFT) =  -1857.14300154
 Copying the excited state density for this state as the 1-particle RhoCI density.

 The electronic state is 1-A.
 Alpha  occ. eigenvalues --  -19.22905 -19.22046 -19.21000 -19.20833 -10.33209
 Alpha  occ. eigenvalues --  -10.32530 -10.31199 -10.31014 -10.30266 -10.28703
 Alpha  occ. eigenvalues --  -10.28631 -10.28387 -10.28006 -10.27960 -10.27908
 Alpha  occ. eigenvalues --  -10.27415 -10.27317 -10.27226 -10.27208 -10.27016
 Alpha  occ. eigenvalues --  -10.26991 -10.26941 -10.26890 -10.26853 -10.26611
 Alpha  occ. eigenvalues --  -10.26549 -10.26509 -10.26408 -10.26349 -10.26182
 Alpha  occ. eigenvalues --  -10.26133 -10.26093 -10.26076 -10.26046 -10.25787
 Alpha  occ. eigenvalues --  -10.25770 -10.25677 -10.25533 -10.25080 -10.24834
 Alpha  occ. eigenvalues --  -10.24326 -10.24318 -10.23375 -10.21471  -1.16990
 Alpha  occ. eigenvalues --   -1.12488  -1.12274  -1.06918  -0.93223  -0.92625
 Alpha  occ. eigenvalues --   -0.92355  -0.91642  -0.90975  -0.90296  -0.87725
 Alpha  occ. eigenvalues --   -0.87121  -0.86868  -0.85079  -0.84522  -0.83067
 Alpha  occ. eigenvalues --   -0.82146  -0.80923  -0.80567  -0.78312  -0.77177
 Alpha  occ. eigenvalues --   -0.76833  -0.76727  -0.76382  -0.76149  -0.75489
 Alpha  occ. eigenvalues --   -0.75102  -0.74124  -0.73788  -0.71103  -0.69981
 Alpha  occ. eigenvalues --   -0.68950  -0.67869  -0.65806  -0.65428  -0.64506
 Alpha  occ. eigenvalues --   -0.63227  -0.62175  -0.61351  -0.60878  -0.60350
 Alpha  occ. eigenvalues --   -0.59526  -0.58603  -0.58212  -0.57169  -0.57041
 Alpha  occ. eigenvalues --   -0.56050  -0.55797  -0.55032  -0.54966  -0.54723
 Alpha  occ. eigenvalues --   -0.54175  -0.53211  -0.52784  -0.52554  -0.51806
 Alpha  occ. eigenvalues --   -0.51398  -0.51093  -0.50378  -0.50308  -0.50005
 Alpha  occ. eigenvalues --   -0.49652  -0.49630  -0.49358  -0.48480  -0.48396
 Alpha  occ. eigenvalues --   -0.47946  -0.47396  -0.47103  -0.46568  -0.46504
 Alpha  occ. eigenvalues --   -0.46263  -0.45945  -0.45785  -0.45691  -0.44627
 Alpha  occ. eigenvalues --   -0.44588  -0.44519  -0.44100  -0.43580  -0.43474
 Alpha  occ. eigenvalues --   -0.43293  -0.43258  -0.43198  -0.42965  -0.42382
 Alpha  occ. eigenvalues --   -0.42236  -0.41668  -0.41540  -0.41382  -0.41286
 Alpha  occ. eigenvalues --   -0.41264  -0.40807  -0.40410  -0.40340  -0.40220
 Alpha  occ. eigenvalues --   -0.40108  -0.39562  -0.39463  -0.39224  -0.38573
 Alpha  occ. eigenvalues --   -0.38409  -0.38368  -0.37365  -0.37047  -0.36741
 Alpha  occ. eigenvalues --   -0.36016  -0.35803  -0.35343  -0.34386  -0.34061
 Alpha  occ. eigenvalues --   -0.33091  -0.32744  -0.32186  -0.31566  -0.31018
 Alpha  occ. eigenvalues --   -0.29449  -0.28190  -0.24505  -0.19088
 Alpha virt. eigenvalues --   -0.07013  -0.01029   0.02903   0.06677   0.07401
 Alpha virt. eigenvalues --    0.08870   0.10233   0.10832   0.11466   0.12093
 Alpha virt. eigenvalues --    0.12503   0.13033   0.13304   0.13524   0.13702

 Mulliken charges:
               1
     1  O   -0.499234
     2  O   -0.520964
     3  O   -0.543318
     4  O   -0.566346
     5  C    0.241652
     6  C    0.209193
     7  C    0.020301
     8  C   -0.218564
     9  C   -0.191286
    10  C    0.136792
    11  C   -0.318065
    12  C   -0.147455
    13  C   -0.301540
    14  C   -0.302364
    15  C   -0.062956
    16  C    0.081361
    17  C   -0.364947
    18  C   -0.126645
    19  C   -0.078234
    20  C    0.021729
    21  C    0.259909
    22  C   -0.156972
    23  C    0.133793
    24  C   -0.202579
    25  C   -0.128867
    26  C   -0.301613
    27  C   -0.274431
    28  C   -0.304778
    29  C   -0.100335
    30  C    0.212607
    31  C    0.113388
    32  C   -0.349085
    33  C   -0.355088
    34  C   -0.147780
    35  C    0.176247
    36  C   -0.381294
    37  C   -0.030309
    38  C   -0.093691
    39  C   -0.122106
    40  C   -0.075625
    41  C   -0.101427
    42  C   -0.121814
    43  C    0.093553
    44  C   -0.345235
    45  H    0.109103
    46  H    0.122462
    47  H    0.097694
    48  H    0.111524
    49  H    0.092635
    50  H    0.099771
    51  H    0.127771
    52  H    0.111413
    53  H    0.114087
    54  H    0.088084
    55  H    0.110111
    56  H    0.079359
    57  H    0.124635
    58  H    0.101405
    59  H    0.092189
    60  H    0.296877
    61  H    0.068155
    62  H    0.151851
    63  H    0.122259
    64  H    0.105484
    65  H    0.092256
    66  H    0.061951
    67  H    0.063205
    68  H    0.110907
    69  H    0.085973
    70  H    0.104913
    71  H    0.121823
    72  H    0.058268
    73  H    0.116395
    74  H    0.105355
    75  H    0.119236
    76  H    0.083379
    77  H    0.100684
    78  H    0.109140
    79  H    0.089632
    80  H    0.130569
    81  H    0.053621
    82  H    0.304444
    83  H    0.304202
    84  H    0.095875
    85  H    0.080804
    86  H    0.112979
    87  H    0.124581
    88  H    0.086024
    89  H    0.113500
    90  H    0.092648
    91  H    0.112572
    92  H    0.039579
    93  H    0.066135
    94  H    0.075879
    95  H    0.077900
    96  H    0.077186
    97  H    0.085298
    98  H    0.128708
    99  H    0.115326
   100  H    0.106610
 Sum of Mulliken charges =  -0.00000

 Dipole moment (field-independent basis, Debye):
    X=              0.6245    Y=             -1.0157    Z=              1.2782  Tot=              1.7480
 Quadrupole moment (field-independent basis, Debye-Ang):
   XX=           -267.3079   YY=           -259.5485   ZZ=           -277.7841
   XY=             -1.7335   XZ=             27.0164   YZ=             -4.8248

 Normal termination of Gaussian 16 at Fri Aug  2 06:21:46 2019.
