 Gaussian 16, Revision A.03,
 Gaussian 16:  ES64L-G16RevA.03 25-Dec-2016

 -------------------------------------
 # td=(NStates=1) CAM-B3LYP/6-31G(d,p)
 -------------------------------------

 --
 TD
 --
 Symbolic Z-matrix:
 Charge =  0 Multiplicity = 1

                         Standard orientation:
 ---------------------------------------------------------------------
 Center     Atomic      Atomic             Coordinates (Angstroms)
 Number     Number       Type             X           Y           Z
 ---------------------------------------------------------------------
      1          8           0      -11.742571    0.288820   -1.578306
      2          8           0      -12.818288   -2.425447    1.447430
      3          8           0       10.601500   -1.206373   -2.082202
      4          8           0       14.554151   -1.105822   -0.100986
      5          6           0      -11.146945   -0.133610   -0.326404
      6          6           0      -11.724532   -1.160581   -1.183926
      7          6           0      -11.770494    0.402703    0.915430
      8          6           0      -13.118893   -1.668366   -0.916039
      9          6           0      -13.216403   -0.027977    0.937993
     10          6           0      -13.447482   -1.504027    0.447584
     11          6           0      -10.927936   -1.982704   -2.159056
     12          6           0       -9.600430    0.085051   -0.396445
     13          6           0      -11.016015   -0.046155    2.146690
     14          6           0      -11.726875    1.960208    0.862926
     15          6           0       -8.697650   -0.809257    0.086147
     16          6           0       -7.228803   -0.616718    0.149104
     17          6           0       -6.451354   -1.845801    0.448288
     18          6           0       -6.630652    0.576714   -0.065956
     19          6           0       -5.224719    0.825389   -0.183334
     20          6           0       12.023381    0.156016    1.270983
     21          6           0       11.691423   -0.727667   -1.251015
     22          6           0       12.747966   -1.159232    1.466565
     23          6           0       13.332095   -1.837986    0.270571
     24          6           0       12.374698   -1.920881   -0.801474
     25          6           0       11.117143    0.039866    0.035986
     26          6           0       11.062227    0.562854    2.476918
     27          6           0       12.953315    1.290569    0.985544
     28          6           0       12.537936    0.228108   -2.048304
     29          6           0       -4.767369    2.102945   -0.471715
     30          6           0        9.932306    0.611467   -0.031893
     31          6           0       -3.403474    2.533273   -0.383645
     32          6           0        8.705213    0.938332   -0.280991
     33          6           0       -3.076749    3.975874   -0.635965
     34          6           0       -2.324857    1.538295   -0.245916
     35          6           0        7.430465    0.154537   -0.006154
     36          6           0        7.642008   -1.211299    0.538690
     37          6           0        6.215736    0.709195   -0.149390
     38          6           0       -1.029769    1.812369   -0.318076
     39          6           0        4.876790    0.178304    0.038005
     40          6           0       -0.023139    0.870085   -0.168104
     41          6           0        3.684822    0.835297   -0.245865
     42          6           0        1.454375    1.165336   -0.191482
     43          6           0        2.428665    0.325912    0.149833
     44          6           0        2.377356   -1.102413    0.609530
     45          1           0      -13.120687   -2.855243   -1.206659
     46          1           0      -13.722552   -1.092437   -1.587374
     47          1           0      -13.701564    0.090712    1.904259
     48          1           0      -14.031600    0.433720    0.386964
     49          1           0      -14.431632   -1.857153    0.627659
     50          1           0      -10.389518   -2.939150   -1.515545
     51          1           0      -11.478915   -2.613122   -2.944314
     52          1           0       -9.958026   -1.496045   -2.622885
     53          1           0       -9.337585    1.198778   -0.786349
     54          1           0       -9.965322    0.426031    2.116893
     55          1           0      -11.525156    0.175575    3.022058
     56          1           0      -10.906079   -1.175995    2.142056
     57          1           0      -12.317345    2.206927   -0.106224
     58          1           0      -12.290219    2.441800    1.778250
     59          1           0      -10.684648    2.463614    0.955553
     60          1           0      -11.885994   -2.277808    1.432554
     61          1           0       -8.969592   -1.647596    0.634266
     62          1           0       -5.877680   -2.398435   -0.300550
     63          1           0       -5.660939   -1.678548    1.301237
     64          1           0       -7.044064   -2.666777    0.869401
     65          1           0       -7.282923    1.505934   -0.373043
     66          1           0       -4.403431    0.065907   -0.085229
     67          1           0       13.547686   -0.991531    2.253500
     68          1           0       11.818582   -1.769067    1.920380
     69          1           0       13.737244   -2.698677    0.610258
     70          1           0       12.897247   -2.457193   -1.679734
     71          1           0       11.669756   -2.573700   -0.333448
     72          1           0       11.577212    0.598564    3.428265
     73          1           0       10.724521    1.697296    2.310643
     74          1           0       10.312170   -0.234235    2.513780
     75          1           0       13.701955    0.877732    0.327325
     76          1           0       12.417099    2.263112    0.814675
     77          1           0       13.466340    1.417636    1.897098
     78          1           0       12.568166   -0.281624   -3.057540
     79          1           0       11.962941    1.247130   -2.188299
     80          1           0       13.508952    0.594168   -1.622486
     81          1           0       -5.629137    2.989161   -0.847608
     82          1           0        9.953273   -0.505508   -1.967710
     83          1           0       15.261855   -1.370706    0.657807
     84          1           0        8.262652    1.922494   -0.644147
     85          1           0       -2.273026    4.327030    0.098378
     86          1           0       -2.649655    3.992275   -1.716353
     87          1           0       -4.118373    4.463863   -0.545111
     88          1           0       -2.540950    0.512554   -0.079126
     89          1           0        6.596136   -1.777364    0.262688
     90          1           0        8.543662   -1.788979    0.132756
     91          1           0        7.646139   -1.219140    1.800307
     92          1           0        6.366061    1.721073   -0.770646
     93          1           0       -0.557007    2.882902   -0.467957
     94          1           0        4.771731   -0.704984    0.578394
     95          1           0       -0.255647   -0.243905    0.233461
     96          1           0        3.730085    1.853001   -0.712917
     97          1           0        1.750254    2.280571   -0.646829
     98          1           0        1.337854   -1.501307    0.606865
     99          1           0        2.961274   -1.778447   -0.105475
    100          1           0        2.959825   -1.208475    1.554489
 ---------------------------------------------------------------------

 SCF Done:  E(RCAM-B3LYP) =  -1857.35891874     A.U. after   15 cycles

 Excitation energies and oscillator strengths:

 Excited State   1:      Singlet-A      2.2139 eV  560.02 nm  f=2.6114  <S**2>=0.000
     163 ->166         0.12192
     164 ->165         0.69805
 This state for optimization and/or second-order correction.
 Total Energy, E(TD-HF/TD-DFT) =  -1857.27755787
 Copying the excited state density for this state as the 1-particle RhoCI density.

 The electronic state is 1-A.
 Alpha  occ. eigenvalues --  -19.22420 -19.21807 -19.20493 -19.20271 -10.32589
 Alpha  occ. eigenvalues --  -10.32399 -10.31804 -10.30192 -10.30065 -10.28844
 Alpha  occ. eigenvalues --  -10.28802 -10.28458 -10.28246 -10.28244 -10.28219
 Alpha  occ. eigenvalues --  -10.28129 -10.27738 -10.27692 -10.27577 -10.27562
 Alpha  occ. eigenvalues --  -10.27486 -10.27449 -10.27292 -10.27257 -10.27206
 Alpha  occ. eigenvalues --  -10.27187 -10.27107 -10.27021 -10.26911 -10.26889
 Alpha  occ. eigenvalues --  -10.26854 -10.26749 -10.26596 -10.26564 -10.26502
 Alpha  occ. eigenvalues --  -10.26371 -10.26230 -10.25974 -10.25688 -10.25619
 Alpha  occ. eigenvalues --  -10.25288 -10.24918 -10.24721 -10.23015  -1.13549
 Alpha  occ. eigenvalues --   -1.09178  -1.07887  -1.07715  -0.93663  -0.92644
 Alpha  occ. eigenvalues --   -0.92346  -0.91870  -0.90802  -0.90193  -0.88745
 Alpha  occ. eigenvalues --   -0.87866  -0.87197  -0.85394  -0.84383  -0.82905
 Alpha  occ. eigenvalues --   -0.82179  -0.80827  -0.80617  -0.78632  -0.76609
 Alpha  occ. eigenvalues --   -0.76436  -0.76305  -0.76150  -0.75683  -0.75562
 Alpha  occ. eigenvalues --   -0.75172  -0.74529  -0.73172  -0.70856  -0.70320
 Alpha  occ. eigenvalues --   -0.68630  -0.66740  -0.65424  -0.65246  -0.63943
 Alpha  occ. eigenvalues --   -0.62329  -0.60904  -0.60055  -0.59680  -0.59513
 Alpha  occ. eigenvalues --   -0.59104  -0.58848  -0.58058  -0.57001  -0.56787
 Alpha  occ. eigenvalues --   -0.55591  -0.55009  -0.54691  -0.54313  -0.54227
 Alpha  occ. eigenvalues --   -0.53802  -0.53074  -0.52027  -0.51716  -0.51224
 Alpha  occ. eigenvalues --   -0.51081  -0.51054  -0.50491  -0.50457  -0.49936
 Alpha  occ. eigenvalues --   -0.49588  -0.49264  -0.49185  -0.48630  -0.48474
 Alpha  occ. eigenvalues --   -0.47901  -0.47597  -0.47366  -0.46378  -0.46226
 Alpha  occ. eigenvalues --   -0.46030  -0.45769  -0.45581  -0.44890  -0.44614
 Alpha  occ. eigenvalues --   -0.44547  -0.44305  -0.44070  -0.43704  -0.43674
 Alpha  occ. eigenvalues --   -0.43589  -0.43535  -0.43270  -0.42653  -0.42488
 Alpha  occ. eigenvalues --   -0.42360  -0.41978  -0.41542  -0.41429  -0.41068
 Alpha  occ. eigenvalues --   -0.41063  -0.40654  -0.40467  -0.40083  -0.39968
 Alpha  occ. eigenvalues --   -0.39653  -0.39337  -0.39326  -0.38878  -0.38719
 Alpha  occ. eigenvalues --   -0.38464  -0.38170  -0.37942  -0.37585  -0.37304
 Alpha  occ. eigenvalues --   -0.36999  -0.36680  -0.35248  -0.34991  -0.34254
 Alpha  occ. eigenvalues --   -0.33066  -0.32620  -0.32413  -0.31629  -0.31293
 Alpha  occ. eigenvalues --   -0.29414  -0.28398  -0.24798  -0.20066
 Alpha virt. eigenvalues --   -0.06080  -0.00419   0.02903   0.05710   0.07000
 Alpha virt. eigenvalues --    0.08190   0.09669   0.09906   0.10267   0.11259
 Alpha virt. eigenvalues --    0.11758   0.11916   0.12107   0.12903   0.13192

 Mulliken charges:
               1
     1  O   -0.521977
     2  O   -0.571367
     3  O   -0.568282
     4  O   -0.564785
     5  C    0.217404
     6  C    0.243908
     7  C    0.020173
     8  C   -0.184248
     9  C   -0.195697
    10  C    0.123553
    11  C   -0.332592
    12  C   -0.113854
    13  C   -0.286182
    14  C   -0.305529
    15  C   -0.069938
    16  C    0.098523
    17  C   -0.394349
    18  C   -0.119291
    19  C   -0.059209
    20  C    0.001291
    21  C    0.243893
    22  C   -0.180165
    23  C    0.157535
    24  C   -0.165807
    25  C   -0.057821
    26  C   -0.303608
    27  C   -0.298688
    28  C   -0.296761
    29  C   -0.117785
    30  C    0.128601
    31  C    0.066727
    32  C   -0.303647
    33  C   -0.357402
    34  C   -0.100283
    35  C    0.163922
    36  C   -0.364113
    37  C   -0.129287
    38  C   -0.057569
    39  C   -0.114086
    40  C   -0.123254
    41  C   -0.096982
    42  C   -0.145263
    43  C    0.157686
    44  C   -0.380860
    45  H    0.097131
    46  H    0.144638
    47  H    0.104667
    48  H    0.105430
    49  H    0.105703
    50  H    0.066156
    51  H    0.118147
    52  H    0.129522
    53  H    0.107123
    54  H    0.113952
    55  H    0.121331
    56  H    0.062272
    57  H    0.125323
    58  H    0.089871
    59  H    0.094280
    60  H    0.294495
    61  H    0.081785
    62  H    0.130545
    63  H    0.106290
    64  H    0.107645
    65  H    0.076447
    66  H    0.099067
    67  H    0.074569
    68  H    0.077028
    69  H    0.098270
    70  H    0.107887
    71  H    0.120935
    72  H    0.097370
    73  H    0.100539
    74  H    0.109256
    75  H    0.135998
    76  H    0.099152
    77  H    0.089563
    78  H    0.114522
    79  H    0.082068
    80  H    0.135738
    81  H    0.065610
    82  H    0.305794
    83  H    0.305854
    84  H    0.091423
    85  H    0.125365
    86  H    0.129894
    87  H    0.107820
    88  H    0.080416
    89  H    0.085375
    90  H    0.124958
    91  H    0.090295
    92  H    0.060851
    93  H    0.081009
    94  H    0.076334
    95  H    0.069646
    96  H    0.085058
    97  H    0.076537
    98  H    0.110614
    99  H    0.127859
   100  H    0.132040
 Sum of Mulliken charges =  -0.00000

 Dipole moment (field-independent basis, Debye):
    X=              0.9111    Y=             -0.4829    Z=              2.7345  Tot=              2.9224
 Quadrupole moment (field-independent basis, Debye-Ang):
   XX=           -263.2119   YY=           -262.6544   ZZ=           -280.7581
   XY=            -13.5510   XZ=             36.3166   YZ=             -2.5916

 Normal termination of Gaussian 16 at Thu Aug  1 00:16:37 2019.
