 Gaussian 16, Revision A.03,
 Gaussian 16:  ES64L-G16RevA.03 25-Dec-2016

 -------------------------------------
 # td=(NStates=1) CAM-B3LYP/6-31G(d,p)
 -------------------------------------

 --
 TD
 --
 Symbolic Z-matrix:
 Charge =  0 Multiplicity = 1

                         Standard orientation:
 ---------------------------------------------------------------------
 Center     Atomic      Atomic             Coordinates (Angstroms)
 Number     Number       Type             X           Y           Z
 ---------------------------------------------------------------------
      1          8           0      -11.875235    0.260361   -1.494729
      2          8           0      -13.039770   -2.335159    1.540214
      3          8           0       10.719845   -1.013632   -2.118723
      4          8           0       14.496149   -1.029710   -0.044505
      5          6           0      -11.131939   -0.142990   -0.337704
      6          6           0      -11.787279   -1.195200   -1.178480
      7          6           0      -11.834250    0.319892    1.014350
      8          6           0      -13.065570   -1.878809   -0.819592
      9          6           0      -13.295842    0.021550    0.866661
     10          6           0      -13.521811   -1.451853    0.632497
     11          6           0      -10.949609   -1.909224   -2.238550
     12          6           0       -9.651597    0.063732   -0.387568
     13          6           0      -11.128105    0.033210    2.336773
     14          6           0      -11.797691    1.919580    0.930426
     15          6           0       -8.642632   -0.751911    0.112863
     16          6           0       -7.258385   -0.562893    0.032249
     17          6           0       -6.413255   -1.841339    0.134255
     18          6           0       -6.678829    0.695415   -0.101636
     19          6           0       -5.297167    0.898656   -0.055272
     20          6           0       11.904553    0.063909    1.360055
     21          6           0       11.713430   -0.586380   -1.209841
     22          6           0       12.739643   -1.279202    1.635697
     23          6           0       13.362651   -1.768454    0.346804
     24          6           0       12.450288   -1.825771   -0.930102
     25          6           0       11.104589    0.058651    0.019152
     26          6           0       11.046694    0.222544    2.599575
     27          6           0       12.819508    1.197794    1.370253
     28          6           0       12.528496    0.407735   -1.900511
     29          6           0       -4.778410    2.167740   -0.461934
     30          6           0        9.918875    0.561760   -0.004764
     31          6           0       -3.365274    2.502747   -0.448892
     32          6           0        8.699568    0.898419   -0.240938
     33          6           0       -3.005042    3.837302   -0.806712
     34          6           0       -2.346883    1.530152   -0.288136
     35          6           0        7.504933    0.207524   -0.028988
     36          6           0        7.662917   -1.321018    0.089837
     37          6           0        6.330469    0.724621   -0.194032
     38          6           0       -0.882761    1.755431   -0.258795
     39          6           0        5.060256    0.115637   -0.169269
     40          6           0        0.054521    0.820687    0.001621
     41          6           0        3.849747    0.839472   -0.219484
     42          6           0        1.375566    1.127871   -0.113352
     43          6           0        2.582970    0.292558    0.073926
     44          6           0        2.484680   -1.109657    0.215713
     45          1           0      -12.833826   -3.175307   -0.670433
     46          1           0      -14.003505   -1.668790   -1.397498
     47          1           0      -13.842271    0.394904    1.873800
     48          1           0      -13.799832    0.403526    0.011683
     49          1           0      -14.558297   -1.834033    0.606640
     50          1           0      -10.571818   -2.764618   -1.766145
     51          1           0      -11.533986   -2.115469   -3.010367
     52          1           0      -10.177781   -1.333673   -2.626758
     53          1           0       -9.365439    1.039729   -0.551688
     54          1           0      -10.160116    0.761892    2.324836
     55          1           0      -11.869085    0.144791    3.096691
     56          1           0      -10.772082   -1.062227    2.696433
     57          1           0      -12.195096    2.377997   -0.006198
     58          1           0      -12.182170    2.276410    1.910915
     59          1           0      -10.733153    2.351351    0.807552
     60          1           0      -12.040094   -2.484376    1.189063
     61          1           0       -8.982032   -1.746514    0.338308
     62          1           0       -5.304737   -1.675201   -0.766589
     63          1           0       -5.922876   -1.837994    1.124736
     64          1           0       -7.068523   -2.806766   -0.119643
     65          1           0       -7.320840    1.618846   -0.145135
     66          1           0       -4.548099    0.175168    0.035540
     67          1           0       13.485989   -1.275051    2.553412
     68          1           0       11.931227   -1.884512    1.898591
     69          1           0       13.676296   -2.805905    0.507109
     70          1           0       12.919373   -2.078336   -1.925444
     71          1           0       11.806000   -2.690889   -0.783044
     72          1           0       11.810612    0.096321    3.455589
     73          1           0       10.184044    1.236435    2.462461
     74          1           0       10.358146   -0.717375    2.681335
     75          1           0       13.586043    1.234241    0.523142
     76          1           0       12.482717    2.302599    1.196885
     77          1           0       13.424797    1.355641    2.326863
     78          1           0       12.965881   -0.049828   -2.886700
     79          1           0       11.694100    1.236875   -2.159885
     80          1           0       13.461798    0.937248   -1.493845
     81          1           0       -5.542967    2.894076   -0.821178
     82          1           0        9.950729   -0.381833   -2.064296
     83          1           0       15.309743   -1.115253    0.718682
     84          1           0        8.603494    1.929864   -0.432132
     85          1           0       -2.446096    4.305399    0.035501
     86          1           0       -2.448933    4.150235   -1.710187
     87          1           0       -3.731308    4.502558   -0.970825
     88          1           0       -2.576427    0.540084    0.052210
     89          1           0        6.793374   -1.753594    0.178565
     90          1           0        8.335595   -1.471148   -0.564754
     91          1           0        8.074312   -1.644753    0.993635
     92          1           0        6.024702    1.918696   -0.110002
     93          1           0       -0.740688    2.852299   -0.508643
     94          1           0        4.834444   -0.910848    0.104417
     95          1           0       -0.222768   -0.247090    0.276397
     96          1           0        4.090102    1.932322   -0.310624
     97          1           0        1.645828    2.204691   -0.406141
     98          1           0        1.594221   -1.587394    0.752266
     99          1           0        2.517183   -1.657137   -0.864297
    100          1           0        3.354066   -1.412497    1.012226
 ---------------------------------------------------------------------

 SCF Done:  E(RCAM-B3LYP) =  -1857.21756470     A.U. after   15 cycles

 Excitation energies and oscillator strengths:

 Excited State   1:      Singlet-A      2.0196 eV  613.91 nm  f=2.9419  <S**2>=0.000
     163 ->166        -0.13831
     164 ->165         0.69438
 This state for optimization and/or second-order correction.
 Total Energy, E(TD-HF/TD-DFT) =  -1857.14334648
 Copying the excited state density for this state as the 1-particle RhoCI density.

 The electronic state is 1-A.
 Alpha  occ. eigenvalues --  -19.22356 -19.22197 -19.21834 -19.20522 -10.32688
 Alpha  occ. eigenvalues --  -10.32304 -10.30910 -10.30788 -10.30233 -10.29680
 Alpha  occ. eigenvalues --  -10.28414 -10.28400 -10.28393 -10.28017 -10.27975
 Alpha  occ. eigenvalues --  -10.27933 -10.27928 -10.27799 -10.27682 -10.27660
 Alpha  occ. eigenvalues --  -10.27468 -10.27159 -10.27022 -10.27015 -10.26975
 Alpha  occ. eigenvalues --  -10.26905 -10.26839 -10.26704 -10.26656 -10.26644
 Alpha  occ. eigenvalues --  -10.26637 -10.26508 -10.26470 -10.26409 -10.26128
 Alpha  occ. eigenvalues --  -10.25952 -10.25524 -10.25470 -10.25162 -10.24829
 Alpha  occ. eigenvalues --  -10.24699 -10.24583 -10.23211 -10.21994  -1.13914
 Alpha  occ. eigenvalues --   -1.10638  -1.09738  -1.07856  -0.93780  -0.92667
 Alpha  occ. eigenvalues --   -0.92444  -0.91755  -0.90985  -0.90365  -0.88272
 Alpha  occ. eigenvalues --   -0.86581  -0.86474  -0.86196  -0.85667  -0.83059
 Alpha  occ. eigenvalues --   -0.82677  -0.81132  -0.80885  -0.79303  -0.78316
 Alpha  occ. eigenvalues --   -0.76419  -0.76297  -0.76172  -0.75651  -0.74699
 Alpha  occ. eigenvalues --   -0.74357  -0.74238  -0.72876  -0.70614  -0.69658
 Alpha  occ. eigenvalues --   -0.68245  -0.67113  -0.65308  -0.64471  -0.64210
 Alpha  occ. eigenvalues --   -0.63182  -0.62190  -0.61193  -0.60457  -0.60287
 Alpha  occ. eigenvalues --   -0.59447  -0.59193  -0.58737  -0.57276  -0.56644
 Alpha  occ. eigenvalues --   -0.56466  -0.55774  -0.54963  -0.54827  -0.54519
 Alpha  occ. eigenvalues --   -0.54038  -0.53734  -0.53006  -0.52290  -0.52116
 Alpha  occ. eigenvalues --   -0.51490  -0.51376  -0.50885  -0.50548  -0.49618
 Alpha  occ. eigenvalues --   -0.49277  -0.49164  -0.48992  -0.48917  -0.48850
 Alpha  occ. eigenvalues --   -0.48539  -0.48321  -0.47906  -0.47216  -0.46823
 Alpha  occ. eigenvalues --   -0.46757  -0.46286  -0.45819  -0.45632  -0.44944
 Alpha  occ. eigenvalues --   -0.44837  -0.44587  -0.44182  -0.43744  -0.43406
 Alpha  occ. eigenvalues --   -0.43073  -0.42933  -0.42805  -0.42357  -0.42260
 Alpha  occ. eigenvalues --   -0.42125  -0.41870  -0.41510  -0.41119  -0.41060
 Alpha  occ. eigenvalues --   -0.40794  -0.40489  -0.40329  -0.40156  -0.39908
 Alpha  occ. eigenvalues --   -0.39510  -0.39247  -0.38830  -0.38400  -0.38245
 Alpha  occ. eigenvalues --   -0.38220  -0.38117  -0.37739  -0.36987  -0.36540
 Alpha  occ. eigenvalues --   -0.35870  -0.35658  -0.35280  -0.34909  -0.33988
 Alpha  occ. eigenvalues --   -0.32793  -0.32175  -0.31499  -0.31261  -0.30607
 Alpha  occ. eigenvalues --   -0.30291  -0.28373  -0.24176  -0.19697
 Alpha virt. eigenvalues --   -0.06876  -0.01811   0.02756   0.05646   0.07325
 Alpha virt. eigenvalues --    0.08274   0.08513   0.08627   0.10528   0.11312
 Alpha virt. eigenvalues --    0.11353   0.11642   0.12335   0.12525   0.13114

 Mulliken charges:
               1
     1  O   -0.515642
     2  O   -0.530533
     3  O   -0.576042
     4  O   -0.548668
     5  C    0.221682
     6  C    0.209602
     7  C    0.026452
     8  C   -0.247308
     9  C   -0.161337
    10  C    0.159840
    11  C   -0.305074
    12  C   -0.102431
    13  C   -0.294748
    14  C   -0.314086
    15  C   -0.089563
    16  C    0.094237
    17  C   -0.335612
    18  C   -0.110822
    19  C   -0.051814
    20  C    0.012619
    21  C    0.255605
    22  C   -0.185208
    23  C    0.155987
    24  C   -0.180159
    25  C   -0.071507
    26  C   -0.276223
    27  C   -0.285191
    28  C   -0.253055
    29  C   -0.138227
    30  C    0.153015
    31  C    0.108309
    32  C   -0.309120
    33  C   -0.403353
    34  C   -0.127459
    35  C    0.112039
    36  C   -0.329253
    37  C   -0.108706
    38  C   -0.079675
    39  C   -0.085199
    40  C   -0.072095
    41  C   -0.110291
    42  C   -0.109720
    43  C    0.097149
    44  C   -0.378097
    45  H    0.072688
    46  H    0.126833
    47  H    0.078553
    48  H    0.126748
    49  H    0.080242
    50  H    0.099800
    51  H    0.121761
    52  H    0.125818
    53  H    0.088925
    54  H    0.102288
    55  H    0.122774
    56  H    0.079672
    57  H    0.125322
    58  H    0.105134
    59  H    0.076214
    60  H    0.292484
    61  H    0.063923
    62  H    0.055781
    63  H    0.140950
    64  H    0.108318
    65  H    0.091483
    66  H    0.087052
    67  H    0.086821
    68  H    0.108506
    69  H    0.072449
    70  H    0.116836
    71  H    0.109263
    72  H    0.097565
    73  H    0.078796
    74  H    0.085631
    75  H    0.113588
    76  H    0.082446
    77  H    0.078166
    78  H    0.093720
    79  H    0.063866
    80  H    0.123126
    81  H    0.090075
    82  H    0.305661
    83  H    0.298839
    84  H    0.107789
    85  H    0.122543
    86  H    0.125347
    87  H    0.118792
    88  H    0.073392
    89  H    0.108142
    90  H    0.122782
    91  H    0.113728
    92  H    0.062483
    93  H    0.090101
    94  H    0.079167
    95  H    0.092325
    96  H    0.076056
    97  H    0.080668
    98  H    0.107419
    99  H    0.122989
   100  H    0.097844
 Sum of Mulliken charges =  -0.00000

 Dipole moment (field-independent basis, Debye):
    X=              1.2100    Y=             -0.5358    Z=              2.2088  Tot=              2.5749
 Quadrupole moment (field-independent basis, Debye-Ang):
   XX=           -280.7223   YY=           -258.0541   ZZ=           -281.7246
   XY=             -6.3258   XZ=             37.8117   YZ=             -4.8048

 Normal termination of Gaussian 16 at Mon Jul 29 12:19:22 2019.
