 Gaussian 16, Revision A.03,
 Gaussian 16:  ES64L-G16RevA.03 25-Dec-2016

 -------------------------------------
 # td=(NStates=1) CAM-B3LYP/6-31G(d,p)
 -------------------------------------

 --
 TD
 --
 Symbolic Z-matrix:
 Charge =  0 Multiplicity = 1

                         Standard orientation:
 ---------------------------------------------------------------------
 Center     Atomic      Atomic             Coordinates (Angstroms)
 Number     Number       Type             X           Y           Z
 ---------------------------------------------------------------------
      1          8           0      -11.594903    0.154630   -1.592697
      2          8           0      -12.947888   -2.502111    1.504715
      3          8           0       10.823758   -1.089894   -2.138298
      4          8           0       14.484752   -0.905085    0.071442
      5          6           0      -11.029099   -0.166231   -0.380730
      6          6           0      -11.515102   -1.318037   -1.279837
      7          6           0      -11.807775    0.342451    0.870234
      8          6           0      -12.945075   -1.939302   -0.928736
      9          6           0      -13.245325   -0.153899    0.914472
     10          6           0      -13.473130   -1.627465    0.501046
     11          6           0      -10.814756   -2.101698   -2.272979
     12          6           0       -9.568973    0.055711   -0.444210
     13          6           0      -11.089227   -0.058532    2.139161
     14          6           0      -11.813351    1.925080    0.821237
     15          6           0       -8.693101   -0.749012    0.200423
     16          6           0       -7.239580   -0.530750    0.264227
     17          6           0       -6.334985   -1.712309    0.561204
     18          6           0       -6.613198    0.750060   -0.024260
     19          6           0       -5.283956    1.007574   -0.043126
     20          6           0       11.808570   -0.057193    1.219166
     21          6           0       11.756035   -0.640966   -1.190927
     22          6           0       12.666982   -1.362171    1.537590
     23          6           0       13.446970   -1.840368    0.360169
     24          6           0       12.486527   -1.965323   -0.887451
     25          6           0       11.064662   -0.087490    0.066532
     26          6           0       10.847142    0.096099    2.530719
     27          6           0       12.671824    1.299988    1.206269
     28          6           0       12.650674    0.390502   -1.881106
     29          6           0       -4.774307    2.275172   -0.356683
     30          6           0        9.847896    0.465499   -0.037011
     31          6           0       -3.399780    2.673639   -0.375779
     32          6           0        8.551884    0.805691   -0.217290
     33          6           0       -3.033245    4.173668   -0.590358
     34          6           0       -2.364396    1.773875   -0.232139
     35          6           0        7.400521    0.071435   -0.176608
     36          6           0        7.588524   -1.396383   -0.027566
     37          6           0        6.212138    0.770578   -0.048316
     38          6           0       -0.979112    2.017577   -0.278537
     39          6           0        4.895646    0.180448    0.067619
     40          6           0        0.030172    1.050524   -0.182131
     41          6           0        3.775614    0.907272   -0.185429
     42          6           0        1.411892    1.276261   -0.295071
     43          6           0        2.497284    0.427160   -0.034234
     44          6           0        2.244462   -1.090605    0.294261
     45          1           0      -12.982672   -3.008516   -1.183290
     46          1           0      -13.552442   -1.214369   -1.782914
     47          1           0      -13.670212    0.191331    1.857075
     48          1           0      -13.839709    0.313118    0.155116
     49          1           0      -14.523317   -1.852343    0.700737
     50          1           0      -10.757359   -3.107280   -1.816173
     51          1           0      -11.342210   -2.285672   -3.188332
     52          1           0       -9.910705   -1.547512   -2.310631
     53          1           0       -9.288883    0.670466   -1.137839
     54          1           0      -10.135190    0.132384    2.089120
     55          1           0      -11.381749    0.598268    2.949293
     56          1           0      -11.115055   -0.973911    2.340285
     57          1           0      -12.152999    2.111980   -0.165531
     58          1           0      -12.298482    2.383358    1.674925
     59          1           0      -10.744456    2.417775    0.862697
     60          1           0      -11.957522   -2.726850    1.480628
     61          1           0       -8.950531   -1.662766    0.844186
     62          1           0       -5.529960   -1.990357   -0.246646
     63          1           0       -5.481214   -1.543416    1.392920
     64          1           0       -6.790912   -2.605791    0.929172
     65          1           0       -7.477618    1.542191   -0.045307
     66          1           0       -4.517138    0.144161    0.363796
     67          1           0       13.142895   -1.163997    2.407714
     68          1           0       12.003030   -2.042207    1.898471
     69          1           0       13.708003   -2.968832    0.524896
     70          1           0       13.033169   -2.087289   -1.874523
     71          1           0       11.889883   -2.589005   -0.423060
     72          1           0       11.535894    0.015969    3.512009
     73          1           0       10.607080    1.145593    2.509087
     74          1           0       10.140433   -0.718335    2.544951
     75          1           0       13.520186    1.443023    0.564546
     76          1           0       12.043801    2.260329    0.961729
     77          1           0       13.044727    1.300646    2.243086
     78          1           0       12.944895    0.059849   -2.900976
     79          1           0       11.997688    1.350676   -1.838403
     80          1           0       13.556335    0.452372   -1.283852
     81          1           0       -5.433711    3.126938   -0.309940
     82          1           0       10.095093   -0.325406   -2.031133
     83          1           0       15.308465   -0.913404    0.680582
     84          1           0        8.520201    2.022348   -0.434406
     85          1           0       -2.441815    4.400588    0.224513
     86          1           0       -2.595672    4.238673   -1.506468
     87          1           0       -3.797700    4.808877   -0.758520
     88          1           0       -2.507983    0.552355   -0.090911
     89          1           0        6.663197   -1.842179   -0.609672
     90          1           0        8.575844   -1.636943   -0.485140
     91          1           0        7.600867   -1.277069    1.144247
     92          1           0        6.109091    1.897586   -0.057606
     93          1           0       -0.838798    3.003875   -0.310490
     94          1           0        4.998926   -0.924405    0.040299
     95          1           0       -0.228706   -0.070374    0.011765
     96          1           0        3.848519    1.905986   -0.343134
     97          1           0        1.713843    2.226535   -0.708741
     98          1           0        1.144586   -1.343807    0.402245
     99          1           0        2.545032   -1.668484   -0.517144
    100          1           0        2.799609   -1.518250    1.186498
 ---------------------------------------------------------------------

 SCF Done:  E(RCAM-B3LYP) =  -1857.27971221     A.U. after   15 cycles

 Excitation energies and oscillator strengths:

 Excited State   1:      Singlet-A      1.9883 eV  623.57 nm  f=3.0747  <S**2>=0.000
     163 ->166        -0.14266
     164 ->165         0.69499
 This state for optimization and/or second-order correction.
 Total Energy, E(TD-HF/TD-DFT) =  -1857.20664313
 Copying the excited state density for this state as the 1-particle RhoCI density.

 The electronic state is 1-A.
 Alpha  occ. eigenvalues --  -19.22608 -19.21724 -19.20624 -19.20188 -10.32494
 Alpha  occ. eigenvalues --  -10.31872 -10.31839 -10.31085 -10.30194 -10.28486
 Alpha  occ. eigenvalues --  -10.28303 -10.28082 -10.27814 -10.27797 -10.27730
 Alpha  occ. eigenvalues --  -10.27697 -10.27669 -10.27667 -10.27340 -10.27279
 Alpha  occ. eigenvalues --  -10.27176 -10.27085 -10.27081 -10.26961 -10.26959
 Alpha  occ. eigenvalues --  -10.26727 -10.26516 -10.26450 -10.26381 -10.26284
 Alpha  occ. eigenvalues --  -10.26089 -10.25897 -10.25867 -10.25369 -10.25288
 Alpha  occ. eigenvalues --  -10.25219 -10.25133 -10.24747 -10.24362 -10.24351
 Alpha  occ. eigenvalues --  -10.24153 -10.24032 -10.23409 -10.20637  -1.14866
 Alpha  occ. eigenvalues --   -1.09101  -1.08342  -1.07500  -0.93808  -0.92689
 Alpha  occ. eigenvalues --   -0.91867  -0.91257  -0.90777  -0.89762  -0.87393
 Alpha  occ. eigenvalues --   -0.86894  -0.86186  -0.85561  -0.84045  -0.83251
 Alpha  occ. eigenvalues --   -0.82508  -0.81368  -0.80260  -0.78664  -0.77480
 Alpha  occ. eigenvalues --   -0.76903  -0.76655  -0.76494  -0.76089  -0.75516
 Alpha  occ. eigenvalues --   -0.74908  -0.74065  -0.72962  -0.70716  -0.69995
 Alpha  occ. eigenvalues --   -0.68492  -0.67008  -0.66022  -0.65080  -0.64592
 Alpha  occ. eigenvalues --   -0.63515  -0.62391  -0.61210  -0.60591  -0.59512
 Alpha  occ. eigenvalues --   -0.59181  -0.58504  -0.57705  -0.56995  -0.56611
 Alpha  occ. eigenvalues --   -0.56235  -0.55329  -0.54928  -0.54036  -0.53869
 Alpha  occ. eigenvalues --   -0.53590  -0.52897  -0.52669  -0.52212  -0.52045
 Alpha  occ. eigenvalues --   -0.51802  -0.51548  -0.51061  -0.50907  -0.50448
 Alpha  occ. eigenvalues --   -0.49889  -0.49482  -0.49101  -0.48618  -0.48268
 Alpha  occ. eigenvalues --   -0.47975  -0.47693  -0.47413  -0.47067  -0.46929
 Alpha  occ. eigenvalues --   -0.46357  -0.46084  -0.45782  -0.45647  -0.45188
 Alpha  occ. eigenvalues --   -0.44921  -0.44460  -0.44279  -0.44210  -0.43931
 Alpha  occ. eigenvalues --   -0.43550  -0.43475  -0.43250  -0.43034  -0.42884
 Alpha  occ. eigenvalues --   -0.42386  -0.42280  -0.42004  -0.41635  -0.41413
 Alpha  occ. eigenvalues --   -0.40995  -0.40950  -0.40652  -0.40411  -0.39885
 Alpha  occ. eigenvalues --   -0.39876  -0.39657  -0.39212  -0.39172  -0.38481
 Alpha  occ. eigenvalues --   -0.38140  -0.38030  -0.37504  -0.37090  -0.36725
 Alpha  occ. eigenvalues --   -0.36041  -0.35583  -0.35028  -0.34865  -0.32958
 Alpha  occ. eigenvalues --   -0.32268  -0.32025  -0.31686  -0.30986  -0.30111
 Alpha  occ. eigenvalues --   -0.28475  -0.27855  -0.23820  -0.19293
 Alpha virt. eigenvalues --   -0.06684  -0.01742   0.02876   0.05916   0.06397
 Alpha virt. eigenvalues --    0.09165   0.09762   0.10171   0.10935   0.11617
 Alpha virt. eigenvalues --    0.11994   0.12798   0.13259   0.13621   0.14090

 Mulliken charges:
               1
     1  O   -0.524221
     2  O   -0.570470
     3  O   -0.564787
     4  O   -0.558717
     5  C    0.234406
     6  C    0.192701
     7  C    0.007739
     8  C   -0.213789
     9  C   -0.178348
    10  C    0.174938
    11  C   -0.317857
    12  C   -0.102714
    13  C   -0.277838
    14  C   -0.322637
    15  C   -0.079945
    16  C    0.079523
    17  C   -0.384331
    18  C   -0.105541
    19  C   -0.064043
    20  C   -0.029084
    21  C    0.225322
    22  C   -0.168180
    23  C    0.130588
    24  C   -0.138275
    25  C    0.008012
    26  C   -0.305560
    27  C   -0.300692
    28  C   -0.298815
    29  C   -0.120341
    30  C    0.031896
    31  C    0.035928
    32  C   -0.249877
    33  C   -0.365722
    34  C   -0.096919
    35  C    0.090759
    36  C   -0.353049
    37  C   -0.104595
    38  C   -0.062473
    39  C   -0.098462
    40  C   -0.096038
    41  C   -0.096909
    42  C   -0.130765
    43  C    0.119543
    44  C   -0.376208
    45  H    0.103989
    46  H    0.102005
    47  H    0.100349
    48  H    0.099255
    49  H    0.107203
    50  H    0.102815
    51  H    0.132757
    52  H    0.124538
    53  H    0.105709
    54  H    0.112567
    55  H    0.090435
    56  H    0.079052
    57  H    0.130567
    58  H    0.109383
    59  H    0.081147
    60  H    0.300652
    61  H    0.076862
    62  H    0.118949
    63  H    0.096499
    64  H    0.110703
    65  H    0.087141
    66  H    0.092430
    67  H    0.095763
    68  H    0.100811
    69  H    0.070193
    70  H    0.116546
    71  H    0.103061
    72  H    0.068085
    73  H    0.123703
    74  H    0.113665
    75  H    0.126579
    76  H    0.089703
    77  H    0.089726
    78  H    0.107363
    79  H    0.075857
    80  H    0.141364
    81  H    0.087908
    82  H    0.295607
    83  H    0.314840
    84  H    0.089955
    85  H    0.136511
    86  H    0.138567
    87  H    0.112681
    88  H    0.058296
    89  H    0.112442
    90  H    0.135684
    91  H    0.137979
    92  H    0.078756
    93  H    0.071508
    94  H    0.080307
    95  H    0.076302
    96  H    0.081252
    97  H    0.079489
    98  H    0.100103
    99  H    0.135917
   100  H    0.114318
 Sum of Mulliken charges =  -0.00000

 Dipole moment (field-independent basis, Debye):
    X=              3.0323    Y=             -0.4713    Z=              2.4217  Tot=              3.9091
 Quadrupole moment (field-independent basis, Debye-Ang):
   XX=           -264.2841   YY=           -255.6624   ZZ=           -279.8507
   XY=             -0.9106   XZ=             38.5148   YZ=             -2.3911

 Normal termination of Gaussian 16 at Mon Jul 29 17:29:01 2019.
