 Gaussian 16, Revision A.03,
 Gaussian 16:  ES64L-G16RevA.03 25-Dec-2016

 -------------------------------------
 # td=(NStates=1) CAM-B3LYP/6-31G(d,p)
 -------------------------------------

 --
 TD
 --
 Symbolic Z-matrix:
 Charge =  0 Multiplicity = 1

                         Standard orientation:
 ---------------------------------------------------------------------
 Center     Atomic      Atomic             Coordinates (Angstroms)
 Number     Number       Type             X           Y           Z
 ---------------------------------------------------------------------
      1          8           0      -11.603105    0.163344   -1.554793
      2          8           0      -12.976953   -2.640859    1.193987
      3          8           0       10.490618   -0.991329   -2.056917
      4          8           0       14.511098   -1.008117   -0.266295
      5          6           0      -11.073563   -0.139303   -0.325995
      6          6           0      -11.663378   -1.205637   -1.234624
      7          6           0      -11.877644    0.266286    0.979051
      8          6           0      -13.015795   -1.773485   -1.019239
      9          6           0      -13.382167   -0.203823    0.855978
     10          6           0      -13.516259   -1.663732    0.401816
     11          6           0      -10.704265   -1.942272   -2.274991
     12          6           0       -9.517596    0.096534   -0.316431
     13          6           0      -11.246612   -0.133236    2.274949
     14          6           0      -11.873385    1.832736    0.749128
     15          6           0       -8.635042   -0.756147    0.208617
     16          6           0       -7.241081   -0.546936    0.189387
     17          6           0       -6.321762   -1.671114    0.646568
     18          6           0       -6.649164    0.712675   -0.060797
     19          6           0       -5.300665    0.968200   -0.102748
     20          6           0       11.978070   -0.048812    1.328725
     21          6           0       11.677968   -0.659996   -1.246736
     22          6           0       12.919163   -1.344375    1.435900
     23          6           0       13.449044   -1.832165    0.175079
     24          6           0       12.467558   -1.902901   -1.002429
     25          6           0       11.146531   -0.044045   -0.011761
     26          6           0       11.104601    0.101622    2.543366
     27          6           0       12.964677    1.180150    1.220007
     28          6           0       12.480566    0.290927   -2.222324
     29          6           0       -4.825129    2.196448   -0.333509
     30          6           0        9.962452    0.487620    0.097972
     31          6           0       -3.411584    2.614180   -0.367869
     32          6           0        8.654218    0.860333   -0.194554
     33          6           0       -3.188117    4.075019   -0.686718
     34          6           0       -2.394268    1.717577   -0.018000
     35          6           0        7.536077    0.084264    0.063712
     36          6           0        7.653012   -1.376475    0.457552
     37          6           0        6.302618    0.744759   -0.051819
     38          6           0       -0.962402    2.010973   -0.213717
     39          6           0        4.911327    0.231969    0.125988
     40          6           0        0.074637    1.091285   -0.036748
     41          6           0        3.793350    0.873645   -0.069634
     42          6           0        1.422979    1.398998   -0.192483
     43          6           0        2.499301    0.492599    0.049039
     44          6           0        2.268820   -0.961866    0.333074
     45          1           0      -12.783017   -2.705985   -1.250843
     46          1           0      -13.716308   -1.659144   -1.781049
     47          1           0      -13.773757   -0.164777    1.769808
     48          1           0      -13.881556    0.293809   -0.015511
     49          1           0      -14.690134   -1.706206    0.337186
     50          1           0      -10.698202   -3.060890   -1.875950
     51          1           0      -11.385302   -2.088147   -3.199777
     52          1           0       -9.902082   -1.301441   -2.392043
     53          1           0       -9.264244    1.143041   -0.699296
     54          1           0      -10.231687    0.341547    2.515773
     55          1           0      -11.986482    0.043875    3.130678
     56          1           0      -11.041347   -1.238194    2.374120
     57          1           0      -12.299419    2.015584   -0.190568
     58          1           0      -12.500960    2.389119    1.442731
     59          1           0      -10.831278    2.170435    0.890380
     60          1           0      -11.986327   -2.640338    1.254030
     61          1           0       -9.046381   -1.783501    0.496370
     62          1           0       -5.973356   -2.163740   -0.367580
     63          1           0       -5.447536   -1.243177    1.143469
     64          1           0       -6.906666   -2.352749    1.264905
     65          1           0       -7.426278    1.637271   -0.136105
     66          1           0       -4.584124    0.110485    0.014503
     67          1           0       13.660886   -1.148117    2.187871
     68          1           0       12.231054   -2.082172    1.989923
     69          1           0       13.948769   -2.683198    0.431689
     70          1           0       13.114152   -2.158824   -1.847915
     71          1           0       11.974352   -2.763100   -0.968886
     72          1           0       11.551275    0.185684    3.653067
     73          1           0       10.403903    1.059571    2.525774
     74          1           0       10.366867   -0.762615    2.485817
     75          1           0       13.549397    1.026251    0.496648
     76          1           0       12.361380    2.069826    0.945311
     77          1           0       13.463387    1.323124    2.199840
     78          1           0       12.560591   -0.151484   -3.226985
     79          1           0       11.940746    1.330371   -2.083517
     80          1           0       13.409809    0.278089   -1.769139
     81          1           0       -5.432292    3.030784   -0.456526
     82          1           0        9.998947   -0.243740   -2.141116
     83          1           0       14.991063   -0.431050    0.683749
     84          1           0        8.378319    1.889698   -0.430356
     85          1           0       -2.620989    4.710418    0.166998
     86          1           0       -2.684554    4.093566   -1.751597
     87          1           0       -4.101861    4.760783   -0.921199
     88          1           0       -2.509723    0.674593    0.184850
     89          1           0        6.671890   -1.865180    0.576825
     90          1           0        8.221130   -1.998536   -0.304014
     91          1           0        8.109311   -1.463276    1.354625
     92          1           0        6.300424    1.959562   -0.293498
     93          1           0       -0.772623    2.992702   -0.434101
     94          1           0        4.945771   -1.004947    0.016455
     95          1           0       -0.174609    0.021093    0.305221
     96          1           0        3.838091    2.084895   -0.273295
     97          1           0        1.454685    2.483414   -0.565646
     98          1           0        1.186499   -1.276712    0.077683
     99          1           0        3.216942   -1.556610   -0.340458
    100          1           0        2.627651   -1.340924    1.356119
 ---------------------------------------------------------------------

 SCF Done:  E(RCAM-B3LYP) =  -1857.29535951     A.U. after   15 cycles

 Excitation energies and oscillator strengths:

 Excited State   1:      Singlet-A      2.2223 eV  557.92 nm  f=3.1960  <S**2>=0.000
     163 ->166        -0.15109
     164 ->165         0.68867
 This state for optimization and/or second-order correction.
 Total Energy, E(TD-HF/TD-DFT) =  -1857.21369330
 Copying the excited state density for this state as the 1-particle RhoCI density.

 The electronic state is 1-A.
 Alpha  occ. eigenvalues --  -19.22786 -19.22061 -19.21952 -19.18520 -10.32412
 Alpha  occ. eigenvalues --  -10.31768 -10.31424 -10.31092 -10.29902 -10.28753
 Alpha  occ. eigenvalues --  -10.28599 -10.28428 -10.28337 -10.28236 -10.27923
 Alpha  occ. eigenvalues --  -10.27748 -10.27722 -10.27650 -10.27555 -10.27467
 Alpha  occ. eigenvalues --  -10.27451 -10.27374 -10.27278 -10.27247 -10.27105
 Alpha  occ. eigenvalues --  -10.27094 -10.27091 -10.26829 -10.26754 -10.26718
 Alpha  occ. eigenvalues --  -10.26671 -10.26636 -10.26469 -10.26442 -10.26379
 Alpha  occ. eigenvalues --  -10.26195 -10.25904 -10.24804 -10.24506 -10.24455
 Alpha  occ. eigenvalues --  -10.24054 -10.23861 -10.23319 -10.23264  -1.17607
 Alpha  occ. eigenvalues --   -1.10922  -1.08760  -1.07895  -0.92748  -0.92556
 Alpha  occ. eigenvalues --   -0.92281  -0.90834  -0.90526  -0.90109  -0.87867
 Alpha  occ. eigenvalues --   -0.87361  -0.86636  -0.85483  -0.84663  -0.82720
 Alpha  occ. eigenvalues --   -0.81794  -0.80642  -0.80378  -0.78036  -0.77636
 Alpha  occ. eigenvalues --   -0.77087  -0.76657  -0.76482  -0.76268  -0.75561
 Alpha  occ. eigenvalues --   -0.74969  -0.73492  -0.72612  -0.70326  -0.69972
 Alpha  occ. eigenvalues --   -0.68538  -0.67108  -0.65497  -0.64995  -0.64206
 Alpha  occ. eigenvalues --   -0.63783  -0.62218  -0.61014  -0.60393  -0.59078
 Alpha  occ. eigenvalues --   -0.58674  -0.58391  -0.57915  -0.57523  -0.56175
 Alpha  occ. eigenvalues --   -0.56015  -0.55802  -0.55471  -0.55168  -0.54447
 Alpha  occ. eigenvalues --   -0.54058  -0.53458  -0.52211  -0.51641  -0.51263
 Alpha  occ. eigenvalues --   -0.51121  -0.50956  -0.50391  -0.50265  -0.50176
 Alpha  occ. eigenvalues --   -0.49595  -0.48811  -0.48692  -0.48509  -0.48435
 Alpha  occ. eigenvalues --   -0.48237  -0.48075  -0.47843  -0.47074  -0.46770
 Alpha  occ. eigenvalues --   -0.46538  -0.46335  -0.46162  -0.46006  -0.45807
 Alpha  occ. eigenvalues --   -0.45334  -0.44916  -0.44583  -0.43933  -0.43827
 Alpha  occ. eigenvalues --   -0.43644  -0.43496  -0.43340  -0.43179  -0.42791
 Alpha  occ. eigenvalues --   -0.42686  -0.42521  -0.42435  -0.41568  -0.41519
 Alpha  occ. eigenvalues --   -0.41242  -0.40596  -0.40287  -0.40244  -0.40099
 Alpha  occ. eigenvalues --   -0.39942  -0.39324  -0.39238  -0.38907  -0.38585
 Alpha  occ. eigenvalues --   -0.38336  -0.37827  -0.37749  -0.37597  -0.36780
 Alpha  occ. eigenvalues --   -0.36519  -0.36331  -0.35023  -0.34344  -0.34058
 Alpha  occ. eigenvalues --   -0.32198  -0.31972  -0.31511  -0.31105  -0.30193
 Alpha  occ. eigenvalues --   -0.30059  -0.27328  -0.24076  -0.20030
 Alpha virt. eigenvalues --   -0.06076  -0.01587   0.02251   0.05981   0.06042
 Alpha virt. eigenvalues --    0.06650   0.08932   0.09910   0.10794   0.11806
 Alpha virt. eigenvalues --    0.12255   0.13051   0.13177   0.13480   0.14124

 Mulliken charges:
               1
     1  O   -0.485713
     2  O   -0.546487
     3  O   -0.569080
     4  O   -0.557727
     5  C    0.200837
     6  C    0.177780
     7  C    0.019874
     8  C   -0.199645
     9  C   -0.177049
    10  C    0.156789
    11  C   -0.303872
    12  C   -0.113281
    13  C   -0.312841
    14  C   -0.314203
    15  C   -0.079079
    16  C    0.065091
    17  C   -0.361072
    18  C   -0.102020
    19  C   -0.051157
    20  C    0.015098
    21  C    0.231913
    22  C   -0.222754
    23  C    0.197776
    24  C   -0.199044
    25  C   -0.007959
    26  C   -0.315242
    27  C   -0.300033
    28  C   -0.305670
    29  C   -0.111389
    30  C    0.047958
    31  C    0.088750
    32  C   -0.240679
    33  C   -0.382649
    34  C   -0.116617
    35  C    0.155586
    36  C   -0.372908
    37  C   -0.139511
    38  C   -0.095545
    39  C   -0.117592
    40  C   -0.076442
    41  C   -0.070472
    42  C   -0.117561
    43  C    0.129122
    44  C   -0.361029
    45  H    0.108139
    46  H    0.113880
    47  H    0.103739
    48  H    0.107093
    49  H    0.081282
    50  H    0.085433
    51  H    0.103388
    52  H    0.132716
    53  H    0.107640
    54  H    0.111548
    55  H    0.106669
    56  H    0.074441
    57  H    0.133004
    58  H    0.092896
    59  H    0.092366
    60  H    0.315328
    61  H    0.078611
    62  H    0.115326
    63  H    0.125137
    64  H    0.112973
    65  H    0.073834
    66  H    0.091982
    67  H    0.091568
    68  H    0.091841
    69  H    0.091292
    70  H    0.119843
    71  H    0.121561
    72  H    0.086510
    73  H    0.103491
    74  H    0.101989
    75  H    0.113791
    76  H    0.098724
    77  H    0.087944
    78  H    0.122761
    79  H    0.075545
    80  H    0.140738
    81  H    0.077178
    82  H    0.291044
    83  H    0.293647
    84  H    0.106205
    85  H    0.118178
    86  H    0.121129
    87  H    0.111226
    88  H    0.080749
    89  H    0.102854
    90  H    0.134833
    91  H    0.133923
    92  H    0.064985
    93  H    0.081023
    94  H    0.068027
    95  H    0.072622
    96  H    0.066696
    97  H    0.089197
    98  H    0.106039
    99  H    0.079855
   100  H    0.125313
 Sum of Mulliken charges =  -0.00000

 Dipole moment (field-independent basis, Debye):
    X=              0.4122    Y=              0.3458    Z=              2.6203  Tot=              2.6750
 Quadrupole moment (field-independent basis, Debye-Ang):
   XX=           -273.1145   YY=           -260.4473   ZZ=           -277.2015
   XY=             -1.7570   XZ=             29.9422   YZ=             -3.9633

 Normal termination of Gaussian 16 at Thu Aug  1 21:18:11 2019.
