 Gaussian 16, Revision A.03,
 Gaussian 16:  ES64L-G16RevA.03 25-Dec-2016

 -------------------------------------
 # td=(NStates=1) CAM-B3LYP/6-31G(d,p)
 -------------------------------------

 --
 TD
 --
 Symbolic Z-matrix:
 Charge =  0 Multiplicity = 1

                         Standard orientation:
 ---------------------------------------------------------------------
 Center     Atomic      Atomic             Coordinates (Angstroms)
 Number     Number       Type             X           Y           Z
 ---------------------------------------------------------------------
      1          8           0      -11.691645    0.255798   -1.649702
      2          8           0      -13.161813   -2.318858    1.482231
      3          8           0       10.761141   -1.034583   -2.106144
      4          8           0       14.618311   -1.100316   -0.044570
      5          6           0      -11.130795   -0.141741   -0.339513
      6          6           0      -11.700954   -1.186382   -1.198981
      7          6           0      -11.820249    0.443765    0.882004
      8          6           0      -13.032202   -1.830860   -0.992518
      9          6           0      -13.297158   -0.007716    0.861087
     10          6           0      -13.517029   -1.448494    0.424077
     11          6           0      -10.795730   -2.076859   -1.967377
     12          6           0       -9.538552    0.124463   -0.311293
     13          6           0      -11.110705    0.025465    2.230249
     14          6           0      -11.787762    1.928130    0.828411
     15          6           0       -8.678019   -0.805326    0.147048
     16          6           0       -7.182444   -0.619772    0.279806
     17          6           0       -6.338893   -1.776307    0.557729
     18          6           0       -6.571077    0.612934   -0.026650
     19          6           0       -5.266883    0.926283   -0.084277
     20          6           0       11.904882    0.146474    1.411027
     21          6           0       11.773767   -0.568718   -1.169348
     22          6           0       12.644730   -1.206701    1.592405
     23          6           0       13.413413   -1.844963    0.341916
     24          6           0       12.506261   -1.808101   -0.767363
     25          6           0       11.128823    0.003655    0.038024
     26          6           0       10.952727    0.329431    2.575665
     27          6           0       12.849170    1.378656    1.351457
     28          6           0       12.645961    0.494669   -1.907160
     29          6           0       -4.711396    2.232567   -0.392178
     30          6           0        9.833910    0.505929   -0.045913
     31          6           0       -3.412145    2.454132   -0.504311
     32          6           0        8.565505    0.865063   -0.155017
     33          6           0       -3.078882    3.949174   -0.615270
     34          6           0       -2.309100    1.497277   -0.304513
     35          6           0        7.491447   -0.016732   -0.120115
     36          6           0        7.660876   -1.324494    0.334870
     37          6           0        6.297213    0.601870   -0.181194
     38          6           0       -0.948874    1.790746   -0.243743
     39          6           0        4.980224    0.018397   -0.208992
     40          6           0        0.042972    0.890718   -0.125355
     41          6           0        3.814106    0.745036   -0.303947
     42          6           0        1.379503    1.240710   -0.306009
     43          6           0        2.449972    0.393261   -0.143040
     44          6           0        2.149734   -1.167282   -0.083776
     45          1           0      -13.019164   -2.952234   -0.910244
     46          1           0      -13.838997   -1.254983   -1.483694
     47          1           0      -13.872010    0.126871    1.870586
     48          1           0      -13.959081    0.458737    0.027627
     49          1           0      -14.572414   -1.701128    0.450645
     50          1           0      -10.536598   -2.889978   -1.456150
     51          1           0      -11.488971   -2.360404   -2.983106
     52          1           0       -9.947621   -1.540209   -2.511280
     53          1           0       -9.321778    1.195916   -0.623390
     54          1           0       -9.948668    0.475193    2.159379
     55          1           0      -11.634807    0.650379    3.101463
     56          1           0      -11.034647   -1.036460    2.469024
     57          1           0      -12.127382    2.055067   -0.224852
     58          1           0      -12.479514    2.334081    1.555505
     59          1           0      -10.817440    2.094974    1.109148
     60          1           0      -12.126611   -2.423510    1.772855
     61          1           0       -8.996519   -1.819474    0.732279
     62          1           0       -6.174897   -2.628333   -0.383931
     63          1           0       -5.476299   -1.409429    1.235479
     64          1           0       -7.003327   -2.479636    1.184922
     65          1           0       -7.346945    1.657009   -0.010731
     66          1           0       -4.483248    0.018657    0.279976
     67          1           0       13.369371   -1.012258    2.410377
     68          1           0       11.896215   -1.951407    1.863544
     69          1           0       13.651522   -2.829158    0.556661
     70          1           0       13.028460   -2.078043   -1.645622
     71          1           0       11.722391   -2.341487   -0.483661
     72          1           0       11.408212    0.383300    3.612266
     73          1           0       10.393808    1.360438    2.498072
     74          1           0       10.334470   -0.633084    2.506062
     75          1           0       13.752148    1.019324    0.521169
     76          1           0       12.201615    2.166736    1.007622
     77          1           0       13.345168    1.639816    2.256634
     78          1           0       12.986895   -0.010965   -3.040633
     79          1           0       12.221137    1.410511   -2.057554
     80          1           0       13.695280    0.714358   -1.231337
     81          1           0       -5.449338    2.969089   -0.751059
     82          1           0       10.218172   -0.112249   -2.158052
     83          1           0       15.065525   -0.996519    0.632337
     84          1           0        8.360221    1.776841   -0.567407
     85          1           0       -2.802677    4.607833    0.481014
     86          1           0       -2.350370    4.043812   -1.334026
     87          1           0       -3.862324    4.633154   -1.087255
     88          1           0       -2.671996    0.347813   -0.358017
     89          1           0        6.864057   -2.081257    0.084627
     90          1           0        8.344583   -1.930552   -0.255866
     91          1           0        7.910902   -1.317496    1.421619
     92          1           0        6.292384    1.635170   -0.573204
     93          1           0       -0.665854    2.931933   -0.280497
     94          1           0        5.149396   -1.087061   -0.201541
     95          1           0       -0.328702   -0.221991    0.102038
     96          1           0        4.007200    1.709356   -0.544394
     97          1           0        1.548422    2.280003   -0.418017
     98          1           0        1.190590   -1.383201    0.329985
     99          1           0        2.621807   -1.628443   -0.941486
    100          1           0        3.012214   -1.611900    0.682039
 ---------------------------------------------------------------------

 SCF Done:  E(RCAM-B3LYP) =  -1857.18165933     A.U. after   17 cycles

 Excitation energies and oscillator strengths:

 Excited State   1:      Singlet-A      1.8562 eV  667.96 nm  f=2.7154  <S**2>=0.000
     163 ->166         0.11362
     164 ->165         0.70789
     164 <-165        -0.13547
 This state for optimization and/or second-order correction.
 Total Energy, E(TD-HF/TD-DFT) =  -1857.11344694
 Copying the excited state density for this state as the 1-particle RhoCI density.

 The electronic state is 1-A.
 Alpha  occ. eigenvalues --  -19.22351 -19.21428 -19.20887 -19.20791 -10.32476
 Alpha  occ. eigenvalues --  -10.32242 -10.31452 -10.30952 -10.29837 -10.29070
 Alpha  occ. eigenvalues --  -10.28739 -10.28627 -10.28604 -10.28296 -10.28169
 Alpha  occ. eigenvalues --  -10.28130 -10.28128 -10.27923 -10.27857 -10.27827
 Alpha  occ. eigenvalues --  -10.27767 -10.27763 -10.27636 -10.27168 -10.27011
 Alpha  occ. eigenvalues --  -10.26922 -10.26866 -10.26700 -10.26613 -10.26491
 Alpha  occ. eigenvalues --  -10.26482 -10.26474 -10.26370 -10.26271 -10.26157
 Alpha  occ. eigenvalues --  -10.26119 -10.26035 -10.25980 -10.25844 -10.25800
 Alpha  occ. eigenvalues --  -10.25698 -10.25201 -10.23375 -10.22797  -1.12810
 Alpha  occ. eigenvalues --   -1.12168  -1.07775  -1.07120  -0.94126  -0.93022
 Alpha  occ. eigenvalues --   -0.92302  -0.91661  -0.91269  -0.90096  -0.88103
 Alpha  occ. eigenvalues --   -0.87802  -0.87685  -0.85296  -0.84610  -0.83262
 Alpha  occ. eigenvalues --   -0.82131  -0.81194  -0.80855  -0.78535  -0.77290
 Alpha  occ. eigenvalues --   -0.76313  -0.76221  -0.75706  -0.75638  -0.75533
 Alpha  occ. eigenvalues --   -0.75138  -0.73879  -0.73169  -0.71286  -0.70027
 Alpha  occ. eigenvalues --   -0.68694  -0.67112  -0.64928  -0.64255  -0.63661
 Alpha  occ. eigenvalues --   -0.63158  -0.62041  -0.60812  -0.60669  -0.59751
 Alpha  occ. eigenvalues --   -0.58628  -0.58553  -0.57512  -0.57052  -0.56282
 Alpha  occ. eigenvalues --   -0.55578  -0.55180  -0.54985  -0.54742  -0.54330
 Alpha  occ. eigenvalues --   -0.53886  -0.53141  -0.52672  -0.52595  -0.52468
 Alpha  occ. eigenvalues --   -0.51841  -0.51304  -0.51126  -0.50719  -0.49648
 Alpha  occ. eigenvalues --   -0.49357  -0.49069  -0.48923  -0.48682  -0.48603
 Alpha  occ. eigenvalues --   -0.48264  -0.47759  -0.47194  -0.47138  -0.46888
 Alpha  occ. eigenvalues --   -0.46574  -0.46454  -0.46038  -0.45535  -0.45053
 Alpha  occ. eigenvalues --   -0.44960  -0.44507  -0.44226  -0.43706  -0.43635
 Alpha  occ. eigenvalues --   -0.43335  -0.42924  -0.42646  -0.42631  -0.42558
 Alpha  occ. eigenvalues --   -0.42144  -0.41873  -0.41647  -0.41386  -0.41217
 Alpha  occ. eigenvalues --   -0.40528  -0.40317  -0.40225  -0.39840  -0.39681
 Alpha  occ. eigenvalues --   -0.39380  -0.38999  -0.38914  -0.38868  -0.38513
 Alpha  occ. eigenvalues --   -0.38369  -0.37907  -0.37567  -0.37098  -0.36605
 Alpha  occ. eigenvalues --   -0.36203  -0.35319  -0.34927  -0.34494  -0.33940
 Alpha  occ. eigenvalues --   -0.33229  -0.32331  -0.32230  -0.31909  -0.30800
 Alpha  occ. eigenvalues --   -0.29287  -0.28697  -0.24606  -0.18993
 Alpha virt. eigenvalues --   -0.07344  -0.01325   0.03228   0.05151   0.06236
 Alpha virt. eigenvalues --    0.07989   0.09155   0.09536   0.10197   0.11281
 Alpha virt. eigenvalues --    0.11421   0.12223   0.12535   0.12768   0.13022

 Mulliken charges:
               1
     1  O   -0.526166
     2  O   -0.578040
     3  O   -0.564230
     4  O   -0.512376
     5  C    0.198025
     6  C    0.260143
     7  C    0.014567
     8  C   -0.215004
     9  C   -0.180285
    10  C    0.142234
    11  C   -0.322667
    12  C   -0.117969
    13  C   -0.291012
    14  C   -0.287277
    15  C   -0.064672
    16  C    0.071345
    17  C   -0.361869
    18  C   -0.076248
    19  C   -0.079770
    20  C    0.025008
    21  C    0.224745
    22  C   -0.217058
    23  C    0.137945
    24  C   -0.152570
    25  C   -0.057023
    26  C   -0.290820
    27  C   -0.290426
    28  C   -0.280345
    29  C   -0.121490
    30  C    0.079163
    31  C    0.089722
    32  C   -0.267245
    33  C   -0.356324
    34  C   -0.120933
    35  C    0.159838
    36  C   -0.398574
    37  C   -0.107035
    38  C   -0.082335
    39  C   -0.082082
    40  C   -0.069519
    41  C   -0.117630
    42  C   -0.113081
    43  C    0.099236
    44  C   -0.359759
    45  H    0.127153
    46  H    0.135252
    47  H    0.098476
    48  H    0.085144
    49  H    0.098134
    50  H    0.118676
    51  H    0.077089
    52  H    0.128102
    53  H    0.125452
    54  H    0.090526
    55  H    0.098085
    56  H    0.077821
    57  H    0.129982
    58  H    0.104359
    59  H    0.096544
    60  H    0.293044
    61  H    0.070663
    62  H    0.105015
    63  H    0.124615
    64  H    0.097885
    65  H    0.055856
    66  H    0.072418
    67  H    0.082923
    68  H    0.101297
    69  H    0.103083
    70  H    0.117712
    71  H    0.113918
    72  H    0.096890
    73  H    0.100286
    74  H    0.095631
    75  H    0.078701
    76  H    0.110816
    77  H    0.103340
    78  H    0.077994
    79  H    0.105729
    80  H    0.106512
    81  H    0.096283
    82  H    0.304163
    83  H    0.274186
    84  H    0.105745
    85  H    0.085303
    86  H    0.127111
    87  H    0.100961
    88  H    0.078237
    89  H    0.102520
    90  H    0.134541
    91  H    0.134865
    92  H    0.069180
    93  H    0.089840
    94  H    0.075568
    95  H    0.081894
    96  H    0.074258
    97  H    0.084047
    98  H    0.117406
    99  H    0.139405
   100  H    0.079229
 Sum of Mulliken charges =  -0.00000

 Dipole moment (field-independent basis, Debye):
    X=              1.9926    Y=             -0.4662    Z=              3.0831  Tot=              3.7004
 Quadrupole moment (field-independent basis, Debye-Ang):
   XX=           -286.1091   YY=           -259.1963   ZZ=           -280.3847
   XY=              5.3662   XZ=             28.0945   YZ=             -4.2291

 Normal termination of Gaussian 16 at Mon Jul 29 05:58:08 2019.
