 Gaussian 16, Revision A.03,
 Gaussian 16:  ES64L-G16RevA.03 25-Dec-2016

 -------------------------------------
 # td=(NStates=1) CAM-B3LYP/6-31G(d,p)
 -------------------------------------

 --
 TD
 --
 Symbolic Z-matrix:
 Charge =  0 Multiplicity = 1

                         Standard orientation:
 ---------------------------------------------------------------------
 Center     Atomic      Atomic             Coordinates (Angstroms)
 Number     Number       Type             X           Y           Z
 ---------------------------------------------------------------------
      1          8           0      -11.621208    0.129770   -1.660939
      2          8           0      -13.082512   -2.382455    1.440261
      3          8           0       10.695915   -1.038252   -2.142106
      4          8           0       14.491207   -1.042226    0.176730
      5          6           0      -10.993913   -0.133603   -0.392455
      6          6           0      -11.652857   -1.248351   -1.199340
      7          6           0      -11.746206    0.361684    0.856178
      8          6           0      -13.081267   -1.808325   -0.959846
      9          6           0      -13.222302   -0.068439    0.885211
     10          6           0      -13.613527   -1.442969    0.518989
     11          6           0      -10.712650   -2.084232   -2.054680
     12          6           0       -9.552942    0.168624   -0.287811
     13          6           0      -11.137224   -0.137605    2.248161
     14          6           0      -11.826912    1.954038    0.999930
     15          6           0       -8.638165   -0.729695    0.064752
     16          6           0       -7.228346   -0.515142    0.197600
     17          6           0       -6.383939   -1.803371    0.592730
     18          6           0       -6.594964    0.673763   -0.070531
     19          6           0       -5.213310    0.874399    0.114576
     20          6           0       11.815712   -0.012177    1.449627
     21          6           0       11.735626   -0.619494   -1.077808
     22          6           0       12.558059   -1.304330    1.686522
     23          6           0       13.325389   -1.887224    0.444504
     24          6           0       12.538029   -1.838804   -0.823795
     25          6           0       10.999610    0.027775    0.164250
     26          6           0       10.878001    0.339492    2.610325
     27          6           0       12.861528    1.176968    1.422300
     28          6           0       12.622841    0.286111   -1.998770
     29          6           0       -4.622860    2.172309   -0.309308
     30          6           0        9.814567    0.544578   -0.083963
     31          6           0       -3.286418    2.557034   -0.379076
     32          6           0        8.580555    1.052639   -0.428339
     33          6           0       -3.157363    3.929135   -0.786142
     34          6           0       -2.276356    1.590384   -0.200446
     35          6           0        7.355019    0.086876   -0.287072
     36          6           0        7.615049   -1.337096   -0.090493
     37          6           0        6.155900    0.865419   -0.289696
     38          6           0       -0.887350    1.853432   -0.386817
     39          6           0        5.035952    0.146203   -0.158858
     40          6           0        0.054225    0.972414   -0.254460
     41          6           0        3.845384    0.932982   -0.205982
     42          6           0        1.462158    1.247829   -0.202268
     43          6           0        2.554180    0.363526   -0.122846
     44          6           0        2.383914   -1.105428    0.141599
     45          1           0      -13.134045   -2.863768   -0.993156
     46          1           0      -13.632673   -1.135403   -1.742571
     47          1           0      -13.851729    0.472565    1.743953
     48          1           0      -13.637793    0.500748    0.230849
     49          1           0      -14.672101   -1.782263    0.464939
     50          1           0      -10.627191   -3.163214   -1.456952
     51          1           0      -11.464409   -2.670015   -2.810716
     52          1           0       -9.831228   -1.543485   -2.463277
     53          1           0       -9.325139    1.172812   -0.800585
     54          1           0      -10.163746    0.308445    2.334142
     55          1           0      -11.715999    0.556963    3.192961
     56          1           0      -11.186871   -1.137521    2.492920
     57          1           0      -12.113421    2.434918    0.078986
     58          1           0      -12.304921    2.068659    1.824113
     59          1           0      -10.754683    2.274642    1.213209
     60          1           0      -11.932000   -2.200471    1.378097
     61          1           0       -8.900055   -1.655205    0.584210
     62          1           0       -5.583175   -1.822448   -0.137848
     63          1           0       -5.938764   -1.888974    1.542969
     64          1           0       -7.029236   -2.965413    0.254197
     65          1           0       -7.284756    1.384931   -0.311532
     66          1           0       -4.656724    0.053514    0.695489
     67          1           0       13.040776   -1.304305    2.580828
     68          1           0       11.921806   -2.094626    1.752046
     69          1           0       13.721883   -2.811519    0.631351
     70          1           0       13.228967   -2.226312   -1.608125
     71          1           0       11.792044   -2.751125   -0.861726
     72          1           0       11.304836    0.582348    3.609499
     73          1           0       10.207689    1.219017    2.333055
     74          1           0       10.113125   -0.546596    2.577998
     75          1           0       13.809077    1.094989    0.696795
     76          1           0       12.362026    2.098784    1.159197
     77          1           0       13.325813    1.201041    2.535323
     78          1           0       12.957949   -0.225034   -2.953665
     79          1           0       11.959376    1.183092   -2.302955
     80          1           0       13.404889    0.566868   -1.423008
     81          1           0       -5.280049    2.958642   -0.507645
     82          1           0       10.010595   -0.260503   -2.171026
     83          1           0       14.984678   -0.725043    1.098214
     84          1           0        8.271146    2.003676   -0.655841
     85          1           0       -2.277307    4.299830   -0.094239
     86          1           0       -2.733604    3.972003   -1.928183
     87          1           0       -3.969461    4.601075   -0.713871
     88          1           0       -2.583746    0.611008   -0.248559
     89          1           0        6.832689   -1.984347   -0.454005
     90          1           0        8.401403   -1.744616   -0.615143
     91          1           0        7.743730   -1.557591    0.964970
     92          1           0        5.977747    1.995356   -0.146381
     93          1           0       -0.600486    2.863173   -0.604834
     94          1           0        4.850260   -0.983527   -0.120098
     95          1           0       -0.044159   -0.038242   -0.394284
     96          1           0        4.038289    1.930956   -0.232010
     97          1           0        1.730425    2.146943   -0.291897
     98          1           0        1.340623   -1.443920   -0.115907
     99          1           0        3.129151   -1.697812   -0.597162
    100          1           0        2.724293   -1.276364    1.196607
 ---------------------------------------------------------------------

 SCF Done:  E(RCAM-B3LYP) =  -1857.20544574     A.U. after   16 cycles

 Excitation energies and oscillator strengths:

 Excited State   1:      Singlet-A      2.0070 eV  617.75 nm  f=3.0414  <S**2>=0.000
     163 ->166         0.14190
     164 ->165         0.69443
 This state for optimization and/or second-order correction.
 Total Energy, E(TD-HF/TD-DFT) =  -1857.13168934
 Copying the excited state density for this state as the 1-particle RhoCI density.

 The electronic state is 1-A.
 Alpha  occ. eigenvalues --  -19.22231 -19.21762 -19.21376 -19.19483 -10.32415
 Alpha  occ. eigenvalues --  -10.32050 -10.32005 -10.30742 -10.30651 -10.29210
 Alpha  occ. eigenvalues --  -10.28974 -10.28678 -10.28637 -10.28516 -10.28243
 Alpha  occ. eigenvalues --  -10.28231 -10.27766 -10.27759 -10.27648 -10.27498
 Alpha  occ. eigenvalues --  -10.27453 -10.27250 -10.27122 -10.26945 -10.26843
 Alpha  occ. eigenvalues --  -10.26736 -10.26642 -10.26590 -10.26584 -10.26427
 Alpha  occ. eigenvalues --  -10.26240 -10.26214 -10.25822 -10.25762 -10.25516
 Alpha  occ. eigenvalues --  -10.25514 -10.25513 -10.25025 -10.24975 -10.24762
 Alpha  occ. eigenvalues --  -10.24532 -10.24063 -10.23730 -10.23511  -1.14254
 Alpha  occ. eigenvalues --   -1.06861  -1.06536  -1.04068  -0.93163  -0.92884
 Alpha  occ. eigenvalues --   -0.92391  -0.91599  -0.90568  -0.90083  -0.88049
 Alpha  occ. eigenvalues --   -0.86289  -0.85971  -0.85556  -0.84690  -0.83614
 Alpha  occ. eigenvalues --   -0.81213  -0.80798  -0.80017  -0.79222  -0.77723
 Alpha  occ. eigenvalues --   -0.76411  -0.76327  -0.76282  -0.75847  -0.75712
 Alpha  occ. eigenvalues --   -0.74863  -0.74668  -0.73424  -0.70283  -0.69908
 Alpha  occ. eigenvalues --   -0.68216  -0.67090  -0.65234  -0.64894  -0.63926
 Alpha  occ. eigenvalues --   -0.63852  -0.62505  -0.62343  -0.60974  -0.59415
 Alpha  occ. eigenvalues --   -0.58910  -0.57996  -0.57794  -0.56676  -0.56606
 Alpha  occ. eigenvalues --   -0.56462  -0.55773  -0.55037  -0.54619  -0.53862
 Alpha  occ. eigenvalues --   -0.53647  -0.53369  -0.52361  -0.51998  -0.51758
 Alpha  occ. eigenvalues --   -0.51101  -0.50822  -0.50589  -0.50221  -0.49952
 Alpha  occ. eigenvalues --   -0.49575  -0.49274  -0.49177  -0.48673  -0.48258
 Alpha  occ. eigenvalues --   -0.48175  -0.48038  -0.47900  -0.47636  -0.47525
 Alpha  occ. eigenvalues --   -0.46895  -0.46414  -0.46235  -0.45854  -0.45800
 Alpha  occ. eigenvalues --   -0.45238  -0.44739  -0.44491  -0.44258  -0.43874
 Alpha  occ. eigenvalues --   -0.43742  -0.43345  -0.42848  -0.42839  -0.42370
 Alpha  occ. eigenvalues --   -0.42190  -0.42105  -0.41846  -0.41049  -0.40906
 Alpha  occ. eigenvalues --   -0.40817  -0.40709  -0.40511  -0.40502  -0.39946
 Alpha  occ. eigenvalues --   -0.39755  -0.39413  -0.39112  -0.38897  -0.38829
 Alpha  occ. eigenvalues --   -0.38239  -0.37863  -0.37368  -0.36560  -0.36321
 Alpha  occ. eigenvalues --   -0.35968  -0.35788  -0.34936  -0.33914  -0.33415
 Alpha  occ. eigenvalues --   -0.32007  -0.31918  -0.31699  -0.30778  -0.30677
 Alpha  occ. eigenvalues --   -0.30290  -0.28512  -0.23533  -0.19215
 Alpha virt. eigenvalues --   -0.06446  -0.01717   0.03227   0.05550   0.06011
 Alpha virt. eigenvalues --    0.07544   0.08967   0.09247   0.10616   0.11290
 Alpha virt. eigenvalues --    0.11611   0.11923   0.12785   0.13271   0.13628

 Mulliken charges:
               1
     1  O   -0.515455
     2  O   -0.545116
     3  O   -0.593297
     4  O   -0.573123
     5  C    0.226835
     6  C    0.227137
     7  C   -0.025781
     8  C   -0.214873
     9  C   -0.155283
    10  C    0.141721
    11  C   -0.313244
    12  C   -0.137784
    13  C   -0.301265
    14  C   -0.301135
    15  C   -0.057126
    16  C    0.046469
    17  C   -0.369285
    18  C   -0.054951
    19  C   -0.111651
    20  C    0.025545
    21  C    0.226302
    22  C   -0.192222
    23  C    0.165158
    24  C   -0.195922
    25  C   -0.063241
    26  C   -0.308375
    27  C   -0.298083
    28  C   -0.266491
    29  C   -0.138555
    30  C    0.122500
    31  C    0.130977
    32  C   -0.256224
    33  C   -0.377339
    34  C   -0.114071
    35  C    0.070692
    36  C   -0.383926
    37  C   -0.120645
    38  C   -0.085676
    39  C   -0.053295
    40  C   -0.052956
    41  C   -0.121534
    42  C   -0.100650
    43  C    0.095306
    44  C   -0.370771
    45  H    0.114941
    46  H    0.122941
    47  H    0.076899
    48  H    0.114161
    49  H    0.102140
    50  H    0.077976
    51  H    0.091559
    52  H    0.137626
    53  H    0.111409
    54  H    0.118394
    55  H    0.063197
    56  H    0.108123
    57  H    0.123463
    58  H    0.117012
    59  H    0.086005
    60  H    0.285525
    61  H    0.086953
    62  H    0.131673
    63  H    0.134517
    64  H    0.055200
    65  H    0.074767
    66  H    0.102287
    67  H    0.096447
    68  H    0.106937
    69  H    0.092819
    70  H    0.129170
    71  H    0.102329
    72  H    0.101559
    73  H    0.110289
    74  H    0.089968
    75  H    0.111810
    76  H    0.111508
    77  H    0.067219
    78  H    0.114816
    79  H    0.067807
    80  H    0.122642
    81  H    0.081581
    82  H    0.302026
    83  H    0.300954
    84  H    0.110760
    85  H    0.107257
    86  H    0.110646
    87  H    0.125351
    88  H    0.086893
    89  H    0.115172
    90  H    0.148547
    91  H    0.133842
    92  H    0.106009
    93  H    0.081971
    94  H    0.092485
    95  H    0.066153
    96  H    0.069857
    97  H    0.043003
    98  H    0.112840
    99  H    0.097671
   100  H    0.135598
 Sum of Mulliken charges =  -0.00000

 Dipole moment (field-independent basis, Debye):
    X=              2.8584    Y=              0.8710    Z=              2.7629  Tot=              4.0697
 Quadrupole moment (field-independent basis, Debye-Ang):
   XX=           -304.8745   YY=           -258.2105   ZZ=           -280.4992
   XY=            -10.7266   XZ=             41.8851   YZ=             -2.1115

 Normal termination of Gaussian 16 at Thu Aug  1 01:00:26 2019.
