 Gaussian 16, Revision A.03,
 Gaussian 16:  ES64L-G16RevA.03 25-Dec-2016

 -------------------------------------
 # td=(NStates=1) CAM-B3LYP/6-31G(d,p)
 -------------------------------------

 --
 TD
 --
 Symbolic Z-matrix:
 Charge =  0 Multiplicity = 1

                         Standard orientation:
 ---------------------------------------------------------------------
 Center     Atomic      Atomic             Coordinates (Angstroms)
 Number     Number       Type             X           Y           Z
 ---------------------------------------------------------------------
      1          8           0      -11.847636    0.418427   -1.401942
      2          8           0      -12.978113   -2.611052    1.108062
      3          8           0       10.616175   -0.920739   -2.166682
      4          8           0       14.506162   -1.098425   -0.148672
      5          6           0      -11.089028   -0.122041   -0.233343
      6          6           0      -11.745238   -1.002140   -1.282475
      7          6           0      -11.912305    0.213303    1.030798
      8          6           0      -13.114991   -1.713853   -1.231986
      9          6           0      -13.290723   -0.252619    0.860568
     10          6           0      -13.652460   -1.678561    0.299324
     11          6           0      -10.820078   -1.640315   -2.293657
     12          6           0       -9.632908    0.216815   -0.282619
     13          6           0      -11.230468   -0.258168    2.371583
     14          6           0      -11.976361    1.836475    1.156400
     15          6           0       -8.733102   -0.673861    0.100537
     16          6           0       -7.256321   -0.473340    0.260228
     17          6           0       -6.419370   -1.705856    0.662070
     18          6           0       -6.660302    0.737441   -0.219620
     19          6           0       -5.215350    0.905372   -0.083187
     20          6           0       12.064383   -0.003004    1.402397
     21          6           0       11.701722   -0.608287   -1.180360
     22          6           0       12.613248   -1.376376    1.487600
     23          6           0       13.419126   -1.892007    0.177619
     24          6           0       12.320508   -1.867723   -0.972463
     25          6           0       11.170171    0.103953    0.095111
     26          6           0       11.119234    0.157920    2.570287
     27          6           0       13.053866    1.234651    1.277803
     28          6           0       12.497143    0.367455   -2.119865
     29          6           0       -4.601330    2.081632   -0.410795
     30          6           0        9.935258    0.638148    0.004968
     31          6           0       -3.223098    2.467156   -0.547314
     32          6           0        8.603613    1.041374   -0.066699
     33          6           0       -2.907717    3.993501   -0.622038
     34          6           0       -2.195500    1.561030   -0.318905
     35          6           0        7.443006    0.182521   -0.078227
     36          6           0        7.682213   -1.252708    0.078740
     37          6           0        6.223719    0.772320   -0.100489
     38          6           0       -0.786964    1.902494   -0.220833
     39          6           0        5.013907    0.195716    0.068578
     40          6           0        0.100804    0.878890   -0.043374
     41          6           0        3.739985    0.844600   -0.072880
     42          6           0        1.411596    1.214858   -0.109086
     43          6           0        2.432908    0.277467    0.025009
     44          6           0        2.333081   -1.188369    0.236482
     45          1           0      -12.802300   -2.742160   -1.351522
     46          1           0      -13.714927   -1.281807   -1.895453
     47          1           0      -13.970113   -0.196914    1.787869
     48          1           0      -13.818544    0.295645    0.232552
     49          1           0      -14.645819   -1.712773    0.337145
     50          1           0      -10.392451   -2.733872   -1.955168
     51          1           0      -11.419390   -1.659824   -3.252485
     52          1           0       -9.840919   -1.199704   -2.643063
     53          1           0       -9.505158    1.271626   -0.743682
     54          1           0      -10.309230    0.218152    2.470707
     55          1           0      -11.967144   -0.011900    3.229601
     56          1           0      -11.088642   -1.447860    2.433938
     57          1           0      -12.292158    2.339929    0.308722
     58          1           0      -12.849766    2.155032    1.879222
     59          1           0      -11.032594    2.201221    1.579519
     60          1           0      -11.973561   -2.533164    0.986639
     61          1           0       -9.157366   -1.717191    0.647923
     62          1           0       -5.754885   -2.173834   -0.331190
     63          1           0       -5.803148   -1.697624    1.430674
     64          1           0       -7.032069   -2.427836    1.005575
     65          1           0       -7.220440    1.404199   -0.546312
     66          1           0       -4.709750   -0.148761    0.305885
     67          1           0       13.497055   -1.363681    2.281167
     68          1           0       11.868144   -2.122274    1.923736
     69          1           0       13.664930   -2.952920    0.294925
     70          1           0       12.861172   -2.396860   -1.827774
     71          1           0       11.556748   -2.717251   -0.592377
     72          1           0       11.733051   -0.255555    3.462217
     73          1           0       10.692464    1.035974    2.969131
     74          1           0       10.372712   -0.691914    2.468682
     75          1           0       13.631079    1.015887    0.279248
     76          1           0       12.648500    2.170361    1.414155
     77          1           0       13.562110    1.216594    2.168603
     78          1           0       12.738532   -0.093255   -2.899878
     79          1           0       11.885172    1.250588   -1.996836
     80          1           0       13.380660    0.580902   -1.667789
     81          1           0       -5.266999    2.993707   -0.564413
     82          1           0       10.122852   -0.038741   -2.114735
     83          1           0       15.101093   -1.121455    0.626102
     84          1           0        8.422485    2.113680   -0.001318
     85          1           0       -2.487876    4.252880    0.272093
     86          1           0       -2.373172    4.360525   -1.526145
     87          1           0       -3.576371    4.682413   -0.754866
     88          1           0       -2.626900    0.576648   -0.056516
     89          1           0        6.696768   -1.648637   -0.451446
     90          1           0        8.498686   -1.731130   -0.686338
     91          1           0        8.198856   -1.581196    1.127952
     92          1           0        6.377182    1.910749   -0.076050
     93          1           0       -0.274261    2.968749   -0.268909
     94          1           0        5.100304   -0.959510    0.165555
     95          1           0       -0.123210   -0.165219   -0.029285
     96          1           0        3.901895    1.901599   -0.126520
     97          1           0        1.847127    2.376081   -0.310938
     98          1           0        1.188282   -1.546302    0.514678
     99          1           0        2.708467   -1.868133   -0.526815
    100          1           0        2.904879   -1.354740    1.412146
 ---------------------------------------------------------------------

 SCF Done:  E(RCAM-B3LYP) =  -1857.19585931     A.U. after   15 cycles

 Excitation energies and oscillator strengths:

 Excited State   1:      Singlet-A      2.1911 eV  565.85 nm  f=3.3697  <S**2>=0.000
     163 ->166        -0.15184
     164 ->165         0.68860
 This state for optimization and/or second-order correction.
 Total Energy, E(TD-HF/TD-DFT) =  -1857.11533734
 Copying the excited state density for this state as the 1-particle RhoCI density.

 The electronic state is 1-A.
 Alpha  occ. eigenvalues --  -19.23551 -19.21511 -19.21268 -19.19457 -10.32233
 Alpha  occ. eigenvalues --  -10.32018 -10.32013 -10.30826 -10.30085 -10.29339
 Alpha  occ. eigenvalues --  -10.28918 -10.28882 -10.28875 -10.28140 -10.28020
 Alpha  occ. eigenvalues --  -10.27970 -10.27963 -10.27879 -10.27807 -10.27777
 Alpha  occ. eigenvalues --  -10.27755 -10.27659 -10.27603 -10.27454 -10.27186
 Alpha  occ. eigenvalues --  -10.27054 -10.26813 -10.26782 -10.26624 -10.26567
 Alpha  occ. eigenvalues --  -10.26529 -10.26174 -10.26120 -10.25955 -10.25955
 Alpha  occ. eigenvalues --  -10.25939 -10.25787 -10.25213 -10.25068 -10.24742
 Alpha  occ. eigenvalues --  -10.24474 -10.23961 -10.23043 -10.21177  -1.13308
 Alpha  occ. eigenvalues --   -1.12284  -1.08775  -1.06329  -0.92879  -0.92657
 Alpha  occ. eigenvalues --   -0.91684  -0.91186  -0.90172  -0.89333  -0.87326
 Alpha  occ. eigenvalues --   -0.86248  -0.86054  -0.85212  -0.84486  -0.82595
 Alpha  occ. eigenvalues --   -0.82019  -0.80347  -0.80041  -0.78943  -0.77673
 Alpha  occ. eigenvalues --   -0.77269  -0.76393  -0.75777  -0.75571  -0.75478
 Alpha  occ. eigenvalues --   -0.74922  -0.74406  -0.72854  -0.71090  -0.70491
 Alpha  occ. eigenvalues --   -0.68933  -0.66956  -0.65365  -0.64287  -0.63973
 Alpha  occ. eigenvalues --   -0.63293  -0.61897  -0.61380  -0.60630  -0.58925
 Alpha  occ. eigenvalues --   -0.58635  -0.58168  -0.57447  -0.56596  -0.55982
 Alpha  occ. eigenvalues --   -0.55268  -0.55164  -0.54707  -0.54574  -0.54092
 Alpha  occ. eigenvalues --   -0.53704  -0.53395  -0.52777  -0.52228  -0.51831
 Alpha  occ. eigenvalues --   -0.50821  -0.50544  -0.50387  -0.50222  -0.49946
 Alpha  occ. eigenvalues --   -0.49504  -0.49262  -0.48677  -0.48620  -0.48289
 Alpha  occ. eigenvalues --   -0.48038  -0.47757  -0.47568  -0.47080  -0.46939
 Alpha  occ. eigenvalues --   -0.46424  -0.46156  -0.46066  -0.45571  -0.45324
 Alpha  occ. eigenvalues --   -0.44841  -0.44588  -0.44092  -0.43616  -0.43529
 Alpha  occ. eigenvalues --   -0.43399  -0.43264  -0.42730  -0.42509  -0.42328
 Alpha  occ. eigenvalues --   -0.42322  -0.41997  -0.41557  -0.41393  -0.41243
 Alpha  occ. eigenvalues --   -0.41015  -0.40857  -0.40541  -0.40023  -0.39505
 Alpha  occ. eigenvalues --   -0.39264  -0.39088  -0.38975  -0.38587  -0.38276
 Alpha  occ. eigenvalues --   -0.38038  -0.37953  -0.37824  -0.37378  -0.36973
 Alpha  occ. eigenvalues --   -0.36617  -0.35653  -0.35070  -0.34049  -0.33794
 Alpha  occ. eigenvalues --   -0.33104  -0.32016  -0.31625  -0.30671  -0.30012
 Alpha  occ. eigenvalues --   -0.29285  -0.27752  -0.24038  -0.19692
 Alpha virt. eigenvalues --   -0.06064  -0.01477   0.02607   0.05627   0.07013
 Alpha virt. eigenvalues --    0.08325   0.09122   0.10157   0.10764   0.11341
 Alpha virt. eigenvalues --    0.11757   0.11958   0.12275   0.13160   0.13803

 Mulliken charges:
               1
     1  O   -0.519567
     2  O   -0.552413
     3  O   -0.564723
     4  O   -0.521677
     5  C    0.150547
     6  C    0.251141
     7  C    0.036268
     8  C   -0.205826
     9  C   -0.185129
    10  C    0.156808
    11  C   -0.328196
    12  C   -0.096130
    13  C   -0.295395
    14  C   -0.318318
    15  C   -0.081061
    16  C    0.040148
    17  C   -0.356539
    18  C   -0.039424
    19  C   -0.075812
    20  C    0.055596
    21  C    0.210591
    22  C   -0.211243
    23  C    0.139493
    24  C   -0.185055
    25  C   -0.071392
    26  C   -0.315260
    27  C   -0.308335
    28  C   -0.253857
    29  C   -0.133941
    30  C    0.067834
    31  C    0.078853
    32  C   -0.264476
    33  C   -0.371384
    34  C   -0.130107
    35  C    0.166898
    36  C   -0.388629
    37  C   -0.078601
    38  C   -0.101076
    39  C   -0.127048
    40  C   -0.046162
    41  C   -0.121169
    42  C   -0.113251
    43  C    0.126771
    44  C   -0.357093
    45  H    0.114971
    46  H    0.123173
    47  H    0.079715
    48  H    0.107870
    49  H    0.101838
    50  H    0.078890
    51  H    0.105644
    52  H    0.122282
    53  H    0.123547
    54  H    0.119252
    55  H    0.105766
    56  H    0.065562
    57  H    0.132608
    58  H    0.083649
    59  H    0.099808
    60  H    0.311783
    61  H    0.063668
    62  H    0.092814
    63  H    0.134992
    64  H    0.110513
    65  H    0.055792
    66  H    0.085410
    67  H    0.058396
    68  H    0.108477
    69  H    0.082347
    70  H    0.109434
    71  H    0.090980
    72  H    0.076416
    73  H    0.118192
    74  H    0.101270
    75  H    0.130463
    76  H    0.115340
    77  H    0.096046
    78  H    0.116612
    79  H    0.089487
    80  H    0.105489
    81  H    0.083741
    82  H    0.299148
    83  H    0.315352
    84  H    0.103033
    85  H    0.135746
    86  H    0.108082
    87  H    0.111714
    88  H    0.089431
    89  H    0.099387
    90  H    0.125956
    91  H    0.114798
    92  H    0.070739
    93  H    0.103933
    94  H    0.080336
    95  H    0.095468
    96  H    0.079042
    97  H    0.079570
    98  H    0.086804
    99  H    0.143147
   100  H    0.093416
 Sum of Mulliken charges =  -0.00000

 Dipole moment (field-independent basis, Debye):
    X=              2.6203    Y=              0.4314    Z=              2.8711  Tot=              3.9109
 Quadrupole moment (field-independent basis, Debye-Ang):
   XX=           -269.3133   YY=           -258.3869   ZZ=           -280.2086
   XY=             -8.6717   XZ=             40.1673   YZ=             -1.8721

 Normal termination of Gaussian 16 at Wed Jul 31 21:16:13 2019.
