 Gaussian 16, Revision A.03,
 Gaussian 16:  ES64L-G16RevA.03 25-Dec-2016

 -------------------------------------
 # td=(NStates=1) CAM-B3LYP/6-31G(d,p)
 -------------------------------------

 --
 TD
 --
 Symbolic Z-matrix:
 Charge =  0 Multiplicity = 1

                         Standard orientation:
 ---------------------------------------------------------------------
 Center     Atomic      Atomic             Coordinates (Angstroms)
 Number     Number       Type             X           Y           Z
 ---------------------------------------------------------------------
      1          8           0      -11.689986    0.404472   -1.340234
      2          8           0      -13.040637   -2.480868    1.315541
      3          8           0       10.645123   -1.168530   -2.042820
      4          8           0       14.555115   -1.009093    0.039302
      5          6           0      -10.974928   -0.132125   -0.184530
      6          6           0      -11.586771   -0.986375   -1.277670
      7          6           0      -11.627268    0.168372    1.099681
      8          6           0      -12.994425   -1.623323   -0.849030
      9          6           0      -13.186266   -0.081456    1.060987
     10          6           0      -13.531361   -1.540628    0.481619
     11          6           0      -10.856493   -1.714525   -2.318543
     12          6           0       -9.504872    0.116489   -0.343226
     13          6           0      -11.051430   -0.451166    2.254070
     14          6           0      -11.588836    1.757228    1.224111
     15          6           0       -8.608039   -0.752885    0.060338
     16          6           0       -7.176011   -0.611802    0.087901
     17          6           0       -6.244685   -1.768004    0.270896
     18          6           0       -6.616471    0.708173   -0.064598
     19          6           0       -5.224386    0.872709   -0.156848
     20          6           0       11.880828    0.166019    1.431458
     21          6           0       11.739469   -0.701449   -1.195262
     22          6           0       12.738692   -1.182724    1.657848
     23          6           0       13.444263   -1.805038    0.413637
     24          6           0       12.471905   -1.963151   -0.789012
     25          6           0       11.051605    0.089849    0.062749
     26          6           0       10.953408    0.447661    2.528209
     27          6           0       12.931644    1.276516    1.421520
     28          6           0       12.540792    0.308657   -1.993989
     29          6           0       -4.628706    2.213422   -0.247032
     30          6           0        9.867527    0.542413   -0.082088
     31          6           0       -3.380492    2.513514   -0.385094
     32          6           0        8.591633    0.890338   -0.254370
     33          6           0       -3.068980    3.955130   -0.568236
     34          6           0       -2.394204    1.609920   -0.400511
     35          6           0        7.404703    0.123129   -0.147515
     36          6           0        7.567259   -1.289292    0.205351
     37          6           0        6.101049    0.658482   -0.262244
     38          6           0       -1.082293    1.926790   -0.504718
     39          6           0        4.892065    0.172061   -0.161164
     40          6           0       -0.044529    0.871788   -0.256872
     41          6           0        3.654770    0.737712   -0.132539
     42          6           0        1.278458    1.218840   -0.354851
     43          6           0        2.415419    0.322248   -0.139276
     44          6           0        2.214209   -1.209156    0.135103
     45          1           0      -12.926910   -2.563069   -1.394151
     46          1           0      -13.622713   -0.998176   -1.563098
     47          1           0      -13.602589    0.041252    2.135743
     48          1           0      -13.785376    0.574998    0.433993
     49          1           0      -14.693068   -1.530798    0.394743
     50          1           0      -10.229204   -2.758686   -1.942174
     51          1           0      -11.603371   -1.771402   -3.225339
     52          1           0       -9.958923   -1.106608   -2.622625
     53          1           0       -9.182437    1.175473   -0.738906
     54          1           0       -9.968531   -0.265565    2.447549
     55          1           0      -11.723793    0.077784    3.153192
     56          1           0      -11.068230   -1.535473    2.379435
     57          1           0      -11.723754    2.277042    0.340152
     58          1           0      -12.244922    2.215330    1.955218
     59          1           0      -10.573099    1.914753    1.312157
     60          1           0      -12.145571   -2.600704    0.988872
     61          1           0       -9.048153   -1.876957    0.453749
     62          1           0       -5.574385   -1.956722   -0.612615
     63          1           0       -5.796912   -1.773113    1.215052
     64          1           0       -6.877572   -2.605760    0.377581
     65          1           0       -7.214859    1.578333   -0.066311
     66          1           0       -4.412952    0.054503   -0.302265
     67          1           0       13.637915   -0.988384    2.404203
     68          1           0       12.106956   -1.958237    2.185032
     69          1           0       13.627302   -2.831583    0.683589
     70          1           0       12.981912   -2.148889   -1.750901
     71          1           0       11.679514   -2.612742   -0.456897
     72          1           0       11.383603    0.264887    3.472481
     73          1           0       10.440142    1.232075    2.554372
     74          1           0       10.285070   -0.401378    2.456511
     75          1           0       13.594455    1.068193    0.628444
     76          1           0       12.322131    2.219322    1.125412
     77          1           0       13.264247    1.490197    2.543334
     78          1           0       13.091129   -0.081496   -2.916923
     79          1           0       11.648355    1.053969   -2.410258
     80          1           0       13.469468    0.730662   -1.479832
     81          1           0       -5.400887    2.938303   -0.207746
     82          1           0        9.960536   -0.700879   -2.384089
     83          1           0       14.936009   -0.855382    0.994440
     84          1           0        8.412399    1.858378   -0.595868
     85          1           0       -2.001658    4.169491   -0.031554
     86          1           0       -2.918519    4.148311   -1.728319
     87          1           0       -3.960847    4.661411   -0.260780
     88          1           0       -2.596109    0.559201   -0.471826
     89          1           0        6.427784   -1.806787    0.003301
     90          1           0        8.368906   -1.671015   -0.378758
     91          1           0        7.927703   -1.394649    1.335465
     92          1           0        6.202214    1.766739   -0.471990
     93          1           0       -0.743591    2.974626   -0.852309
     94          1           0        4.636328   -0.759597   -0.151704
     95          1           0       -0.387429    0.039325   -0.315582
     96          1           0        3.888984    1.940421   -0.285484
     97          1           0        1.503834    2.214005   -0.613415
     98          1           0        0.956705   -1.523967   -0.515603
     99          1           0        3.079559   -2.015956   -0.357043
    100          1           0        2.186796   -1.239004    1.398460
 ---------------------------------------------------------------------

 SCF Done:  E(RCAM-B3LYP) =  -1857.13613917     A.U. after   20 cycles

 Excitation energies and oscillator strengths:

 Excited State   1:      Singlet-A      1.4781 eV  838.80 nm  f=3.0193  <S**2>=0.000
     163 ->166        -0.10032
     164 ->165         0.72763
     164 <-165        -0.20727
 This state for optimization and/or second-order correction.
 Total Energy, E(TD-HF/TD-DFT) =  -1857.08181954
 Copying the excited state density for this state as the 1-particle RhoCI density.

 The electronic state is 1-A.
 Alpha  occ. eigenvalues --  -19.23751 -19.22071 -19.21393 -19.19437 -10.33374
 Alpha  occ. eigenvalues --  -10.32340 -10.32285 -10.31923 -10.31496 -10.30572
 Alpha  occ. eigenvalues --  -10.28691 -10.28362 -10.28331 -10.28266 -10.28260
 Alpha  occ. eigenvalues --  -10.28000 -10.27890 -10.27769 -10.27654 -10.27593
 Alpha  occ. eigenvalues --  -10.27361 -10.27159 -10.27026 -10.26907 -10.26884
 Alpha  occ. eigenvalues --  -10.26754 -10.26681 -10.26428 -10.26399 -10.26114
 Alpha  occ. eigenvalues --  -10.26039 -10.25736 -10.25651 -10.25508 -10.25502
 Alpha  occ. eigenvalues --  -10.25492 -10.25449 -10.25403 -10.25275 -10.25146
 Alpha  occ. eigenvalues --  -10.25033 -10.24058 -10.22900 -10.22214  -1.15598
 Alpha  occ. eigenvalues --   -1.12731  -1.10729  -1.08772  -0.94159  -0.93220
 Alpha  occ. eigenvalues --   -0.92543  -0.92129  -0.90920  -0.90691  -0.88266
 Alpha  occ. eigenvalues --   -0.87290  -0.86431  -0.85938  -0.85081  -0.83547
 Alpha  occ. eigenvalues --   -0.82298  -0.81256  -0.80778  -0.79300  -0.77905
 Alpha  occ. eigenvalues --   -0.76971  -0.76617  -0.76536  -0.75419  -0.75131
 Alpha  occ. eigenvalues --   -0.74649  -0.74190  -0.72500  -0.70461  -0.70006
 Alpha  occ. eigenvalues --   -0.68803  -0.67398  -0.65630  -0.65067  -0.64289
 Alpha  occ. eigenvalues --   -0.64170  -0.63494  -0.61212  -0.60596  -0.60016
 Alpha  occ. eigenvalues --   -0.59422  -0.58860  -0.58407  -0.57508  -0.57060
 Alpha  occ. eigenvalues --   -0.56308  -0.55717  -0.55450  -0.54910  -0.54699
 Alpha  occ. eigenvalues --   -0.54202  -0.53514  -0.53239  -0.52674  -0.52188
 Alpha  occ. eigenvalues --   -0.51573  -0.51035  -0.50715  -0.50428  -0.50227
 Alpha  occ. eigenvalues --   -0.50189  -0.49431  -0.49222  -0.49061  -0.48533
 Alpha  occ. eigenvalues --   -0.48399  -0.48029  -0.47712  -0.47586  -0.47070
 Alpha  occ. eigenvalues --   -0.46940  -0.46822  -0.46549  -0.45811  -0.45024
 Alpha  occ. eigenvalues --   -0.44829  -0.44619  -0.44573  -0.44308  -0.43886
 Alpha  occ. eigenvalues --   -0.43434  -0.42961  -0.42894  -0.42623  -0.42084
 Alpha  occ. eigenvalues --   -0.42067  -0.41743  -0.41682  -0.41506  -0.41177
 Alpha  occ. eigenvalues --   -0.40754  -0.40656  -0.40097  -0.40005  -0.39609
 Alpha  occ. eigenvalues --   -0.39366  -0.39340  -0.39183  -0.39118  -0.38801
 Alpha  occ. eigenvalues --   -0.38282  -0.37867  -0.37109  -0.37043  -0.36735
 Alpha  occ. eigenvalues --   -0.36222  -0.35988  -0.35446  -0.34684  -0.33693
 Alpha  occ. eigenvalues --   -0.33341  -0.32849  -0.32398  -0.31685  -0.30983
 Alpha  occ. eigenvalues --   -0.28890  -0.28339  -0.24303  -0.17279
 Alpha virt. eigenvalues --   -0.08835  -0.01479   0.03035   0.06584   0.07036
 Alpha virt. eigenvalues --    0.08397   0.08847   0.09211   0.09915   0.11518
 Alpha virt. eigenvalues --    0.11604   0.12205   0.12597   0.12870   0.13059

 Mulliken charges:
               1
     1  O   -0.501050
     2  O   -0.507357
     3  O   -0.586969
     4  O   -0.534650
     5  C    0.164061
     6  C    0.266544
     7  C    0.018344
     8  C   -0.227049
     9  C   -0.178407
    10  C    0.145426
    11  C   -0.340401
    12  C   -0.110949
    13  C   -0.287127
    14  C   -0.316275
    15  C   -0.060837
    16  C    0.052180
    17  C   -0.369285
    18  C   -0.104387
    19  C   -0.066320
    20  C    0.033868
    21  C    0.269663
    22  C   -0.227983
    23  C    0.155729
    24  C   -0.177979
    25  C   -0.153807
    26  C   -0.294242
    27  C   -0.296241
    28  C   -0.287727
    29  C   -0.160883
    30  C    0.215682
    31  C    0.181314
    32  C   -0.290894
    33  C   -0.374148
    34  C   -0.104025
    35  C    0.154998
    36  C   -0.363934
    37  C   -0.116900
    38  C   -0.127259
    39  C   -0.009823
    40  C   -0.032990
    41  C   -0.106803
    42  C   -0.099949
    43  C    0.084251
    44  C   -0.320391
    45  H    0.099047
    46  H    0.114375
    47  H    0.085915
    48  H    0.101554
    49  H    0.083460
    50  H    0.090081
    51  H    0.111218
    52  H    0.130920
    53  H    0.104005
    54  H    0.104308
    55  H    0.080139
    56  H    0.101768
    57  H    0.127712
    58  H    0.105374
    59  H    0.096789
    60  H    0.304366
    61  H    0.049368
    62  H    0.125623
    63  H    0.139467
    64  H    0.105594
    65  H    0.090084
    66  H    0.083313
    67  H    0.066017
    68  H    0.095400
    69  H    0.096503
    70  H    0.123224
    71  H    0.121169
    72  H    0.096415
    73  H    0.118645
    74  H    0.097438
    75  H    0.123742
    76  H    0.086711
    77  H    0.088017
    78  H    0.101165
    79  H    0.076893
    80  H    0.124292
    81  H    0.073051
    82  H    0.296315
    83  H    0.312324
    84  H    0.102637
    85  H    0.103501
    86  H    0.113781
    87  H    0.104370
    88  H    0.084036
    89  H    0.080184
    90  H    0.131361
    91  H    0.109282
    92  H    0.064280
    93  H    0.094183
    94  H    0.027446
    95  H    0.048516
    96  H    0.033725
    97  H    0.087855
    98  H    0.049249
    99  H    0.109968
   100  H    0.118807
 Sum of Mulliken charges =  -0.00000

 Dipole moment (field-independent basis, Debye):
    X=              2.6606    Y=             -0.4068    Z=              0.8791  Tot=              2.8314
 Quadrupole moment (field-independent basis, Debye-Ang):
   XX=           -289.0692   YY=           -265.7568   ZZ=           -274.1823
   XY=             -3.7708   XZ=             37.3277   YZ=             -1.6234

 Normal termination of Gaussian 16 at Wed Jul 31 20:16:22 2019.
