 Gaussian 16, Revision A.03,
 Gaussian 16:  ES64L-G16RevA.03 25-Dec-2016

 -------------------------------------
 # td=(NStates=1) CAM-B3LYP/6-31G(d,p)
 -------------------------------------

 --
 TD
 --
 Symbolic Z-matrix:
 Charge =  0 Multiplicity = 1

                         Standard orientation:
 ---------------------------------------------------------------------
 Center     Atomic      Atomic             Coordinates (Angstroms)
 Number     Number       Type             X           Y           Z
 ---------------------------------------------------------------------
      1          8           0      -11.747726    0.400945   -1.385024
      2          8           0      -12.825776   -2.559661    1.274764
      3          8           0       10.801003   -1.033550   -2.245378
      4          8           0       14.460363   -0.908627    0.043686
      5          6           0      -11.058075   -0.160337   -0.198185
      6          6           0      -11.741428   -1.002434   -1.293483
      7          6           0      -11.752181    0.194973    1.180833
      8          6           0      -13.066833   -1.569702   -0.978382
      9          6           0      -13.186728   -0.180745    1.155562
     10          6           0      -13.431311   -1.614693    0.491354
     11          6           0      -10.955854   -1.769713   -2.365918
     12          6           0       -9.596900    0.011429   -0.322901
     13          6           0      -10.973860   -0.319250    2.346091
     14          6           0      -11.719969    1.807516    1.219240
     15          6           0       -8.591766   -0.810577    0.034996
     16          6           0       -7.095195   -0.661840   -0.018818
     17          6           0       -6.174886   -1.838916    0.048115
     18          6           0       -6.558277    0.684215   -0.142920
     19          6           0       -5.211010    0.995197   -0.396789
     20          6           0       11.850536   -0.054346    1.456059
     21          6           0       11.733553   -0.618842   -1.209796
     22          6           0       12.523321   -1.302271    1.507523
     23          6           0       13.365351   -1.720249    0.324802
     24          6           0       12.497844   -1.854060   -0.940799
     25          6           0       11.107487   -0.073181    0.043579
     26          6           0       11.001396    0.146616    2.698887
     27          6           0       12.702033    1.202760    1.474411
     28          6           0       12.495415    0.559496   -1.964589
     29          6           0       -4.717153    2.310596   -0.432205
     30          6           0        9.887863    0.420240   -0.103496
     31          6           0       -3.373771    2.654170   -0.388138
     32          6           0        8.634765    0.839653   -0.150302
     33          6           0       -3.028637    4.155210   -0.529751
     34          6           0       -2.385271    1.697970   -0.325290
     35          6           0        7.453483    0.110463   -0.138921
     36          6           0        7.486936   -1.336408    0.176501
     37          6           0        6.219251    0.698226   -0.155966
     38          6           0       -0.983869    1.845894   -0.340100
     39          6           0        4.937349    0.181355   -0.062941
     40          6           0        0.013033    0.859032   -0.227603
     41          6           0        3.806333    0.879429   -0.095993
     42          6           0        1.303618    1.179012   -0.164302
     43          6           0        2.446697    0.363043   -0.077114
     44          6           0        2.212809   -1.091787    0.168540
     45          1           0      -13.257703   -2.500887   -1.324578
     46          1           0      -13.799241   -1.022122   -1.782413
     47          1           0      -13.546040   -0.332116    2.207940
     48          1           0      -14.128416    0.479820    0.748511
     49          1           0      -14.415996   -1.995154    0.794905
     50          1           0      -10.569873   -2.767913   -2.126505
     51          1           0      -11.487582   -1.753556   -3.069050
     52          1           0      -10.141637   -1.040753   -2.563894
     53          1           0       -9.281590    1.061916   -0.860647
     54          1           0       -9.922487    0.137273    2.699874
     55          1           0      -11.534780   -0.305608    3.427995
     56          1           0      -10.903000   -1.345072    2.354194
     57          1           0      -12.195270    2.300659    0.312410
     58          1           0      -12.300791    2.016641    2.176844
     59          1           0      -10.689992    2.208444    1.415541
     60          1           0      -11.834588   -2.588407    1.189722
     61          1           0       -8.816812   -1.759510    0.373408
     62          1           0       -5.728683   -2.050709   -0.839153
     63          1           0       -5.299011   -1.847757    0.754452
     64          1           0       -6.752340   -2.723389    0.044363
     65          1           0       -7.375941    1.620750   -0.284272
     66          1           0       -4.515975    0.186943   -0.167104
     67          1           0       13.362013   -1.422017    2.440013
     68          1           0       11.754651   -2.057999    1.645385
     69          1           0       13.626913   -2.682424    0.414796
     70          1           0       13.009330   -2.413653   -1.830447
     71          1           0       11.713564   -2.551096   -0.843096
     72          1           0       11.683737    0.042604    3.530880
     73          1           0       10.368502    1.217849    2.618521
     74          1           0       10.321070   -0.627696    2.800483
     75          1           0       13.477216    0.879139    0.884127
     76          1           0       12.202347    2.188524    1.120691
     77          1           0       13.068856    1.359623    2.473921
     78          1           0       13.008252    0.026173   -2.793716
     79          1           0       12.120296    1.496316   -2.027381
     80          1           0       13.424118    0.700078   -1.243504
     81          1           0       -5.483942    3.037813   -0.290518
     82          1           0       10.313933   -0.137222   -2.764453
     83          1           0       15.076782   -0.984204    0.848457
     84          1           0        8.311070    1.887933   -0.584757
     85          1           0       -2.377331    4.717150    0.146362
     86          1           0       -2.360880    4.211815   -1.432007
     87          1           0       -4.055241    4.771017   -0.743024
     88          1           0       -2.713039    0.619411   -0.114846
     89          1           0        6.567604   -2.130655   -0.318666
     90          1           0        8.634249   -1.686952   -0.212722
     91          1           0        7.287183   -1.486452    1.395631
     92          1           0        6.205721    1.718793   -0.130245
     93          1           0       -0.629671    2.873265   -0.370288
     94          1           0        4.872297   -0.964865    0.247056
     95          1           0       -0.568039   -0.201508    0.034819
     96          1           0        3.855968    2.011984   -0.170112
     97          1           0        1.687094    2.247679   -0.289367
     98          1           0        1.182559   -1.523983    0.331548
     99          1           0        2.801047   -1.844007   -0.545779
    100          1           0        2.790031   -1.367663    0.974557
 ---------------------------------------------------------------------

 SCF Done:  E(RCAM-B3LYP) =  -1857.20663518     A.U. after   15 cycles

 Excitation energies and oscillator strengths:

 Excited State   1:      Singlet-A      1.9589 eV  632.93 nm  f=2.9428  <S**2>=0.000
     163 ->166        -0.13116
     164 ->165         0.69860
     164 <-165        -0.10779
 This state for optimization and/or second-order correction.
 Total Energy, E(TD-HF/TD-DFT) =  -1857.13464688
 Copying the excited state density for this state as the 1-particle RhoCI density.

 The electronic state is 1-A.
 Alpha  occ. eigenvalues --  -19.23608 -19.22388 -19.21614 -19.21341 -10.32271
 Alpha  occ. eigenvalues --  -10.32121 -10.31983 -10.30466 -10.30411 -10.28883
 Alpha  occ. eigenvalues --  -10.28800 -10.28725 -10.27920 -10.27897 -10.27770
 Alpha  occ. eigenvalues --  -10.27755 -10.27753 -10.27707 -10.27494 -10.27381
 Alpha  occ. eigenvalues --  -10.27253 -10.27217 -10.27130 -10.26817 -10.26805
 Alpha  occ. eigenvalues --  -10.26689 -10.26561 -10.26506 -10.26490 -10.26452
 Alpha  occ. eigenvalues --  -10.26416 -10.26412 -10.26304 -10.25645 -10.25442
 Alpha  occ. eigenvalues --  -10.25433 -10.25427 -10.25363 -10.25292 -10.25247
 Alpha  occ. eigenvalues --  -10.24444 -10.23998 -10.23527 -10.23397  -1.14570
 Alpha  occ. eigenvalues --   -1.11737  -1.11006  -1.06250  -0.94591  -0.92572
 Alpha  occ. eigenvalues --   -0.92014  -0.91011  -0.90654  -0.89512  -0.87804
 Alpha  occ. eigenvalues --   -0.87025  -0.86872  -0.85725  -0.84732  -0.83492
 Alpha  occ. eigenvalues --   -0.82323  -0.81415  -0.80189  -0.78512  -0.77129
 Alpha  occ. eigenvalues --   -0.76581  -0.76373  -0.76268  -0.76164  -0.75257
 Alpha  occ. eigenvalues --   -0.74827  -0.74392  -0.72750  -0.71247  -0.70759
 Alpha  occ. eigenvalues --   -0.68936  -0.67331  -0.65133  -0.64584  -0.64557
 Alpha  occ. eigenvalues --   -0.64082  -0.62460  -0.60530  -0.60146  -0.59612
 Alpha  occ. eigenvalues --   -0.58885  -0.58517  -0.57471  -0.57201  -0.56976
 Alpha  occ. eigenvalues --   -0.55468  -0.55145  -0.55049  -0.54706  -0.53864
 Alpha  occ. eigenvalues --   -0.53718  -0.53604  -0.52489  -0.52262  -0.51843
 Alpha  occ. eigenvalues --   -0.51748  -0.51000  -0.50746  -0.50402  -0.50019
 Alpha  occ. eigenvalues --   -0.49634  -0.49289  -0.48909  -0.48615  -0.47981
 Alpha  occ. eigenvalues --   -0.47667  -0.47399  -0.46962  -0.46834  -0.46695
 Alpha  occ. eigenvalues --   -0.46558  -0.46119  -0.45785  -0.45590  -0.44958
 Alpha  occ. eigenvalues --   -0.44703  -0.44511  -0.44286  -0.43945  -0.43679
 Alpha  occ. eigenvalues --   -0.43302  -0.43048  -0.42548  -0.42320  -0.42274
 Alpha  occ. eigenvalues --   -0.42148  -0.42070  -0.41841  -0.41302  -0.41012
 Alpha  occ. eigenvalues --   -0.40950  -0.40586  -0.40116  -0.40108  -0.39774
 Alpha  occ. eigenvalues --   -0.39481  -0.39079  -0.38943  -0.38484  -0.38418
 Alpha  occ. eigenvalues --   -0.38028  -0.37964  -0.37434  -0.37103  -0.36691
 Alpha  occ. eigenvalues --   -0.36563  -0.36285  -0.35035  -0.34283  -0.33402
 Alpha  occ. eigenvalues --   -0.33311  -0.32740  -0.31772  -0.31440  -0.29859
 Alpha  occ. eigenvalues --   -0.29395  -0.27487  -0.24081  -0.19113
 Alpha virt. eigenvalues --   -0.06732  -0.01226   0.02979   0.05250   0.06987
 Alpha virt. eigenvalues --    0.09021   0.09845   0.10117   0.10168   0.10729
 Alpha virt. eigenvalues --    0.11125   0.11707   0.12288   0.13275   0.13521

 Mulliken charges:
               1
     1  O   -0.502803
     2  O   -0.540434
     3  O   -0.586687
     4  O   -0.528709
     5  C    0.167153
     6  C    0.215812
     7  C    0.042958
     8  C   -0.182206
     9  C   -0.190364
    10  C    0.143309
    11  C   -0.296401
    12  C   -0.101552
    13  C   -0.311576
    14  C   -0.304510
    15  C   -0.064542
    16  C    0.057237
    17  C   -0.386826
    18  C   -0.116711
    19  C   -0.056630
    20  C    0.034002
    21  C    0.280450
    22  C   -0.186412
    23  C    0.159766
    24  C   -0.218602
    25  C   -0.107491
    26  C   -0.285262
    27  C   -0.293959
    28  C   -0.329500
    29  C   -0.131654
    30  C    0.188668
    31  C    0.123946
    32  C   -0.306955
    33  C   -0.380708
    34  C   -0.118383
    35  C    0.167721
    36  C   -0.354081
    37  C   -0.107925
    38  C   -0.082318
    39  C   -0.064316
    40  C   -0.071184
    41  C   -0.124501
    42  C   -0.131652
    43  C    0.129054
    44  C   -0.388291
    45  H    0.109137
    46  H    0.098279
    47  H    0.099645
    48  H    0.087418
    49  H    0.098230
    50  H    0.108175
    51  H    0.116692
    52  H    0.117577
    53  H    0.094560
    54  H    0.112610
    55  H    0.087319
    56  H    0.095855
    57  H    0.125778
    58  H    0.094165
    59  H    0.096179
    60  H    0.297387
    61  H    0.062328
    62  H    0.144188
    63  H    0.126057
    64  H    0.108862
    65  H    0.068011
    66  H    0.082037
    67  H    0.040735
    68  H    0.115363
    69  H    0.092414
    70  H    0.105750
    71  H    0.129865
    72  H    0.105279
    73  H    0.089298
    74  H    0.101763
    75  H    0.120061
    76  H    0.099651
    77  H    0.090996
    78  H    0.116782
    79  H    0.111993
    80  H    0.110129
    81  H    0.090267
    82  H    0.306291
    83  H    0.313415
    84  H    0.092876
    85  H    0.128658
    86  H    0.124465
    87  H    0.095209
    88  H    0.065970
    89  H    0.081322
    90  H    0.100123
    91  H    0.099853
    92  H    0.062526
    93  H    0.073534
    94  H    0.070496
    95  H    0.080054
    96  H    0.079610
    97  H    0.078838
    98  H    0.111703
    99  H    0.094712
   100  H    0.132576
 Sum of Mulliken charges =  -0.00000

 Dipole moment (field-independent basis, Debye):
    X=              3.7700    Y=             -1.3016    Z=              2.0949  Tot=              4.5051
 Quadrupole moment (field-independent basis, Debye-Ang):
   XX=           -254.1553   YY=           -258.8289   ZZ=           -275.8767
   XY=              2.6688   XZ=             28.6524   YZ=             -2.2925

 Normal termination of Gaussian 16 at Fri Aug  2 12:48:30 2019.
