 Gaussian 16, Revision A.03,
 Gaussian 16:  ES64L-G16RevA.03 25-Dec-2016

 -------------------------------------
 # td=(NStates=1) CAM-B3LYP/6-31G(d,p)
 -------------------------------------

 --
 TD
 --
 Symbolic Z-matrix:
 Charge =  0 Multiplicity = 1

                         Standard orientation:
 ---------------------------------------------------------------------
 Center     Atomic      Atomic             Coordinates (Angstroms)
 Number     Number       Type             X           Y           Z
 ---------------------------------------------------------------------
      1          8           0      -11.686223    0.387007   -1.509854
      2          8           0      -13.007895   -2.728701    1.051378
      3          8           0       10.746987   -0.933238   -2.229679
      4          8           0       14.588989   -1.025390   -0.017732
      5          6           0      -11.052020   -0.076906   -0.236881
      6          6           0      -11.540666   -1.014806   -1.275861
      7          6           0      -11.832645    0.190632    1.030679
      8          6           0      -12.861747   -1.703861   -1.161215
      9          6           0      -13.293992   -0.325453    0.910720
     10          6           0      -13.488256   -1.692786    0.176455
     11          6           0      -10.606869   -1.633406   -2.386119
     12          6           0       -9.529699    0.200215   -0.226632
     13          6           0      -11.128430   -0.580894    2.309614
     14          6           0      -11.779885    1.744888    1.283796
     15          6           0       -8.636323   -0.751649    0.171621
     16          6           0       -7.264016   -0.588889    0.146978
     17          6           0       -6.421252   -1.889488    0.192702
     18          6           0       -6.713154    0.644104   -0.000205
     19          6           0       -5.337936    0.888213    0.007157
     20          6           0       11.972991   -0.170334    1.360348
     21          6           0       11.776906   -0.635979   -1.361435
     22          6           0       12.633781   -1.500157    1.426138
     23          6           0       13.403676   -1.881409    0.196206
     24          6           0       12.519120   -1.893238   -1.084831
     25          6           0       11.093517   -0.061637   -0.021060
     26          6           0       11.019812   -0.072598    2.507519
     27          6           0       12.874604    1.067396    1.466572
     28          6           0       12.671384    0.452623   -1.948919
     29          6           0       -4.771226    2.167008   -0.325106
     30          6           0        9.846769    0.300099   -0.160955
     31          6           0       -3.410182    2.686983   -0.309584
     32          6           0        8.689047    0.942585   -0.179773
     33          6           0       -3.039783    4.105347   -0.572490
     34          6           0       -2.401505    1.777983   -0.150761
     35          6           0        7.450295    0.168943    0.012731
     36          6           0        7.539965   -1.223398    0.363525
     37          6           0        6.264766    0.844069   -0.097886
     38          6           0       -1.115727    2.072060   -0.264711
     39          6           0        4.882218    0.332933   -0.141696
     40          6           0        0.004135    1.189627    0.060889
     41          6           0        3.659521    1.088655   -0.131036
     42          6           0        1.369418    1.447180   -0.062827
     43          6           0        2.455175    0.505690    0.060272
     44          6           0        2.229730   -0.965339    0.288218
     45          1           0      -12.797135   -2.841421   -1.375258
     46          1           0      -13.546714   -1.269156   -1.947610
     47          1           0      -13.633858   -0.684919    1.976763
     48          1           0      -13.976294    0.340293    0.373111
     49          1           0      -14.533680   -1.701451    0.271138
     50          1           0      -10.107809   -2.542589   -2.090716
     51          1           0      -11.139972   -1.814605   -3.389213
     52          1           0       -9.713414   -1.035318   -2.668479
     53          1           0       -9.439439    1.198462   -0.477671
     54          1           0      -10.096478    0.035398    2.289637
     55          1           0      -11.510473   -0.261998    3.251943
     56          1           0      -10.821646   -1.604423    2.208050
     57          1           0      -12.195289    2.421684    0.383140
     58          1           0      -12.545550    1.917282    2.238335
     59          1           0      -10.751361    1.785299    1.480760
     60          1           0      -12.119079   -2.997906    0.892862
     61          1           0       -9.022476   -1.714342    0.566618
     62          1           0       -5.977482   -1.920034   -0.726834
     63          1           0       -5.720466   -1.787990    0.953923
     64          1           0       -7.392626   -2.622487    0.509055
     65          1           0       -7.232327    1.403790   -0.065926
     66          1           0       -4.815800    0.170917    0.208284
     67          1           0       13.327063   -1.669929    2.402578
     68          1           0       12.041012   -2.336830    1.709172
     69          1           0       13.784252   -2.964964    0.342205
     70          1           0       13.234740   -2.140732   -1.962282
     71          1           0       11.673628   -2.750327   -0.862552
     72          1           0       11.737911   -0.024418    3.244922
     73          1           0       10.423985    0.904629    2.499964
     74          1           0       10.210049   -0.774192    2.743910
     75          1           0       13.598417    1.055062    0.566296
     76          1           0       12.181512    1.942385    1.239802
     77          1           0       13.420895    1.176790    2.472439
     78          1           0       13.138546    0.077230   -2.977884
     79          1           0       12.092581    1.444686   -1.924775
     80          1           0       13.517288    0.499604   -1.238260
     81          1           0       -5.682454    2.831760   -0.426645
     82          1           0       10.255671   -0.193069   -2.322222
     83          1           0       15.109511   -1.016120    0.770659
     84          1           0        8.546701    2.028409   -0.116857
     85          1           0       -2.876894    4.378332    0.494372
     86          1           0       -2.210029    4.190562   -1.284441
     87          1           0       -3.777623    4.728836   -1.131850
     88          1           0       -2.627436    0.641423   -0.029793
     89          1           0        6.592262   -1.690716   -0.134979
     90          1           0        8.348395   -1.502949   -0.176252
     91          1           0        7.646233   -1.473263    1.514758
     92          1           0        6.214887    1.943507   -0.362705
     93          1           0       -1.028632    3.183344   -0.509938
     94          1           0        4.728163   -0.789944    0.061822
     95          1           0       -0.309739    0.073395    0.456805
     96          1           0        3.677160    2.290038   -0.291504
     97          1           0        1.516094    2.626040   -0.208703
     98          1           0        1.228264   -1.086600    0.105985
     99          1           0        2.956584   -1.431604   -0.446547
    100          1           0        2.476418   -1.172316    1.334754
 ---------------------------------------------------------------------

 SCF Done:  E(RCAM-B3LYP) =  -1857.28014897     A.U. after   17 cycles

 Excitation energies and oscillator strengths:

 Excited State   1:      Singlet-A      1.8497 eV  670.29 nm  f=3.2158  <S**2>=0.000
     163 ->166         0.12151
     164 ->165         0.70530
     164 <-165        -0.13255
 This state for optimization and/or second-order correction.
 Total Energy, E(TD-HF/TD-DFT) =  -1857.21217368
 Copying the excited state density for this state as the 1-particle RhoCI density.

 The electronic state is 1-A.
 Alpha  occ. eigenvalues --  -19.21844 -19.21644 -19.20535 -19.19778 -10.32289
 Alpha  occ. eigenvalues --  -10.32030 -10.31946 -10.31321 -10.29708 -10.28958
 Alpha  occ. eigenvalues --  -10.28438 -10.28310 -10.27958 -10.27745 -10.27671
 Alpha  occ. eigenvalues --  -10.27639 -10.27616 -10.27541 -10.27485 -10.27470
 Alpha  occ. eigenvalues --  -10.27144 -10.27111 -10.27039 -10.26875 -10.26804
 Alpha  occ. eigenvalues --  -10.26723 -10.26684 -10.26639 -10.26544 -10.26541
 Alpha  occ. eigenvalues --  -10.26487 -10.26460 -10.26382 -10.26311 -10.25976
 Alpha  occ. eigenvalues --  -10.25911 -10.25639 -10.25614 -10.25301 -10.24993
 Alpha  occ. eigenvalues --  -10.24839 -10.24799 -10.24095 -10.23830  -1.13439
 Alpha  occ. eigenvalues --   -1.12326  -1.09223  -1.09039  -0.93297  -0.93280
 Alpha  occ. eigenvalues --   -0.92439  -0.91919  -0.91157  -0.89652  -0.87142
 Alpha  occ. eigenvalues --   -0.86811  -0.86199  -0.85514  -0.84598  -0.82573
 Alpha  occ. eigenvalues --   -0.82137  -0.80921  -0.80068  -0.79263  -0.77401
 Alpha  occ. eigenvalues --   -0.77172  -0.76707  -0.75864  -0.75855  -0.75439
 Alpha  occ. eigenvalues --   -0.75275  -0.74734  -0.72338  -0.71247  -0.70062
 Alpha  occ. eigenvalues --   -0.69290  -0.66776  -0.66067  -0.64788  -0.64337
 Alpha  occ. eigenvalues --   -0.63343  -0.61666  -0.60631  -0.59649  -0.58912
 Alpha  occ. eigenvalues --   -0.58609  -0.58551  -0.57647  -0.57220  -0.56094
 Alpha  occ. eigenvalues --   -0.55617  -0.55329  -0.55095  -0.54999  -0.54787
 Alpha  occ. eigenvalues --   -0.53657  -0.53321  -0.52857  -0.52734  -0.52186
 Alpha  occ. eigenvalues --   -0.52001  -0.51533  -0.50938  -0.50773  -0.50024
 Alpha  occ. eigenvalues --   -0.49840  -0.49667  -0.49495  -0.49099  -0.48712
 Alpha  occ. eigenvalues --   -0.48408  -0.48263  -0.47712  -0.47205  -0.46798
 Alpha  occ. eigenvalues --   -0.46293  -0.46177  -0.46101  -0.45447  -0.44872
 Alpha  occ. eigenvalues --   -0.44601  -0.44272  -0.44087  -0.43807  -0.43656
 Alpha  occ. eigenvalues --   -0.43075  -0.42753  -0.42476  -0.42393  -0.42158
 Alpha  occ. eigenvalues --   -0.41897  -0.41836  -0.41546  -0.41358  -0.41025
 Alpha  occ. eigenvalues --   -0.40873  -0.40692  -0.40247  -0.39845  -0.39756
 Alpha  occ. eigenvalues --   -0.39648  -0.39524  -0.39258  -0.38928  -0.38611
 Alpha  occ. eigenvalues --   -0.38327  -0.38234  -0.37893  -0.37784  -0.37289
 Alpha  occ. eigenvalues --   -0.37040  -0.35717  -0.35549  -0.34547  -0.34194
 Alpha  occ. eigenvalues --   -0.32923  -0.32222  -0.31985  -0.30962  -0.30556
 Alpha  occ. eigenvalues --   -0.30327  -0.27795  -0.24211  -0.18404
 Alpha virt. eigenvalues --   -0.07166  -0.01012   0.02831   0.05715   0.06886
 Alpha virt. eigenvalues --    0.09510   0.09637   0.10303   0.11430   0.11963
 Alpha virt. eigenvalues --    0.12314   0.12934   0.13468   0.13841   0.14040

 Mulliken charges:
               1
     1  O   -0.514420
     2  O   -0.558795
     3  O   -0.534340
     4  O   -0.554545
     5  C    0.185560
     6  C    0.244235
     7  C    0.011894
     8  C   -0.218241
     9  C   -0.195615
    10  C    0.163740
    11  C   -0.334430
    12  C   -0.104210
    13  C   -0.309898
    14  C   -0.292307
    15  C   -0.083109
    16  C    0.045739
    17  C   -0.343794
    18  C   -0.034526
    19  C   -0.015082
    20  C    0.037650
    21  C    0.269840
    22  C   -0.188069
    23  C    0.143747
    24  C   -0.180354
    25  C   -0.118317
    26  C   -0.289933
    27  C   -0.305232
    28  C   -0.309701
    29  C   -0.146974
    30  C    0.098782
    31  C    0.061530
    32  C   -0.211486
    33  C   -0.379739
    34  C   -0.057493
    35  C    0.089361
    36  C   -0.352379
    37  C   -0.108531
    38  C   -0.101988
    39  C   -0.144255
    40  C   -0.119485
    41  C   -0.088481
    42  C   -0.116245
    43  C    0.098169
    44  C   -0.347629
    45  H    0.096133
    46  H    0.122549
    47  H    0.099601
    48  H    0.095322
    49  H    0.107430
    50  H    0.099026
    51  H    0.105013
    52  H    0.120268
    53  H    0.115514
    54  H    0.078920
    55  H    0.121092
    56  H    0.101264
    57  H    0.115598
    58  H    0.084679
    59  H    0.109332
    60  H    0.297194
    61  H    0.076379
    62  H    0.147495
    63  H    0.135028
    64  H    0.077114
    65  H    0.041144
    66  H    0.022845
    67  H    0.064388
    68  H    0.118670
    69  H    0.077213
    70  H    0.111211
    71  H    0.098924
    72  H    0.097511
    73  H    0.094326
    74  H    0.103055
    75  H    0.118375
    76  H    0.105757
    77  H    0.095489
    78  H    0.097559
    79  H    0.086037
    80  H    0.139945
    81  H    0.067984
    82  H    0.287078
    83  H    0.306026
    84  H    0.116972
    85  H    0.145047
    86  H    0.134420
    87  H    0.116039
    88  H    0.077787
    89  H    0.099330
    90  H    0.138343
    91  H    0.114667
    92  H    0.070696
    93  H    0.076421
    94  H    0.073364
    95  H    0.066954
    96  H    0.081696
    97  H    0.081604
    98  H    0.118714
    99  H    0.123573
   100  H    0.135239
 Sum of Mulliken charges =  -0.00000

 Dipole moment (field-independent basis, Debye):
    X=              2.9841    Y=             -0.2222    Z=              2.6075  Tot=              3.9690
 Quadrupole moment (field-independent basis, Debye-Ang):
   XX=           -286.3019   YY=           -260.0433   ZZ=           -277.3880
   XY=             -3.3144   XZ=             35.1793   YZ=             -4.3177

 Normal termination of Gaussian 16 at Mon Jul 29 23:22:24 2019.
