 Gaussian 16, Revision A.03,
 Gaussian 16:  ES64L-G16RevA.03 25-Dec-2016

 -------------------------------------
 # td=(NStates=1) CAM-B3LYP/6-31G(d,p)
 -------------------------------------

 --
 TD
 --
 Symbolic Z-matrix:
 Charge =  0 Multiplicity = 1

                         Standard orientation:
 ---------------------------------------------------------------------
 Center     Atomic      Atomic             Coordinates (Angstroms)
 Number     Number       Type             X           Y           Z
 ---------------------------------------------------------------------
      1          8           0      -11.789602    0.154995   -1.545136
      2          8           0      -13.047109   -2.334656    1.518155
      3          8           0       10.686708   -1.129749   -2.155873
      4          8           0       14.480360   -1.161335    0.131864
      5          6           0      -11.069004   -0.091712   -0.354864
      6          6           0      -11.645232   -1.211317   -1.221413
      7          6           0      -11.704307    0.448386    0.931444
      8          6           0      -13.065500   -1.662052   -0.832952
      9          6           0      -13.174196    0.023845    0.939020
     10          6           0      -13.566084   -1.440844    0.554226
     11          6           0      -10.848347   -2.028129   -2.106813
     12          6           0       -9.678472    0.178300   -0.345739
     13          6           0      -11.024379   -0.027752    2.196479
     14          6           0      -11.664669    2.038574    0.896115
     15          6           0       -8.778101   -0.800129    0.042319
     16          6           0       -7.189000   -0.627449    0.153240
     17          6           0       -6.364241   -1.858965    0.487559
     18          6           0       -6.616494    0.567956   -0.023342
     19          6           0       -5.229739    0.762173   -0.000431
     20          6           0       11.969796    0.142437    1.346815
     21          6           0       11.748581   -0.705483   -1.198612
     22          6           0       12.608236   -1.219361    1.652743
     23          6           0       13.279998   -1.858259    0.518096
     24          6           0       12.468863   -2.008622   -0.738501
     25          6           0       11.132471    0.030582   -0.041578
     26          6           0       11.008270    0.468244    2.485700
     27          6           0       12.873084    1.289225    1.289026
     28          6           0       12.628555    0.315103   -1.976916
     29          6           0       -4.686880    2.040864   -0.373932
     30          6           0        9.860092    0.551638   -0.070641
     31          6           0       -3.322390    2.407652   -0.430777
     32          6           0        8.610319    0.966828   -0.312991
     33          6           0       -2.962839    3.881414   -0.852698
     34          6           0       -2.276193    1.518034   -0.294597
     35          6           0        7.454571    0.164909   -0.087686
     36          6           0        7.640159   -1.254718    0.163712
     37          6           0        6.218517    0.791600   -0.160942
     38          6           0       -0.959191    1.848987   -0.321475
     39          6           0        4.989331    0.269899   -0.094406
     40          6           0        0.075506    0.871857   -0.097258
     41          6           0        3.723465    0.877146   -0.249127
     42          6           0        1.369684    1.145582   -0.253523
     43          6           0        2.483893    0.267765   -0.172612
     44          6           0        2.186567   -1.128623    0.110111
     45          1           0      -12.957724   -2.759816   -0.804844
     46          1           0      -13.844537   -1.445114   -1.549102
     47          1           0      -13.689112    0.169575    1.918622
     48          1           0      -13.822108    0.577044    0.280411
     49          1           0      -14.639856   -1.629183    0.635847
     50          1           0      -10.217442   -2.953704   -1.601673
     51          1           0      -11.548889   -2.448862   -2.834928
     52          1           0       -9.917207   -1.562503   -2.670212
     53          1           0       -9.306945    1.225183   -0.513746
     54          1           0      -10.040559    0.606493    2.239228
     55          1           0      -11.608314   -0.035462    3.094516
     56          1           0      -10.724324   -1.018350    2.282930
     57          1           0      -12.171914    2.295811    0.109195
     58          1           0      -12.441809    2.436226    1.790435
     59          1           0      -10.719293    2.497112    0.970066
     60          1           0      -12.067220   -2.302495    1.482129
     61          1           0       -9.133392   -1.829210    0.088995
     62          1           0       -5.461836   -1.907179   -0.244574
     63          1           0       -5.782387   -1.698412    1.397512
     64          1           0       -6.977600   -2.736242    0.454635
     65          1           0       -7.233122    1.479714   -0.306119
     66          1           0       -4.522003   -0.106125    0.326964
     67          1           0       13.383912   -1.003119    2.359319
     68          1           0       11.710352   -1.765637    2.163802
     69          1           0       13.672209   -2.838256    0.933281
     70          1           0       12.900985   -2.433076   -1.682407
     71          1           0       11.598942   -2.697657   -0.422749
     72          1           0       11.753476    0.533424    3.324263
     73          1           0       10.688368    1.590622    2.415140
     74          1           0       10.000485   -0.039604    2.719941
     75          1           0       13.607320    1.173239    0.404890
     76          1           0       12.370768    2.184562    0.882134
     77          1           0       13.052180    1.501560    2.403043
     78          1           0       12.917823   -0.094502   -3.015161
     79          1           0       11.778299    1.261376   -2.078025
     80          1           0       13.427673    0.959599   -1.500621
     81          1           0       -5.402541    2.988728   -0.607105
     82          1           0        9.951402   -0.411395   -1.852911
     83          1           0       15.064225   -0.911244    0.952225
     84          1           0        8.450539    1.926291   -0.548143
     85          1           0       -2.414996    4.348689   -0.089535
     86          1           0       -2.372294    3.796079   -1.597333
     87          1           0       -3.942900    4.462225   -1.116822
     88          1           0       -2.587235    0.578437    0.070147
     89          1           0        6.648410   -1.970218   -0.028777
     90          1           0        8.362345   -1.543128   -0.793019
     91          1           0        7.995055   -1.663482    1.085317
     92          1           0        6.201880    1.756367   -0.293361
     93          1           0       -0.585183    2.799205   -0.604506
     94          1           0        4.990794   -0.795873    0.104005
     95          1           0       -0.182388   -0.190026   -0.070238
     96          1           0        3.841668    1.952577   -0.343610
     97          1           0        1.754465    2.331638   -0.542971
     98          1           0        1.114224   -1.413161    0.106653
     99          1           0        2.743780   -1.640618   -0.673809
    100          1           0        2.662494   -1.495684    0.881910
 ---------------------------------------------------------------------

 SCF Done:  E(RCAM-B3LYP) =  -1857.30775109     A.U. after   17 cycles

 Excitation energies and oscillator strengths:

 Excited State   1:      Singlet-A      1.8111 eV  684.58 nm  f=3.3022  <S**2>=0.000
     163 ->166        -0.11635
     164 ->165         0.70784
     164 <-165        -0.14180
 This state for optimization and/or second-order correction.
 Total Energy, E(TD-HF/TD-DFT) =  -1857.24119439
 Copying the excited state density for this state as the 1-particle RhoCI density.

 The electronic state is 1-A.
 Alpha  occ. eigenvalues --  -19.22103 -19.21673 -19.20800 -19.20532 -10.32491
 Alpha  occ. eigenvalues --  -10.32192 -10.31659 -10.31251 -10.30257 -10.28523
 Alpha  occ. eigenvalues --  -10.28466 -10.28455 -10.28387 -10.28351 -10.28115
 Alpha  occ. eigenvalues --  -10.28063 -10.28003 -10.27778 -10.27724 -10.27681
 Alpha  occ. eigenvalues --  -10.27630 -10.27481 -10.27310 -10.27286 -10.26969
 Alpha  occ. eigenvalues --  -10.26881 -10.26874 -10.26780 -10.26533 -10.26478
 Alpha  occ. eigenvalues --  -10.26371 -10.26285 -10.26241 -10.26101 -10.25566
 Alpha  occ. eigenvalues --  -10.25457 -10.25400 -10.25042 -10.24917 -10.24864
 Alpha  occ. eigenvalues --  -10.24839 -10.24740 -10.24563 -10.24169  -1.16587
 Alpha  occ. eigenvalues --   -1.09291  -1.08286  -1.05783  -0.93647  -0.93184
 Alpha  occ. eigenvalues --   -0.92521  -0.91924  -0.91431  -0.90333  -0.87725
 Alpha  occ. eigenvalues --   -0.87121  -0.86138  -0.86020  -0.85335  -0.83623
 Alpha  occ. eigenvalues --   -0.82439  -0.81500  -0.80714  -0.79805  -0.77990
 Alpha  occ. eigenvalues --   -0.77333  -0.77180  -0.77093  -0.75988  -0.75707
 Alpha  occ. eigenvalues --   -0.75002  -0.74646  -0.72910  -0.70816  -0.69762
 Alpha  occ. eigenvalues --   -0.68692  -0.67210  -0.65193  -0.64741  -0.64224
 Alpha  occ. eigenvalues --   -0.63314  -0.62097  -0.61616  -0.60969  -0.60314
 Alpha  occ. eigenvalues --   -0.59263  -0.58252  -0.57841  -0.57075  -0.56660
 Alpha  occ. eigenvalues --   -0.56270  -0.56059  -0.55438  -0.55252  -0.54783
 Alpha  occ. eigenvalues --   -0.54531  -0.54245  -0.53364  -0.52734  -0.51940
 Alpha  occ. eigenvalues --   -0.51574  -0.51179  -0.50868  -0.50575  -0.50420
 Alpha  occ. eigenvalues --   -0.50005  -0.49501  -0.49163  -0.48932  -0.48746
 Alpha  occ. eigenvalues --   -0.48084  -0.47963  -0.47703  -0.47572  -0.47354
 Alpha  occ. eigenvalues --   -0.46756  -0.46428  -0.46014  -0.45641  -0.45487
 Alpha  occ. eigenvalues --   -0.45418  -0.45181  -0.44953  -0.44805  -0.44064
 Alpha  occ. eigenvalues --   -0.43939  -0.43723  -0.43190  -0.43141  -0.43009
 Alpha  occ. eigenvalues --   -0.42448  -0.42278  -0.41411  -0.41366  -0.41082
 Alpha  occ. eigenvalues --   -0.40711  -0.40391  -0.40130  -0.39804  -0.39730
 Alpha  occ. eigenvalues --   -0.39434  -0.39208  -0.39104  -0.38901  -0.38805
 Alpha  occ. eigenvalues --   -0.38590  -0.38321  -0.38114  -0.37689  -0.37130
 Alpha  occ. eigenvalues --   -0.37004  -0.36299  -0.35686  -0.34318  -0.33778
 Alpha  occ. eigenvalues --   -0.32470  -0.32259  -0.32059  -0.31480  -0.30636
 Alpha  occ. eigenvalues --   -0.29410  -0.28584  -0.24879  -0.18535
 Alpha virt. eigenvalues --   -0.07707  -0.01209   0.02910   0.05732   0.06451
 Alpha virt. eigenvalues --    0.09546   0.09664   0.10300   0.10880   0.11531
 Alpha virt. eigenvalues --    0.11846   0.12186   0.12938   0.13408   0.13864

 Mulliken charges:
               1
     1  O   -0.499048
     2  O   -0.549838
     3  O   -0.583271
     4  O   -0.564556
     5  C    0.227424
     6  C    0.249254
     7  C    0.013092
     8  C   -0.209588
     9  C   -0.200759
    10  C    0.145479
    11  C   -0.350117
    12  C   -0.104833
    13  C   -0.299348
    14  C   -0.298042
    15  C   -0.097186
    16  C    0.063984
    17  C   -0.378837
    18  C   -0.083233
    19  C   -0.089930
    20  C    0.035360
    21  C    0.243984
    22  C   -0.175906
    23  C    0.169931
    24  C   -0.173936
    25  C   -0.074765
    26  C   -0.320299
    27  C   -0.310537
    28  C   -0.259353
    29  C   -0.132955
    30  C    0.062582
    31  C    0.067866
    32  C   -0.243815
    33  C   -0.361399
    34  C   -0.088935
    35  C    0.142116
    36  C   -0.375539
    37  C   -0.067431
    38  C   -0.083646
    39  C   -0.097705
    40  C   -0.101871
    41  C   -0.119901
    42  C   -0.106108
    43  C    0.126155
    44  C   -0.372008
    45  H    0.096123
    46  H    0.119916
    47  H    0.090687
    48  H    0.099192
    49  H    0.102073
    50  H    0.088068
    51  H    0.121539
    52  H    0.131787
    53  H    0.101853
    54  H    0.095530
    55  H    0.118668
    56  H    0.087427
    57  H    0.134610
    58  H    0.075101
    59  H    0.107122
    60  H    0.301277
    61  H    0.075198
    62  H    0.114112
    63  H    0.135146
    64  H    0.113542
    65  H    0.083122
    66  H    0.091200
    67  H    0.084722
    68  H    0.106161
    69  H    0.078120
    70  H    0.122379
    71  H    0.104648
    72  H    0.090047
    73  H    0.096216
    74  H    0.110458
    75  H    0.119614
    76  H    0.110146
    77  H    0.089419
    78  H    0.114369
    79  H    0.050285
    80  H    0.112475
    81  H    0.077535
    82  H    0.307588
    83  H    0.303970
    84  H    0.108812
    85  H    0.129539
    86  H    0.141034
    87  H    0.093136
    88  H    0.072257
    89  H    0.086234
    90  H    0.108823
    91  H    0.134164
    92  H    0.053360
    93  H    0.088982
    94  H    0.054650
    95  H    0.083635
    96  H    0.081995
    97  H    0.054844
    98  H    0.112527
    99  H    0.123796
   100  H    0.138235
 Sum of Mulliken charges =  -0.00000

 Dipole moment (field-independent basis, Debye):
    X=              0.9054    Y=              0.3515    Z=              2.8728  Tot=              3.0326
 Quadrupole moment (field-independent basis, Debye-Ang):
   XX=           -301.2296   YY=           -261.4863   ZZ=           -281.7135
   XY=              6.8456   XZ=             45.3763   YZ=             -3.4728

 Normal termination of Gaussian 16 at Tue Jul 30 07:00:09 2019.
