 Gaussian 16, Revision A.03,
 Gaussian 16:  ES64L-G16RevA.03 25-Dec-2016

 -------------------------------------
 # td=(NStates=1) CAM-B3LYP/6-31G(d,p)
 -------------------------------------

 --
 TD
 --
 Symbolic Z-matrix:
 Charge =  0 Multiplicity = 1

                         Standard orientation:
 ---------------------------------------------------------------------
 Center     Atomic      Atomic             Coordinates (Angstroms)
 Number     Number       Type             X           Y           Z
 ---------------------------------------------------------------------
      1          8           0      -11.733920    0.528260   -1.450328
      2          8           0      -13.012456   -2.472487    1.145698
      3          8           0       10.545982   -1.138338   -2.098035
      4          8           0       14.444061   -1.167113   -0.013318
      5          6           0      -11.050810   -0.098508   -0.309482
      6          6           0      -11.634488   -1.012613   -1.325326
      7          6           0      -11.777004    0.214150    1.059169
      8          6           0      -12.950149   -1.581043   -1.208107
      9          6           0      -13.273425   -0.128908    0.906174
     10          6           0      -13.558564   -1.489908    0.284144
     11          6           0      -10.640976   -1.642624   -2.351790
     12          6           0       -9.581728    0.218948   -0.414422
     13          6           0      -10.943205   -0.407186    2.188197
     14          6           0      -11.767167    1.819563    1.291585
     15          6           0       -8.710059   -0.700792    0.183766
     16          6           0       -7.294809   -0.574445    0.222254
     17          6           0       -6.588715   -1.818363    0.834988
     18          6           0       -6.609875    0.536208   -0.217104
     19          6           0       -5.166443    0.815251   -0.108715
     20          6           0       11.973457    0.206523    1.220955
     21          6           0       11.608887   -0.697481   -1.371613
     22          6           0       12.522547   -1.082429    1.599637
     23          6           0       13.344816   -1.878503    0.355121
     24          6           0       12.368394   -2.081784   -0.827735
     25          6           0       11.138937    0.090977   -0.064817
     26          6           0       11.005988    0.594005    2.404475
     27          6           0       13.029911    1.314823    1.100034
     28          6           0       12.596854    0.145728   -2.137895
     29          6           0       -4.730365    2.037575   -0.533953
     30          6           0        9.963927    0.672821   -0.151256
     31          6           0       -3.374799    2.370399   -0.461393
     32          6           0        8.701364    1.016969   -0.377914
     33          6           0       -3.036115    3.865992   -0.708489
     34          6           0       -2.357442    1.483390   -0.190898
     35          6           0        7.445669    0.202810   -0.028764
     36          6           0        7.730278   -1.212394    0.426437
     37          6           0        6.252444    0.725268   -0.161601
     38          6           0       -1.066272    1.776893   -0.292988
     39          6           0        4.961816    0.143186    0.086975
     40          6           0       -0.055264    0.767791   -0.150622
     41          6           0        3.827771    0.860670    0.005037
     42          6           0        1.354549    1.197679   -0.046109
     43          6           0        2.528425    0.360972    0.102944
     44          6           0        2.345696   -1.207358    0.542136
     45          1           0      -13.026876   -2.692778   -1.566540
     46          1           0      -13.809329   -1.048228   -1.811180
     47          1           0      -13.682248    0.091275    1.887145
     48          1           0      -13.834000    0.705574    0.475418
     49          1           0      -14.640386   -1.726452    0.241411
     50          1           0      -10.300513   -2.593504   -1.913315
     51          1           0      -11.305361   -2.082047   -3.348681
     52          1           0       -9.957212   -0.718060   -2.588936
     53          1           0       -9.181550    1.114955   -0.838110
     54          1           0      -10.005841    0.180419    2.129758
     55          1           0      -11.515507   -0.089962    3.110387
     56          1           0      -10.831662   -1.642147    2.198895
     57          1           0      -11.957543    2.280326    0.365951
     58          1           0      -12.332747    2.082984    2.262911
     59          1           0      -10.722892    2.041883    1.474391
     60          1           0      -12.090606   -2.458854    1.100790
     61          1           0       -9.145869   -1.638528    0.605281
     62          1           0       -5.848683   -2.190566    0.075914
     63          1           0       -6.102094   -1.478229    1.789414
     64          1           0       -7.413699   -2.567839    1.051680
     65          1           0       -7.308408    1.260295   -0.855256
     66          1           0       -4.546594    0.002678    0.617504
     67          1           0       13.134790   -1.049975    2.553964
     68          1           0       11.746470   -1.645194    1.946036
     69          1           0       13.617898   -2.839147    0.711849
     70          1           0       13.051250   -2.410832   -1.701579
     71          1           0       11.716258   -2.915529   -0.591220
     72          1           0       11.766060    0.673573    3.328331
     73          1           0       10.674929    1.652716    2.260013
     74          1           0       10.148653   -0.124969    2.647837
     75          1           0       13.681733    0.993964    0.237234
     76          1           0       12.635844    2.390432    0.808068
     77          1           0       13.544176    1.392404    2.158732
     78          1           0       12.936249   -0.708911   -2.776557
     79          1           0       12.158222    1.041397   -2.394150
     80          1           0       13.532369    0.144977   -1.686963
     81          1           0       -5.473792    2.856459   -0.980044
     82          1           0        9.961423   -0.450782   -2.244817
     83          1           0       14.859812   -0.642271    0.863413
     84          1           0        8.382262    2.008217   -0.753013
     85          1           0       -2.641278    4.429577    0.166626
     86          1           0       -2.217926    4.085089   -1.358445
     87          1           0       -3.965043    4.394245   -1.059160
     88          1           0       -2.543325    0.477347    0.066503
     89          1           0        6.769936   -1.634286    0.762979
     90          1           0        7.996235   -1.636797   -0.394814
     91          1           0        8.496223   -1.198106    1.308040
     92          1           0        6.062545    1.807266   -0.573787
     93          1           0       -0.780548    2.729827   -0.478929
     94          1           0        4.924663   -0.678131    0.618717
     95          1           0       -0.260150   -0.225878   -0.241154
     96          1           0        3.901270    1.779453   -0.382433
     97          1           0        1.672569    2.141625   -0.329616
     98          1           0        1.263766   -1.409822    0.845166
     99          1           0        2.890478   -1.841079   -0.265413
    100          1           0        2.761934   -1.368135    1.553388
 ---------------------------------------------------------------------

 SCF Done:  E(RCAM-B3LYP) =  -1857.32532186     A.U. after   15 cycles

 Excitation energies and oscillator strengths:

 Excited State   1:      Singlet-A      2.1087 eV  587.97 nm  f=2.9032  <S**2>=0.000
     163 ->166        -0.12733
     164 ->165         0.69807
     164 <-165        -0.10205
 This state for optimization and/or second-order correction.
 Total Energy, E(TD-HF/TD-DFT) =  -1857.24782946
 Copying the excited state density for this state as the 1-particle RhoCI density.

 The electronic state is 1-A.
 Alpha  occ. eigenvalues --  -19.23406 -19.21101 -19.20981 -19.20307 -10.32810
 Alpha  occ. eigenvalues --  -10.32390 -10.31988 -10.31328 -10.31236 -10.28884
 Alpha  occ. eigenvalues --  -10.28293 -10.28203 -10.28069 -10.28052 -10.27775
 Alpha  occ. eigenvalues --  -10.27475 -10.27469 -10.27462 -10.27383 -10.27297
 Alpha  occ. eigenvalues --  -10.27205 -10.27167 -10.27142 -10.27101 -10.27059
 Alpha  occ. eigenvalues --  -10.27056 -10.26916 -10.26872 -10.26739 -10.26738
 Alpha  occ. eigenvalues --  -10.26656 -10.26512 -10.26213 -10.26032 -10.25916
 Alpha  occ. eigenvalues --  -10.25514 -10.25400 -10.25102 -10.24856 -10.24799
 Alpha  occ. eigenvalues --  -10.24714 -10.24583 -10.24552 -10.22956  -1.12776
 Alpha  occ. eigenvalues --   -1.11065  -1.10657  -1.10001  -0.93013  -0.92758
 Alpha  occ. eigenvalues --   -0.91801  -0.91091  -0.89649  -0.89339  -0.87519
 Alpha  occ. eigenvalues --   -0.86151  -0.85904  -0.84922  -0.83963  -0.82698
 Alpha  occ. eigenvalues --   -0.81373  -0.80620  -0.79943  -0.78044  -0.77007
 Alpha  occ. eigenvalues --   -0.76253  -0.76069  -0.75967  -0.75716  -0.75209
 Alpha  occ. eigenvalues --   -0.74633  -0.73813  -0.73101  -0.70814  -0.69828
 Alpha  occ. eigenvalues --   -0.69080  -0.67042  -0.66005  -0.64897  -0.64612
 Alpha  occ. eigenvalues --   -0.63635  -0.62937  -0.61930  -0.60583  -0.59282
 Alpha  occ. eigenvalues --   -0.58733  -0.58119  -0.57691  -0.57153  -0.56751
 Alpha  occ. eigenvalues --   -0.56084  -0.55105  -0.54819  -0.54119  -0.53879
 Alpha  occ. eigenvalues --   -0.53076  -0.52872  -0.52562  -0.52182  -0.51921
 Alpha  occ. eigenvalues --   -0.51782  -0.50805  -0.50296  -0.50091  -0.49864
 Alpha  occ. eigenvalues --   -0.49487  -0.49063  -0.48920  -0.48621  -0.48326
 Alpha  occ. eigenvalues --   -0.48283  -0.48107  -0.47815  -0.47262  -0.47057
 Alpha  occ. eigenvalues --   -0.46778  -0.46022  -0.45751  -0.45471  -0.45050
 Alpha  occ. eigenvalues --   -0.44841  -0.44526  -0.44451  -0.44153  -0.43796
 Alpha  occ. eigenvalues --   -0.43664  -0.43204  -0.43128  -0.43069  -0.43038
 Alpha  occ. eigenvalues --   -0.42410  -0.42064  -0.41651  -0.41442  -0.41319
 Alpha  occ. eigenvalues --   -0.41067  -0.40489  -0.40452  -0.40270  -0.39956
 Alpha  occ. eigenvalues --   -0.39742  -0.39566  -0.39356  -0.39054  -0.38862
 Alpha  occ. eigenvalues --   -0.38637  -0.38255  -0.37758  -0.37248  -0.36714
 Alpha  occ. eigenvalues --   -0.35981  -0.35714  -0.35325  -0.34918  -0.33961
 Alpha  occ. eigenvalues --   -0.32981  -0.31666  -0.31448  -0.31234  -0.30703
 Alpha  occ. eigenvalues --   -0.29560  -0.27752  -0.24719  -0.19478
 Alpha virt. eigenvalues --   -0.06223  -0.00641   0.02895   0.06326   0.06756
 Alpha virt. eigenvalues --    0.08523   0.09186   0.09444   0.10502   0.10829
 Alpha virt. eigenvalues --    0.11526   0.12881   0.13227   0.14028   0.14155

 Mulliken charges:
               1
     1  O   -0.536718
     2  O   -0.536801
     3  O   -0.531241
     4  O   -0.541199
     5  C    0.216692
     6  C    0.236303
     7  C   -0.001429
     8  C   -0.219320
     9  C   -0.161400
    10  C    0.132671
    11  C   -0.304992
    12  C   -0.134223
    13  C   -0.288152
    14  C   -0.327363
    15  C   -0.077005
    16  C    0.076449
    17  C   -0.368405
    18  C   -0.117991
    19  C   -0.085392
    20  C    0.020820
    21  C    0.248998
    22  C   -0.221203
    23  C    0.188248
    24  C   -0.218347
    25  C   -0.038080
    26  C   -0.298373
    27  C   -0.308829
    28  C   -0.300024
    29  C   -0.115926
    30  C    0.103835
    31  C    0.087988
    32  C   -0.283162
    33  C   -0.388396
    34  C   -0.076416
    35  C    0.092820
    36  C   -0.343360
    37  C   -0.119919
    38  C   -0.055103
    39  C   -0.066859
    40  C   -0.108334
    41  C   -0.090800
    42  C   -0.126438
    43  C    0.066498
    44  C   -0.370737
    45  H    0.098375
    46  H    0.123640
    47  H    0.094281
    48  H    0.105503
    49  H    0.096024
    50  H    0.117856
    51  H    0.077007
    52  H    0.136467
    53  H    0.109300
    54  H    0.128532
    55  H    0.101460
    56  H    0.062443
    57  H    0.141916
    58  H    0.102043
    59  H    0.098733
    60  H    0.292710
    61  H    0.074425
    62  H    0.127633
    63  H    0.124561
    64  H    0.101951
    65  H    0.069595
    66  H    0.100002
    67  H    0.074373
    68  H    0.108468
    69  H    0.079197
    70  H    0.094663
    71  H    0.115986
    72  H    0.069381
    73  H    0.112042
    74  H    0.106887
    75  H    0.118374
    76  H    0.097359
    77  H    0.080448
    78  H    0.106461
    79  H    0.105306
    80  H    0.141906
    81  H    0.098652
    82  H    0.294889
    83  H    0.325618
    84  H    0.097719
    85  H    0.122962
    86  H    0.125406
    87  H    0.102010
    88  H    0.072077
    89  H    0.098898
    90  H    0.149146
    91  H    0.106373
    92  H    0.065441
    93  H    0.074082
    94  H    0.077899
    95  H    0.095889
    96  H    0.067772
    97  H    0.078118
    98  H    0.102072
    99  H    0.119127
   100  H    0.121161
 Sum of Mulliken charges =  -0.00000

 Dipole moment (field-independent basis, Debye):
    X=              2.3962    Y=              0.5351    Z=              2.1168  Tot=              3.2418
 Quadrupole moment (field-independent basis, Debye-Ang):
   XX=           -283.5736   YY=           -263.3135   ZZ=           -277.1150
   XY=              4.9059   XZ=             25.9471   YZ=             -3.1857

 Normal termination of Gaussian 16 at Mon Jul 29 20:56:59 2019.
