 Gaussian 16, Revision A.03,
 Gaussian 16:  ES64L-G16RevA.03 25-Dec-2016

 -------------------------------------
 # td=(NStates=1) CAM-B3LYP/6-31G(d,p)
 -------------------------------------

 --
 TD
 --
 Symbolic Z-matrix:
 Charge =  0 Multiplicity = 1

                         Standard orientation:
 ---------------------------------------------------------------------
 Center     Atomic      Atomic             Coordinates (Angstroms)
 Number     Number       Type             X           Y           Z
 ---------------------------------------------------------------------
      1          8           0      -11.788421    0.403380   -1.466407
      2          8           0      -13.174952   -2.595185    1.277890
      3          8           0       10.533767   -1.220099   -1.960927
      4          8           0       14.366681   -0.952399   -0.136051
      5          6           0      -11.077728   -0.055155   -0.266311
      6          6           0      -11.697984   -1.077671   -1.249328
      7          6           0      -11.764050    0.302537    1.031033
      8          6           0      -13.074792   -1.679347   -0.983128
      9          6           0      -13.289435   -0.150754    0.964119
     10          6           0      -13.570485   -1.492584    0.442201
     11          6           0      -10.816437   -1.830407   -2.267722
     12          6           0       -9.507041    0.064568   -0.327974
     13          6           0      -11.134611   -0.300589    2.305210
     14          6           0      -11.796526    1.800703    1.158622
     15          6           0       -8.656112   -0.760024    0.126897
     16          6           0       -7.257592   -0.547789    0.080500
     17          6           0       -6.321956   -1.700689    0.311639
     18          6           0       -6.620239    0.727115   -0.160931
     19          6           0       -5.336141    0.976477   -0.123733
     20          6           0       11.950231    0.153513    1.315714
     21          6           0       11.650433   -0.790584   -1.179111
     22          6           0       12.660642   -1.198302    1.599964
     23          6           0       13.384518   -1.835738    0.373810
     24          6           0       12.421275   -1.979699   -0.791182
     25          6           0       11.142768   -0.009821    0.033488
     26          6           0       10.975630    0.384594    2.470800
     27          6           0       12.977666    1.349918    1.161303
     28          6           0       12.504924    0.083473   -2.058736
     29          6           0       -4.712225    2.202369   -0.339088
     30          6           0        9.939762    0.537641   -0.057027
     31          6           0       -3.300827    2.521852   -0.500024
     32          6           0        8.708819    0.982437   -0.347665
     33          6           0       -2.925809    3.995252   -0.836515
     34          6           0       -2.311350    1.605875   -0.251374
     35          6           0        7.505629    0.195000   -0.114886
     36          6           0        7.730544   -1.259362    0.396461
     37          6           0        6.223934    0.744581   -0.144387
     38          6           0       -0.922727    1.868505   -0.322289
     39          6           0        5.004944    0.200308    0.148168
     40          6           0        0.017592    0.923415   -0.093937
     41          6           0        3.792930    0.902890   -0.039728
     42          6           0        1.418963    1.203480   -0.195816
     43          6           0        2.479896    0.327944    0.107665
     44          6           0        2.331150   -1.105863    0.286161
     45          1           0      -13.037551   -2.716045   -1.271988
     46          1           0      -13.785216   -1.277292   -1.874411
     47          1           0      -13.720936    0.066275    1.864693
     48          1           0      -13.667608    0.519142    0.078675
     49          1           0      -14.645133   -1.715457    0.216870
     50          1           0      -10.244632   -2.645558   -1.685503
     51          1           0      -11.362658   -2.194013   -3.079338
     52          1           0       -9.974072   -1.134262   -2.576607
     53          1           0       -9.311894    1.077125   -0.674689
     54          1           0       -9.960573   -0.047817    2.459929
     55          1           0      -11.541061    0.081350    3.278523
     56          1           0      -11.069833   -1.452564    2.314192
     57          1           0      -12.026283    2.174912    0.119263
     58          1           0      -12.461988    2.360632    1.792772
     59          1           0      -10.834871    2.245306    1.578474
     60          1           0      -12.315773   -3.004326    0.810330
     61          1           0       -8.966724   -1.592200    0.622069
     62          1           0       -5.442570   -2.058815   -0.212995
     63          1           0       -5.663033   -1.866308    1.300695
     64          1           0       -6.977813   -2.677177    0.501957
     65          1           0       -7.250804    1.602480   -0.479733
     66          1           0       -4.518001    0.202845    0.128758
     67          1           0       13.453856   -1.266434    2.334741
     68          1           0       11.822113   -1.851503    1.816620
     69          1           0       13.802953   -2.775946    0.669809
     70          1           0       12.878293   -2.450656   -1.753915
     71          1           0       11.623643   -2.886944   -0.446210
     72          1           0       11.680518    0.515379    3.310700
     73          1           0       10.409177    1.229611    2.367453
     74          1           0       10.252974   -0.378357    2.325270
     75          1           0       13.791760    1.242967    0.324456
     76          1           0       12.485274    2.417545    1.073260
     77          1           0       13.574672    1.557409    2.065481
     78          1           0       12.754123   -0.648569   -3.066185
     79          1           0       12.003729    1.083178   -2.339785
     80          1           0       13.352329    0.275484   -1.570150
     81          1           0       -5.215979    3.054722   -0.468808
     82          1           0       10.221474   -0.320377   -2.510084
     83          1           0       15.241848   -1.075008    0.412428
     84          1           0        8.563848    2.119982   -0.696971
     85          1           0       -2.303827    4.323697    0.072466
     86          1           0       -2.164125    3.969984   -1.715561
     87          1           0       -3.923398    4.531135   -1.024145
     88          1           0       -2.695510    0.586436   -0.059481
     89          1           0        6.765491   -1.709393    0.476012
     90          1           0        8.534921   -2.013371   -0.154839
     91          1           0        7.890276   -1.376540    1.561779
     92          1           0        6.169770    1.856085   -0.395965
     93          1           0       -0.590527    2.862612   -0.470225
     94          1           0        5.017557   -0.899177    0.410519
     95          1           0       -0.515701   -0.149731    0.320064
     96          1           0        3.898677    1.946340   -0.318688
     97          1           0        1.723782    2.199177   -0.279906
     98          1           0        1.195879   -1.443294    0.644138
     99          1           0        2.422247   -1.623032   -0.825843
    100          1           0        2.791202   -1.617661    1.006422
 ---------------------------------------------------------------------

 SCF Done:  E(RCAM-B3LYP) =  -1857.32816184     A.U. after   15 cycles

 Excitation energies and oscillator strengths:

 Excited State   1:      Singlet-A      2.0977 eV  591.04 nm  f=3.0730  <S**2>=0.000
     163 ->166        -0.14702
     164 ->165         0.69227
 This state for optimization and/or second-order correction.
 Total Energy, E(TD-HF/TD-DFT) =  -1857.25107228
 Copying the excited state density for this state as the 1-particle RhoCI density.

 The electronic state is 1-A.
 Alpha  occ. eigenvalues --  -19.22991 -19.22217 -19.21768 -19.21172 -10.32615
 Alpha  occ. eigenvalues --  -10.32431 -10.31289 -10.31036 -10.30417 -10.28420
 Alpha  occ. eigenvalues --  -10.28262 -10.28148 -10.27930 -10.27915 -10.27842
 Alpha  occ. eigenvalues --  -10.27837 -10.27605 -10.27247 -10.27075 -10.27043
 Alpha  occ. eigenvalues --  -10.26910 -10.26766 -10.26735 -10.26628 -10.26557
 Alpha  occ. eigenvalues --  -10.26514 -10.26481 -10.26336 -10.26330 -10.26310
 Alpha  occ. eigenvalues --  -10.26185 -10.26117 -10.26110 -10.26011 -10.25780
 Alpha  occ. eigenvalues --  -10.25763 -10.25723 -10.25640 -10.25466 -10.25412
 Alpha  occ. eigenvalues --  -10.24775 -10.24677 -10.24425 -10.23185  -1.12027
 Alpha  occ. eigenvalues --   -1.10158  -1.07660  -1.07544  -0.92650  -0.92617
 Alpha  occ. eigenvalues --   -0.91869  -0.91007  -0.90339  -0.89567  -0.87828
 Alpha  occ. eigenvalues --   -0.86495  -0.86220  -0.85721  -0.84610  -0.82700
 Alpha  occ. eigenvalues --   -0.82095  -0.80796  -0.79629  -0.78217  -0.76317
 Alpha  occ. eigenvalues --   -0.76157  -0.75909  -0.75761  -0.75285  -0.75170
 Alpha  occ. eigenvalues --   -0.74852  -0.74147  -0.72843  -0.70072  -0.69709
 Alpha  occ. eigenvalues --   -0.68108  -0.67089  -0.65378  -0.64503  -0.64448
 Alpha  occ. eigenvalues --   -0.63086  -0.61354  -0.60961  -0.60520  -0.59737
 Alpha  occ. eigenvalues --   -0.58420  -0.58301  -0.57756  -0.57205  -0.56793
 Alpha  occ. eigenvalues --   -0.56206  -0.54895  -0.54690  -0.54346  -0.53459
 Alpha  occ. eigenvalues --   -0.53260  -0.52795  -0.52713  -0.52152  -0.51972
 Alpha  occ. eigenvalues --   -0.51336  -0.50782  -0.50327  -0.49732  -0.49274
 Alpha  occ. eigenvalues --   -0.49017  -0.48693  -0.48487  -0.48195  -0.48002
 Alpha  occ. eigenvalues --   -0.47623  -0.47393  -0.47237  -0.46760  -0.46385
 Alpha  occ. eigenvalues --   -0.46097  -0.45468  -0.45445  -0.45218  -0.44832
 Alpha  occ. eigenvalues --   -0.44697  -0.44292  -0.44059  -0.43563  -0.43329
 Alpha  occ. eigenvalues --   -0.43224  -0.42857  -0.42151  -0.41882  -0.41805
 Alpha  occ. eigenvalues --   -0.41596  -0.41285  -0.41230  -0.41104  -0.40809
 Alpha  occ. eigenvalues --   -0.40351  -0.40301  -0.39953  -0.39839  -0.39718
 Alpha  occ. eigenvalues --   -0.39321  -0.39244  -0.39002  -0.38464  -0.38329
 Alpha  occ. eigenvalues --   -0.38245  -0.38084  -0.37873  -0.37570  -0.37397
 Alpha  occ. eigenvalues --   -0.37015  -0.35930  -0.34797  -0.34482  -0.33930
 Alpha  occ. eigenvalues --   -0.32704  -0.32217  -0.31951  -0.31636  -0.31294
 Alpha  occ. eigenvalues --   -0.29274  -0.27960  -0.23306  -0.19315
 Alpha virt. eigenvalues --   -0.06080  -0.01623   0.03620   0.06364   0.07714
 Alpha virt. eigenvalues --    0.08670   0.08723   0.10232   0.11002   0.11499
 Alpha virt. eigenvalues --    0.11638   0.12084   0.12860   0.13551   0.14280

 Mulliken charges:
               1
     1  O   -0.518911
     2  O   -0.558049
     3  O   -0.570366
     4  O   -0.539182
     5  C    0.186038
     6  C    0.225781
     7  C    0.045614
     8  C   -0.257397
     9  C   -0.169830
    10  C    0.185669
    11  C   -0.332890
    12  C   -0.105953
    13  C   -0.310562
    14  C   -0.330089
    15  C   -0.037858
    16  C    0.085621
    17  C   -0.393833
    18  C   -0.109706
    19  C   -0.030904
    20  C    0.006988
    21  C    0.266478
    22  C   -0.165835
    23  C    0.133520
    24  C   -0.178994
    25  C   -0.041693
    26  C   -0.295530
    27  C   -0.312101
    28  C   -0.289284
    29  C   -0.110198
    30  C    0.141175
    31  C    0.067284
    32  C   -0.284405
    33  C   -0.365285
    34  C   -0.108887
    35  C    0.117118
    36  C   -0.371445
    37  C   -0.107357
    38  C   -0.071127
    39  C   -0.082835
    40  C   -0.073891
    41  C   -0.127576
    42  C   -0.142602
    43  C    0.129550
    44  C   -0.360694
    45  H    0.106603
    46  H    0.110953
    47  H    0.105772
    48  H    0.108403
    49  H    0.094825
    50  H    0.097895
    51  H    0.121268
    52  H    0.130383
    53  H    0.107081
    54  H    0.080022
    55  H    0.108194
    56  H    0.095347
    57  H    0.122217
    58  H    0.110646
    59  H    0.091274
    60  H    0.301666
    61  H    0.083444
    62  H    0.137669
    63  H    0.094713
    64  H    0.081124
    65  H    0.084179
    66  H    0.074261
    67  H    0.082788
    68  H    0.102532
    69  H    0.090016
    70  H    0.100437
    71  H    0.073629
    72  H    0.095870
    73  H    0.116570
    74  H    0.114491
    75  H    0.118030
    76  H    0.083284
    77  H    0.089058
    78  H    0.074415
    79  H    0.078866
    80  H    0.149361
    81  H    0.057070
    82  H    0.311244
    83  H    0.309552
    84  H    0.096875
    85  H    0.126844
    86  H    0.121706
    87  H    0.106173
    88  H    0.070924
    89  H    0.102112
    90  H    0.131932
    91  H    0.099076
    92  H    0.070044
    93  H    0.081315
    94  H    0.086549
    95  H    0.074760
    96  H    0.084745
    97  H    0.087473
    98  H    0.078632
    99  H    0.116257
   100  H    0.133865
 Sum of Mulliken charges =  -0.00000

 Dipole moment (field-independent basis, Debye):
    X=              4.5645    Y=             -0.7789    Z=              1.1649  Tot=              4.7748
 Quadrupole moment (field-independent basis, Debye-Ang):
   XX=           -241.0217   YY=           -258.1985   ZZ=           -278.0409
   XY=             -2.0500   XZ=             29.1045   YZ=             -1.4882

 Normal termination of Gaussian 16 at Tue Jul 30 07:37:38 2019.
