 Gaussian 16, Revision A.03,
 Gaussian 16:  ES64L-G16RevA.03 25-Dec-2016

 -------------------------------------
 # td=(NStates=1) CAM-B3LYP/6-31G(d,p)
 -------------------------------------

 --
 TD
 --
 Symbolic Z-matrix:
 Charge =  0 Multiplicity = 1

                         Standard orientation:
 ---------------------------------------------------------------------
 Center     Atomic      Atomic             Coordinates (Angstroms)
 Number     Number       Type             X           Y           Z
 ---------------------------------------------------------------------
      1          8           0      -11.730278    0.376417   -1.644771
      2          8           0      -13.236468   -2.442619    1.357548
      3          8           0       10.811635   -0.911983   -2.153449
      4          8           0       14.608736   -0.915904   -0.079718
      5          6           0      -11.110210   -0.066386   -0.445040
      6          6           0      -11.715135   -1.022481   -1.298523
      7          6           0      -11.891997    0.412234    0.851516
      8          6           0      -13.121070   -1.631428   -0.945079
      9          6           0      -13.261768   -0.059300    0.838836
     10          6           0      -13.580184   -1.455742    0.481631
     11          6           0      -10.796690   -1.888522   -2.168285
     12          6           0       -9.628570    0.037843   -0.384619
     13          6           0      -11.219401   -0.229897    2.085237
     14          6           0      -11.584526    1.925882    1.046613
     15          6           0       -8.724064   -0.710679    0.191890
     16          6           0       -7.261631   -0.549676    0.164174
     17          6           0       -6.427622   -1.804236    0.439127
     18          6           0       -6.607643    0.659988    0.002687
     19          6           0       -5.276567    0.899904   -0.110680
     20          6           0       11.877974   -0.059981    1.374487
     21          6           0       11.843003   -0.478140   -1.261124
     22          6           0       12.627735   -1.277715    1.564074
     23          6           0       13.402139   -1.734434    0.263033
     24          6           0       12.575902   -1.777072   -1.030448
     25          6           0       11.133925   -0.041286    0.047922
     26          6           0       10.931106    0.099805    2.565743
     27          6           0       12.813997    1.157522    1.419788
     28          6           0       12.654598    0.615664   -1.940892
     29          6           0       -4.721536    2.155845   -0.500884
     30          6           0        9.868978    0.309736    0.000950
     31          6           0       -3.373044    2.456752   -0.330703
     32          6           0        8.707777    0.827657   -0.222987
     33          6           0       -2.996147    3.927826   -0.549137
     34          6           0       -2.477799    1.454973    0.007173
     35          6           0        7.460788    0.123107   -0.062660
     36          6           0        7.663193   -1.339723   -0.064613
     37          6           0        6.303297    0.793062   -0.267067
     38          6           0       -1.024604    1.712761   -0.069197
     39          6           0        5.041598    0.275827   -0.104067
     40          6           0        0.012782    0.846747    0.236392
     41          6           0        3.799937    0.814492   -0.242061
     42          6           0        1.326932    1.123745    0.010221
     43          6           0        2.554761    0.291063    0.009731
     44          6           0        2.396266   -1.198180    0.319513
     45          1           0      -13.324400   -2.755888   -1.236836
     46          1           0      -13.771003   -1.130083   -1.645466
     47          1           0      -13.750443    0.279320    1.774324
     48          1           0      -13.620423    0.772906   -0.025019
     49          1           0      -14.682291   -1.572152    0.485192
     50          1           0      -10.337704   -2.631406   -1.508990
     51          1           0      -11.325719   -2.346178   -3.081115
     52          1           0       -9.999243   -1.368496   -2.397965
     53          1           0       -9.348474    0.968325   -1.088071
     54          1           0      -10.243827    0.132008    2.294104
     55          1           0      -11.891991   -0.060802    3.012514
     56          1           0      -10.950567   -1.382514    2.127693
     57          1           0      -11.827681    2.218266    0.097744
     58          1           0      -12.209256    2.192379    1.786345
     59          1           0      -10.515877    2.114375    1.096645
     60          1           0      -12.323507   -2.591184    1.312598
     61          1           0       -9.077094   -1.637999    0.517208
     62          1           0       -5.691189   -1.867666   -0.558899
     63          1           0       -6.185337   -1.907976    1.562065
     64          1           0       -7.098138   -2.952613    0.116847
     65          1           0       -7.557676    1.228326   -0.362400
     66          1           0       -4.543207    0.134805    0.085283
     67          1           0       13.219449   -1.181629    2.594334
     68          1           0       12.028960   -2.215140    1.710722
     69          1           0       13.823426   -2.766636    0.361411
     70          1           0       13.222284   -2.153064   -1.762386
     71          1           0       11.762478   -2.441593   -0.896860
     72          1           0       11.619708   -0.112921    3.523628
     73          1           0       10.439213    1.104320    2.591202
     74          1           0       10.009140   -0.588967    2.577073
     75          1           0       13.800983    1.053690    0.804986
     76          1           0       12.323049    2.110003    1.053456
     77          1           0       13.119928    1.528298    2.565020
     78          1           0       13.127081    0.460487   -2.945835
     79          1           0       12.279156    1.691414   -2.059510
     80          1           0       13.657786    0.701195   -1.034243
     81          1           0       -5.318977    3.101239   -0.608695
     82          1           0       10.274594   -0.252840   -2.640265
     83          1           0       15.102074   -0.942895    0.678111
     84          1           0        8.710830    1.963898   -0.757730
     85          1           0       -2.438991    4.265689    0.159345
     86          1           0       -2.431616    4.142909   -1.444741
     87          1           0       -3.943284    4.422394   -0.854832
     88          1           0       -2.864241    0.538138    0.368641
     89          1           0        6.710403   -1.869234   -0.058467
     90          1           0        8.318160   -1.846076   -0.838429
     91          1           0        8.347388   -1.625894    0.885294
     92          1           0        6.248186    1.876730   -0.254780
     93          1           0       -0.699809    2.698388   -0.344920
     94          1           0        4.907030   -0.863308    0.181811
     95          1           0       -0.113782   -0.366441    0.345684
     96          1           0        3.617433    1.943874   -0.414458
     97          1           0        1.564716    2.132975   -0.316754
     98          1           0        1.338049   -1.516263    0.488165
     99          1           0        2.832907   -1.718579   -0.550292
    100          1           0        2.873444   -1.542529    1.157596
 ---------------------------------------------------------------------

 SCF Done:  E(RCAM-B3LYP) =  -1857.26706139     A.U. after   15 cycles

 Excitation energies and oscillator strengths:

 Excited State   1:      Singlet-A      1.9580 eV  633.23 nm  f=3.0059  <S**2>=0.000
     163 ->166        -0.12861
     164 ->165         0.69876
     164 <-165        -0.11031
 This state for optimization and/or second-order correction.
 Total Energy, E(TD-HF/TD-DFT) =  -1857.19510742
 Copying the excited state density for this state as the 1-particle RhoCI density.

 The electronic state is 1-A.
 Alpha  occ. eigenvalues --  -19.22842 -19.21513 -19.21301 -19.19907 -10.32581
 Alpha  occ. eigenvalues --  -10.32280 -10.32050 -10.31700 -10.30516 -10.30175
 Alpha  occ. eigenvalues --  -10.28202 -10.27906 -10.27740 -10.27610 -10.27603
 Alpha  occ. eigenvalues --  -10.27461 -10.27456 -10.27332 -10.27300 -10.27249
 Alpha  occ. eigenvalues --  -10.27212 -10.27138 -10.26962 -10.26915 -10.26810
 Alpha  occ. eigenvalues --  -10.26621 -10.26524 -10.26463 -10.26457 -10.26420
 Alpha  occ. eigenvalues --  -10.26345 -10.26313 -10.26311 -10.26255 -10.26188
 Alpha  occ. eigenvalues --  -10.26151 -10.25773 -10.25570 -10.25304 -10.25021
 Alpha  occ. eigenvalues --  -10.24818 -10.24761 -10.24616 -10.23291  -1.16521
 Alpha  occ. eigenvalues --   -1.12686  -1.09834  -1.08454  -0.94126  -0.92838
 Alpha  occ. eigenvalues --   -0.92392  -0.92221  -0.91132  -0.90425  -0.87688
 Alpha  occ. eigenvalues --   -0.86805  -0.86725  -0.86209  -0.85231  -0.82954
 Alpha  occ. eigenvalues --   -0.82492  -0.81084  -0.79919  -0.79033  -0.77318
 Alpha  occ. eigenvalues --   -0.76840  -0.76464  -0.75992  -0.75912  -0.75829
 Alpha  occ. eigenvalues --   -0.74619  -0.74436  -0.73049  -0.71746  -0.70427
 Alpha  occ. eigenvalues --   -0.69615  -0.68200  -0.66433  -0.64805  -0.64397
 Alpha  occ. eigenvalues --   -0.63862  -0.61680  -0.60570  -0.60361  -0.59254
 Alpha  occ. eigenvalues --   -0.59183  -0.58375  -0.57838  -0.57581  -0.57287
 Alpha  occ. eigenvalues --   -0.56161  -0.55779  -0.55082  -0.54819  -0.54596
 Alpha  occ. eigenvalues --   -0.54187  -0.53275  -0.53223  -0.52858  -0.51869
 Alpha  occ. eigenvalues --   -0.51367  -0.50948  -0.50802  -0.50354  -0.49862
 Alpha  occ. eigenvalues --   -0.49646  -0.49338  -0.49262  -0.48874  -0.48554
 Alpha  occ. eigenvalues --   -0.48314  -0.48237  -0.47828  -0.47463  -0.47000
 Alpha  occ. eigenvalues --   -0.46697  -0.46140  -0.45938  -0.45691  -0.45557
 Alpha  occ. eigenvalues --   -0.45295  -0.44664  -0.44186  -0.44025  -0.43608
 Alpha  occ. eigenvalues --   -0.43597  -0.43147  -0.43100  -0.42667  -0.42516
 Alpha  occ. eigenvalues --   -0.42337  -0.41753  -0.41520  -0.41177  -0.41028
 Alpha  occ. eigenvalues --   -0.40950  -0.40462  -0.40287  -0.39835  -0.39799
 Alpha  occ. eigenvalues --   -0.39334  -0.39182  -0.38762  -0.38699  -0.38197
 Alpha  occ. eigenvalues --   -0.38029  -0.37504  -0.37421  -0.37231  -0.37118
 Alpha  occ. eigenvalues --   -0.35784  -0.35228  -0.34953  -0.34887  -0.34291
 Alpha  occ. eigenvalues --   -0.33159  -0.33016  -0.32509  -0.31606  -0.31498
 Alpha  occ. eigenvalues --   -0.29371  -0.28599  -0.24429  -0.19048
 Alpha virt. eigenvalues --   -0.06764  -0.01454   0.03550   0.05152   0.06686
 Alpha virt. eigenvalues --    0.09561   0.10554   0.10606   0.11375   0.11951
 Alpha virt. eigenvalues --    0.12254   0.12541   0.12807   0.12945   0.13264

 Mulliken charges:
               1
     1  O   -0.504744
     2  O   -0.515282
     3  O   -0.588098
     4  O   -0.540364
     5  C    0.202440
     6  C    0.219338
     7  C    0.014411
     8  C   -0.236303
     9  C   -0.190648
    10  C    0.172126
    11  C   -0.317636
    12  C   -0.125752
    13  C   -0.302280
    14  C   -0.298009
    15  C   -0.057651
    16  C    0.035270
    17  C   -0.351695
    18  C   -0.057902
    19  C   -0.100358
    20  C    0.043338
    21  C    0.292908
    22  C   -0.182676
    23  C    0.091848
    24  C   -0.165135
    25  C   -0.089954
    26  C   -0.295071
    27  C   -0.301053
    28  C   -0.316702
    29  C   -0.118371
    30  C    0.183499
    31  C    0.091395
    32  C   -0.270952
    33  C   -0.364871
    34  C   -0.107951
    35  C    0.117526
    36  C   -0.374566
    37  C   -0.091368
    38  C   -0.111710
    39  C   -0.101304
    40  C   -0.063373
    41  C   -0.109923
    42  C   -0.127310
    43  C    0.102389
    44  C   -0.380747
    45  H    0.092345
    46  H    0.134067
    47  H    0.092300
    48  H    0.083477
    49  H    0.101094
    50  H    0.100138
    51  H    0.107606
    52  H    0.129952
    53  H    0.104775
    54  H    0.113811
    55  H    0.095142
    56  H    0.048299
    57  H    0.126161
    58  H    0.111801
    59  H    0.115695
    60  H    0.294654
    61  H    0.083008
    62  H    0.122661
    63  H    0.139839
    64  H    0.043284
    65  H    0.071341
    66  H    0.099829
    67  H    0.084351
    68  H    0.104860
    69  H    0.087605
    70  H    0.126472
    71  H    0.125437
    72  H    0.077278
    73  H    0.111008
    74  H    0.098773
    75  H    0.111778
    76  H    0.106983
    77  H    0.066098
    78  H    0.112365
    79  H    0.091420
    80  H    0.099231
    81  H    0.084715
    82  H    0.305288
    83  H    0.298568
    84  H    0.092787
    85  H    0.137765
    86  H    0.124137
    87  H    0.104824
    88  H    0.088585
    89  H    0.106608
    90  H    0.146280
    91  H    0.098065
    92  H    0.088340
    93  H    0.087093
    94  H    0.068810
    95  H    0.066077
    96  H    0.061704
    97  H    0.067795
    98  H    0.098512
    99  H    0.120649
   100  H    0.131736
 Sum of Mulliken charges =  -0.00000

 Dipole moment (field-independent basis, Debye):
    X=              2.4879    Y=             -0.5864    Z=              1.0797  Tot=              2.7748
 Quadrupole moment (field-independent basis, Debye-Ang):
   XX=           -282.1371   YY=           -259.9208   ZZ=           -275.5041
   XY=             -2.6639   XZ=             20.0527   YZ=             -3.6585

 Normal termination of Gaussian 16 at Wed Jul 31 02:30:29 2019.
