 Gaussian 16, Revision A.03,
 Gaussian 16:  ES64L-G16RevA.03 25-Dec-2016

 -------------------------------------
 # td=(NStates=1) CAM-B3LYP/6-31G(d,p)
 -------------------------------------

 --
 TD
 --
 Symbolic Z-matrix:
 Charge =  0 Multiplicity = 1

                         Standard orientation:
 ---------------------------------------------------------------------
 Center     Atomic      Atomic             Coordinates (Angstroms)
 Number     Number       Type             X           Y           Z
 ---------------------------------------------------------------------
      1          8           0      -11.755673    0.192461   -1.511119
      2          8           0      -13.016500   -2.355605    1.676956
      3          8           0       10.665997   -1.275465   -2.040000
      4          8           0       14.412259   -1.062610    0.065346
      5          6           0      -11.036387   -0.143219   -0.355902
      6          6           0      -11.840354   -1.230383   -1.192639
      7          6           0      -11.802762    0.440930    0.889205
      8          6           0      -13.009689   -1.877320   -0.772276
      9          6           0      -13.263780   -0.038154    0.937136
     10          6           0      -13.488097   -1.433362    0.672821
     11          6           0      -10.920871   -2.005222   -2.132745
     12          6           0       -9.664903    0.087233   -0.441567
     13          6           0      -11.130576   -0.013863    2.273564
     14          6           0      -11.671124    1.992682    0.780398
     15          6           0       -8.720241   -0.653000    0.080800
     16          6           0       -7.219919   -0.665850    0.035323
     17          6           0       -6.417058   -1.936267    0.272034
     18          6           0       -6.603915    0.608532   -0.065213
     19          6           0       -5.274039    0.788740   -0.202413
     20          6           0       11.899939    0.198210    1.330767
     21          6           0       11.688620   -0.797959   -1.157435
     22          6           0       12.537796   -1.149988    1.707124
     23          6           0       13.348694   -1.788081    0.509341
     24          6           0       12.397163   -2.054138   -0.625790
     25          6           0       11.185546    0.046877    0.077450
     26          6           0       10.983743    0.506679    2.499370
     27          6           0       12.921837    1.361404    1.120948
     28          6           0       12.609783    0.064266   -2.074148
     29          6           0       -4.728868    2.105392   -0.318045
     30          6           0        9.912934    0.438483   -0.062512
     31          6           0       -3.444181    2.538810   -0.415860
     32          6           0        8.706271    1.030810   -0.308494
     33          6           0       -3.060588    3.995978   -0.666739
     34          6           0       -2.333424    1.596438   -0.272036
     35          6           0        7.443113    0.278299   -0.019675
     36          6           0        7.669080   -1.305935    0.122702
     37          6           0        6.281018    0.789046   -0.266917
     38          6           0       -0.935182    1.889122   -0.324663
     39          6           0        5.050759    0.205542    0.005563
     40          6           0        0.085626    0.975937   -0.155745
     41          6           0        3.814668    0.867901   -0.274763
     42          6           0        1.501807    1.242848   -0.322378
     43          6           0        2.534751    0.386960   -0.132567
     44          6           0        2.334672   -1.110906    0.214706
     45          1           0      -12.833236   -2.841157   -0.821199
     46          1           0      -13.733545   -1.530224   -1.427371
     47          1           0      -13.602758    0.106748    1.834290
     48          1           0      -13.859949    0.522955    0.116534
     49          1           0      -14.579038   -1.556935    0.582933
     50          1           0      -10.396899   -2.727487   -1.587673
     51          1           0      -11.523841   -2.401212   -2.963667
     52          1           0      -10.297751   -1.119024   -2.464769
     53          1           0       -9.326518    0.953061   -0.882198
     54          1           0       -9.965389    0.319096    2.246765
     55          1           0      -11.597102    0.512064    3.192332
     56          1           0      -11.293597   -1.094138    2.564652
     57          1           0      -12.461129    2.263232   -0.012069
     58          1           0      -12.163474    2.451724    1.488778
     59          1           0      -10.591888    2.260182    0.490986
     60          1           0      -12.089873   -2.780797    1.355420
     61          1           0       -8.923041   -1.717427    0.585167
     62          1           0       -5.943383   -2.259379   -0.601912
     63          1           0       -5.583691   -1.976843    0.885587
     64          1           0       -7.120440   -2.735278    0.657792
     65          1           0       -7.284267    1.548181   -0.034712
     66          1           0       -4.597943    0.058922    0.095850
     67          1           0       13.332951   -0.899735    2.645368
     68          1           0       11.922176   -1.884841    2.248535
     69          1           0       13.633061   -2.862127    0.746595
     70          1           0       12.995226   -2.425522   -1.531329
     71          1           0       11.395445   -2.681278   -0.309489
     72          1           0       11.430890    0.250023    3.467243
     73          1           0       10.718267    1.442812    2.386285
     74          1           0        9.759949    0.112458    2.501132
     75          1           0       13.727097    0.915515    0.317284
     76          1           0       12.429146    2.424075    0.907266
     77          1           0       13.544680    1.612871    2.061647
     78          1           0       13.004214   -0.476853   -3.070357
     79          1           0       12.263939    0.856302   -2.454242
     80          1           0       13.401252    0.458875   -1.523464
     81          1           0       -5.502590    2.826225   -0.547636
     82          1           0       10.057030   -0.516200   -1.999365
     83          1           0       15.286848   -1.130593    0.674022
     84          1           0        8.626276    2.087289   -0.402308
     85          1           0       -2.429819    4.425137    0.074921
     86          1           0       -2.402124    4.013830   -1.668231
     87          1           0       -4.026306    4.534536   -0.762555
     88          1           0       -2.521541    0.351115   -0.387904
     89          1           0        6.752845   -1.749604   -0.163219
     90          1           0        8.633384   -1.411759   -0.447397
     91          1           0        7.802315   -1.567697    1.210113
     92          1           0        6.514349    1.754811   -0.528114
     93          1           0       -0.702964    3.000243   -0.521354
     94          1           0        5.215740   -0.784424    0.529356
     95          1           0       -0.096084   -0.141778    0.124438
     96          1           0        3.998850    1.960014   -0.613725
     97          1           0        1.769119    2.294126   -0.625018
     98          1           0        1.239290   -1.130410    0.275978
     99          1           0        2.703474   -1.916544   -0.413851
    100          1           0        2.792537   -1.388256    1.156015
 ---------------------------------------------------------------------

 SCF Done:  E(RCAM-B3LYP) =  -1857.25899602     A.U. after   15 cycles

 Excitation energies and oscillator strengths:

 Excited State   1:      Singlet-A      1.9602 eV  632.50 nm  f=2.8979  <S**2>=0.000
     163 ->166         0.12162
     164 ->165         0.70328
     164 <-165        -0.11880
 This state for optimization and/or second-order correction.
 Total Energy, E(TD-HF/TD-DFT) =  -1857.18695898
 Copying the excited state density for this state as the 1-particle RhoCI density.

 The electronic state is 1-A.
 Alpha  occ. eigenvalues --  -19.24024 -19.22294 -19.21612 -19.20916 -10.31988
 Alpha  occ. eigenvalues --  -10.31746 -10.31240 -10.30594 -10.30406 -10.28488
 Alpha  occ. eigenvalues --  -10.28408 -10.28399 -10.28164 -10.28066 -10.28022
 Alpha  occ. eigenvalues --  -10.27930 -10.27844 -10.27787 -10.27517 -10.27454
 Alpha  occ. eigenvalues --  -10.27393 -10.27328 -10.27242 -10.27129 -10.27125
 Alpha  occ. eigenvalues --  -10.27030 -10.26947 -10.26662 -10.26607 -10.26363
 Alpha  occ. eigenvalues --  -10.26316 -10.25763 -10.25761 -10.25738 -10.25361
 Alpha  occ. eigenvalues --  -10.25021 -10.24956 -10.24707 -10.24515 -10.24207
 Alpha  occ. eigenvalues --  -10.23851 -10.23793 -10.23675 -10.22172  -1.14624
 Alpha  occ. eigenvalues --   -1.11661  -1.09584  -1.07655  -0.93930  -0.92448
 Alpha  occ. eigenvalues --   -0.91990  -0.91077  -0.90501  -0.90050  -0.88636
 Alpha  occ. eigenvalues --   -0.86999  -0.86033  -0.85761  -0.84985  -0.82874
 Alpha  occ. eigenvalues --   -0.82018  -0.81134  -0.79788  -0.78019  -0.77991
 Alpha  occ. eigenvalues --   -0.77030  -0.76945  -0.76386  -0.75855  -0.74920
 Alpha  occ. eigenvalues --   -0.74729  -0.74156  -0.73282  -0.70107  -0.69599
 Alpha  occ. eigenvalues --   -0.68532  -0.67431  -0.65194  -0.64907  -0.63651
 Alpha  occ. eigenvalues --   -0.63055  -0.62157  -0.60531  -0.60138  -0.59338
 Alpha  occ. eigenvalues --   -0.59041  -0.58191  -0.58136  -0.57482  -0.57199
 Alpha  occ. eigenvalues --   -0.56100  -0.55745  -0.55441  -0.54893  -0.54606
 Alpha  occ. eigenvalues --   -0.54230  -0.53029  -0.52610  -0.52170  -0.51889
 Alpha  occ. eigenvalues --   -0.51670  -0.51202  -0.50517  -0.49698  -0.49363
 Alpha  occ. eigenvalues --   -0.49197  -0.48822  -0.48519  -0.48429  -0.48208
 Alpha  occ. eigenvalues --   -0.47720  -0.47547  -0.47487  -0.47213  -0.46954
 Alpha  occ. eigenvalues --   -0.46792  -0.46515  -0.46442  -0.46090  -0.45618
 Alpha  occ. eigenvalues --   -0.45468  -0.45264  -0.44611  -0.44574  -0.44074
 Alpha  occ. eigenvalues --   -0.43962  -0.43641  -0.43182  -0.42989  -0.42565
 Alpha  occ. eigenvalues --   -0.42452  -0.42273  -0.41969  -0.41133  -0.40834
 Alpha  occ. eigenvalues --   -0.40248  -0.39921  -0.39833  -0.39770  -0.39623
 Alpha  occ. eigenvalues --   -0.39507  -0.39128  -0.38927  -0.38709  -0.38557
 Alpha  occ. eigenvalues --   -0.38224  -0.37791  -0.37677  -0.37100  -0.36647
 Alpha  occ. eigenvalues --   -0.36122  -0.35412  -0.35113  -0.34395  -0.33186
 Alpha  occ. eigenvalues --   -0.32470  -0.32404  -0.31912  -0.31712  -0.30245
 Alpha  occ. eigenvalues --   -0.29471  -0.28450  -0.24115  -0.19239
 Alpha virt. eigenvalues --   -0.06903  -0.01078   0.03614   0.05283   0.06702
 Alpha virt. eigenvalues --    0.08042   0.08804   0.09929   0.11602   0.11948
 Alpha virt. eigenvalues --    0.12122   0.12495   0.13259   0.13806   0.14002

 Mulliken charges:
               1
     1  O   -0.514770
     2  O   -0.561901
     3  O   -0.555507
     4  O   -0.539301
     5  C    0.215181
     6  C    0.217513
     7  C    0.028651
     8  C   -0.219795
     9  C   -0.156691
    10  C    0.154829
    11  C   -0.322793
    12  C   -0.118656
    13  C   -0.315464
    14  C   -0.294245
    15  C   -0.055333
    16  C    0.046132
    17  C   -0.379108
    18  C   -0.098890
    19  C   -0.048978
    20  C    0.020058
    21  C    0.234576
    22  C   -0.192765
    23  C    0.164645
    24  C   -0.179438
    25  C   -0.007609
    26  C   -0.290702
    27  C   -0.308682
    28  C   -0.283885
    29  C   -0.134455
    30  C    0.044239
    31  C    0.091093
    32  C   -0.248912
    33  C   -0.366738
    34  C   -0.118749
    35  C    0.046373
    36  C   -0.363077
    37  C   -0.034155
    38  C   -0.089336
    39  C   -0.111959
    40  C   -0.096561
    41  C   -0.137494
    42  C   -0.122588
    43  C    0.129824
    44  C   -0.358101
    45  H    0.108971
    46  H    0.126735
    47  H    0.110263
    48  H    0.092710
    49  H    0.093363
    50  H    0.109489
    51  H    0.100666
    52  H    0.129711
    53  H    0.100482
    54  H    0.083775
    55  H    0.087096
    56  H    0.102425
    57  H    0.097259
    58  H    0.109805
    59  H    0.096985
    60  H    0.309651
    61  H    0.041760
    62  H    0.137097
    63  H    0.133788
    64  H    0.103397
    65  H    0.085164
    66  H    0.086785
    67  H    0.046258
    68  H    0.116727
    69  H    0.075229
    70  H    0.110890
    71  H    0.106856
    72  H    0.103005
    73  H    0.115559
    74  H    0.072929
    75  H    0.131837
    76  H    0.095551
    77  H    0.086605
    78  H    0.082224
    79  H    0.103182
    80  H    0.110686
    81  H    0.072022
    82  H    0.302997
    83  H    0.327706
    84  H    0.115186
    85  H    0.139040
    86  H    0.113288
    87  H    0.110416
    88  H    0.067453
    89  H    0.111623
    90  H    0.126906
    91  H    0.106198
    92  H    0.061827
    93  H    0.083635
    94  H    0.089178
    95  H    0.086411
    96  H    0.082822
    97  H    0.083037
    98  H    0.095758
    99  H    0.129440
   100  H    0.123668
 Sum of Mulliken charges =  -0.00000

 Dipole moment (field-independent basis, Debye):
    X=              3.8768    Y=             -0.2790    Z=              2.0443  Tot=              4.3917
 Quadrupole moment (field-independent basis, Debye-Ang):
   XX=           -241.5016   YY=           -256.6692   ZZ=           -283.7613
   XY=             10.3305   XZ=             39.4808   YZ=             -3.9914

 Normal termination of Gaussian 16 at Wed Jul 31 03:57:37 2019.
