 Gaussian 16, Revision A.03,
 Gaussian 16:  ES64L-G16RevA.03 25-Dec-2016

 -------------------------------------
 # td=(NStates=1) CAM-B3LYP/6-31G(d,p)
 -------------------------------------

 --
 TD
 --
 Symbolic Z-matrix:
 Charge =  0 Multiplicity = 1

                         Standard orientation:
 ---------------------------------------------------------------------
 Center     Atomic      Atomic             Coordinates (Angstroms)
 Number     Number       Type             X           Y           Z
 ---------------------------------------------------------------------
      1          8           0      -11.758539    0.454087   -1.384865
      2          8           0      -13.105794   -2.422563    1.337628
      3          8           0       10.585677   -0.719344   -2.176161
      4          8           0       14.512931   -0.895589   -0.315160
      5          6           0      -11.073679   -0.050716   -0.297896
      6          6           0      -11.794059   -0.988236   -1.287083
      7          6           0      -11.800717    0.353490    1.025215
      8          6           0      -13.222204   -1.487087   -0.924146
      9          6           0      -13.287099    0.111300    0.995667
     10          6           0      -13.554732   -1.354995    0.511032
     11          6           0      -11.067024   -1.719383   -2.298747
     12          6           0       -9.602948    0.033373   -0.316894
     13          6           0      -11.045073   -0.253871    2.158841
     14          6           0      -11.676923    1.905339    1.063304
     15          6           0       -8.745808   -0.865935   -0.035254
     16          6           0       -7.247715   -0.623353    0.023241
     17          6           0       -6.363529   -1.827373    0.074970
     18          6           0       -6.625938    0.558276   -0.022924
     19          6           0       -5.264859    0.694000   -0.158928
     20          6           0       11.912163   -0.248529    1.474479
     21          6           0       11.604320   -0.378378   -1.329961
     22          6           0       12.710167   -1.415211    1.326824
     23          6           0       13.436231   -1.753915    0.033392
     24          6           0       12.406194   -1.643512   -1.131025
     25          6           0       11.099546    0.109687    0.123961
     26          6           0       11.065738   -0.133341    2.627651
     27          6           0       12.935038    1.068479    1.583544
     28          6           0       12.414864    0.794073   -1.972979
     29          6           0       -4.651933    1.983224   -0.245655
     30          6           0        9.948877    0.610323    0.264935
     31          6           0       -3.282561    2.360558   -0.277594
     32          6           0        8.770420    1.062239    0.073573
     33          6           0       -2.986420    3.829469   -0.564661
     34          6           0       -2.246071    1.397862   -0.400849
     35          6           0        7.476387    0.178527    0.191239
     36          6           0        7.673764   -1.332310    0.325387
     37          6           0        6.262799    0.789662    0.074262
     38          6           0       -0.900583    1.743038   -0.341277
     39          6           0        5.036125    0.133811    0.057098
     40          6           0        0.061689    0.755130   -0.134229
     41          6           0        3.844045    0.758240    0.025291
     42          6           0        1.406316    1.114520   -0.067830
     43          6           0        2.509213    0.204211   -0.103167
     44          6           0        2.319216   -1.277083   -0.020814
     45          1           0      -13.271613   -2.501228   -1.124372
     46          1           0      -13.937406   -0.886466   -1.511537
     47          1           0      -13.550070    0.485279    2.028248
     48          1           0      -13.803279    0.850986    0.452821
     49          1           0      -14.609210   -1.392239    0.770476
     50          1           0      -10.812455   -2.763112   -1.994920
     51          1           0      -11.600674   -1.769261   -3.184812
     52          1           0      -10.086449   -1.309018   -2.340718
     53          1           0       -9.363380    1.126407   -0.838717
     54          1           0       -9.963852    0.070026    2.268952
     55          1           0      -11.466607   -0.024373    3.120126
     56          1           0      -11.268623   -1.331764    2.330597
     57          1           0      -12.093802    2.437200    0.273870
     58          1           0      -12.058257    2.207791    1.971090
     59          1           0      -10.596367    2.101565    0.988818
     60          1           0      -12.266230   -2.888951    1.132550
     61          1           0       -8.972666   -1.926118    0.150255
     62          1           0       -5.689186   -2.035480   -0.753084
     63          1           0       -5.903200   -1.664983    1.060225
     64          1           0       -6.699550   -2.740968    0.432183
     65          1           0       -7.086128    1.555770   -0.043706
     66          1           0       -4.674296   -0.354785   -0.118244
     67          1           0       13.383475   -1.566217    2.158414
     68          1           0       12.133380   -2.419374    1.521820
     69          1           0       13.859834   -2.710855    0.056034
     70          1           0       12.929893   -1.767815   -2.022926
     71          1           0       11.581728   -2.405755   -1.076051
     72          1           0       11.636646   -0.138359    3.636780
     73          1           0       10.333344    0.579824    2.623782
     74          1           0       10.370022   -1.205391    2.385554
     75          1           0       13.498967    0.845785    0.667502
     76          1           0       12.385371    1.921485    1.452525
     77          1           0       13.731953    0.851415    2.333560
     78          1           0       12.582027    0.495930   -3.028047
     79          1           0       11.655159    1.673373   -2.074458
     80          1           0       13.231219    1.176654   -1.365446
     81          1           0       -5.351638    2.881850   -0.165625
     82          1           0       10.186948   -0.003393   -2.601221
     83          1           0       15.185470   -0.777659    0.361552
     84          1           0        8.709181    2.225327   -0.149070
     85          1           0       -2.170940    4.311443    0.234654
     86          1           0       -2.415015    4.168104   -1.549340
     87          1           0       -3.887909    4.412516   -0.456477
     88          1           0       -2.539191    0.330704   -0.654898
     89          1           0        6.799454   -1.795392    0.360568
     90          1           0        8.384187   -1.628685   -0.542944
     91          1           0        8.236396   -1.686015    1.421519
     92          1           0        6.184854    1.921411   -0.137008
     93          1           0       -0.603919    2.764327   -0.549332
     94          1           0        5.094641   -0.993024    0.210767
     95          1           0       -0.236525   -0.350278    0.219627
     96          1           0        3.657484    1.875573    0.019551
     97          1           0        1.640671    2.003899   -0.302670
     98          1           0        1.337157   -1.751051   -0.596427
     99          1           0        3.081332   -1.402053   -0.776540
    100          1           0        2.574017   -1.590923    1.010678
 ---------------------------------------------------------------------

 SCF Done:  E(RCAM-B3LYP) =  -1857.31130164     A.U. after   15 cycles

 Excitation energies and oscillator strengths:

 Excited State   1:      Singlet-A      2.1378 eV  579.97 nm  f=2.8437  <S**2>=0.000
     163 ->166         0.12302
     164 ->165         0.70001
     164 <-165        -0.10281
 This state for optimization and/or second-order correction.
 Total Energy, E(TD-HF/TD-DFT) =  -1857.23274011
 Copying the excited state density for this state as the 1-particle RhoCI density.

 The electronic state is 1-A.
 Alpha  occ. eigenvalues --  -19.21997 -19.21698 -19.21557 -19.21201 -10.32729
 Alpha  occ. eigenvalues --  -10.31318 -10.31248 -10.30690 -10.30278 -10.28582
 Alpha  occ. eigenvalues --  -10.27579 -10.27549 -10.27546 -10.27356 -10.27264
 Alpha  occ. eigenvalues --  -10.27182 -10.27156 -10.27041 -10.26829 -10.26664
 Alpha  occ. eigenvalues --  -10.26523 -10.26502 -10.26433 -10.26413 -10.26374
 Alpha  occ. eigenvalues --  -10.26354 -10.26137 -10.26107 -10.25762 -10.25747
 Alpha  occ. eigenvalues --  -10.25736 -10.25552 -10.25343 -10.25132 -10.24795
 Alpha  occ. eigenvalues --  -10.24674 -10.24627 -10.24606 -10.24394 -10.24197
 Alpha  occ. eigenvalues --  -10.24111 -10.23791 -10.23405 -10.22216  -1.15667
 Alpha  occ. eigenvalues --   -1.13035  -1.10183  -1.08670  -0.93301  -0.92210
 Alpha  occ. eigenvalues --   -0.91914  -0.90708  -0.90360  -0.89349  -0.87432
 Alpha  occ. eigenvalues --   -0.87075  -0.86393  -0.86340  -0.85261  -0.82876
 Alpha  occ. eigenvalues --   -0.82292  -0.81488  -0.80434  -0.78661  -0.76873
 Alpha  occ. eigenvalues --   -0.76638  -0.75916  -0.75903  -0.75733  -0.75606
 Alpha  occ. eigenvalues --   -0.75506  -0.73682  -0.72477  -0.71708  -0.70071
 Alpha  occ. eigenvalues --   -0.68873  -0.66713  -0.65536  -0.64725  -0.64100
 Alpha  occ. eigenvalues --   -0.62787  -0.62074  -0.60404  -0.60023  -0.59226
 Alpha  occ. eigenvalues --   -0.58974  -0.58787  -0.57832  -0.57424  -0.56905
 Alpha  occ. eigenvalues --   -0.55680  -0.55211  -0.55147  -0.54757  -0.54137
 Alpha  occ. eigenvalues --   -0.53474  -0.53222  -0.52782  -0.52180  -0.51730
 Alpha  occ. eigenvalues --   -0.51059  -0.50927  -0.50824  -0.50637  -0.50445
 Alpha  occ. eigenvalues --   -0.49673  -0.49420  -0.49005  -0.48706  -0.48692
 Alpha  occ. eigenvalues --   -0.48520  -0.47923  -0.47441  -0.47018  -0.46610
 Alpha  occ. eigenvalues --   -0.46331  -0.46145  -0.45998  -0.45554  -0.45364
 Alpha  occ. eigenvalues --   -0.45263  -0.44976  -0.44238  -0.43742  -0.43559
 Alpha  occ. eigenvalues --   -0.43091  -0.42991  -0.42858  -0.42510  -0.42366
 Alpha  occ. eigenvalues --   -0.42126  -0.41849  -0.41644  -0.41430  -0.41268
 Alpha  occ. eigenvalues --   -0.40713  -0.40541  -0.40472  -0.39971  -0.39764
 Alpha  occ. eigenvalues --   -0.39349  -0.39202  -0.38723  -0.38544  -0.38063
 Alpha  occ. eigenvalues --   -0.37857  -0.37786  -0.37694  -0.37308  -0.37091
 Alpha  occ. eigenvalues --   -0.35643  -0.35080  -0.34855  -0.34379  -0.32954
 Alpha  occ. eigenvalues --   -0.32410  -0.32291  -0.31440  -0.30966  -0.29424
 Alpha  occ. eigenvalues --   -0.29054  -0.27947  -0.24349  -0.19221
 Alpha virt. eigenvalues --   -0.05825  -0.00033   0.04040   0.07097   0.07782
 Alpha virt. eigenvalues --    0.09762   0.10309   0.10763   0.11721   0.12383
 Alpha virt. eigenvalues --    0.12482   0.12911   0.13374   0.13784   0.13903

 Mulliken charges:
               1
     1  O   -0.505664
     2  O   -0.571011
     3  O   -0.537034
     4  O   -0.552241
     5  C    0.225742
     6  C    0.204859
     7  C    0.028200
     8  C   -0.199546
     9  C   -0.202303
    10  C    0.185900
    11  C   -0.336315
    12  C   -0.109932
    13  C   -0.320297
    14  C   -0.313911
    15  C   -0.058720
    16  C    0.047805
    17  C   -0.404119
    18  C   -0.083361
    19  C   -0.065581
    20  C    0.034136
    21  C    0.268313
    22  C   -0.198994
    23  C    0.163911
    24  C   -0.179553
    25  C   -0.085385
    26  C   -0.269177
    27  C   -0.326962
    28  C   -0.317342
    29  C   -0.155399
    30  C    0.195106
    31  C    0.100554
    32  C   -0.314000
    33  C   -0.365535
    34  C   -0.114484
    35  C    0.074494
    36  C   -0.343972
    37  C   -0.082326
    38  C   -0.084731
    39  C   -0.110965
    40  C   -0.082737
    41  C   -0.095775
    42  C   -0.096909
    43  C    0.054647
    44  C   -0.362169
    45  H    0.102988
    46  H    0.121703
    47  H    0.088830
    48  H    0.112913
    49  H    0.096900
    50  H    0.093883
    51  H    0.123813
    52  H    0.128041
    53  H    0.100944
    54  H    0.110350
    55  H    0.094360
    56  H    0.092903
    57  H    0.122389
    58  H    0.101074
    59  H    0.085424
    60  H    0.304982
    61  H    0.081200
    62  H    0.131956
    63  H    0.132391
    64  H    0.104411
    65  H    0.081112
    66  H    0.085536
    67  H    0.085629
    68  H    0.083986
    69  H    0.092939
    70  H    0.109959
    71  H    0.113757
    72  H    0.090054
    73  H    0.129997
    74  H    0.041804
    75  H    0.114281
    76  H    0.113236
    77  H    0.083802
    78  H    0.108123
    79  H    0.071276
    80  H    0.138021
    81  H    0.076206
    82  H    0.306372
    83  H    0.306258
    84  H    0.096726
    85  H    0.086222
    86  H    0.115562
    87  H    0.114093
    88  H    0.093528
    89  H    0.115202
    90  H    0.139115
    91  H    0.086264
    92  H    0.080428
    93  H    0.095550
    94  H    0.088651
    95  H    0.087581
    96  H    0.077491
    97  H    0.060886
    98  H    0.095142
    99  H    0.132199
   100  H    0.134345
 Sum of Mulliken charges =  -0.00000

 Dipole moment (field-independent basis, Debye):
    X=              3.9861    Y=             -1.3756    Z=              0.0425  Tot=              4.2170
 Quadrupole moment (field-independent basis, Debye-Ang):
   XX=           -258.1085   YY=           -256.0709   ZZ=           -275.8966
   XY=              5.4161   XZ=             20.0690   YZ=             -1.7187

 Normal termination of Gaussian 16 at Thu Aug  1 00:22:56 2019.
