 Gaussian 16, Revision A.03,
 Gaussian 16:  ES64L-G16RevA.03 25-Dec-2016

 -------------------------------------
 # td=(NStates=1) CAM-B3LYP/6-31G(d,p)
 -------------------------------------

 --
 TD
 --
 Symbolic Z-matrix:
 Charge =  0 Multiplicity = 1

                         Standard orientation:
 ---------------------------------------------------------------------
 Center     Atomic      Atomic             Coordinates (Angstroms)
 Number     Number       Type             X           Y           Z
 ---------------------------------------------------------------------
      1          8           0      -11.605232    0.113334   -1.636433
      2          8           0      -12.953761   -2.587784    1.503509
      3          8           0       10.538829   -1.185281   -2.130859
      4          8           0       14.422987   -0.990484   -0.123926
      5          6           0      -10.976300   -0.177166   -0.359885
      6          6           0      -11.462935   -1.260068   -1.295812
      7          6           0      -11.975392    0.346056    0.835044
      8          6           0      -12.829559   -1.997020   -0.978361
      9          6           0      -13.441508   -0.231750    0.826363
     10          6           0      -13.461592   -1.755845    0.456948
     11          6           0      -10.639406   -2.086154   -2.099599
     12          6           0       -9.496004    0.213899   -0.313559
     13          6           0      -11.257462    0.013025    2.246189
     14          6           0      -11.991531    1.918257    0.745551
     15          6           0       -8.531504   -0.642818    0.110914
     16          6           0       -7.205824   -0.438177    0.166118
     17          6           0       -6.373390   -1.650937    0.697060
     18          6           0       -6.621474    0.728958   -0.198473
     19          6           0       -5.171696    1.059204   -0.029436
     20          6           0       11.916374   -0.052672    1.305686
     21          6           0       11.714739   -0.656065   -1.346227
     22          6           0       12.644545   -1.329564    1.484392
     23          6           0       13.385825   -1.858003    0.252231
     24          6           0       12.445962   -1.949227   -0.897415
     25          6           0       11.094495   -0.068018    0.038068
     26          6           0       11.040679    0.310958    2.531792
     27          6           0       12.898259    1.177907    1.318192
     28          6           0       12.446252    0.252739   -2.202051
     29          6           0       -4.726256    2.276262   -0.368279
     30          6           0        9.950510    0.404185    0.096523
     31          6           0       -3.333581    2.642409   -0.476310
     32          6           0        8.754474    0.864410   -0.122739
     33          6           0       -3.020005    4.099392   -0.822970
     34          6           0       -2.372387    1.604896   -0.240242
     35          6           0        7.429812    0.235620    0.051363
     36          6           0        7.541376   -1.239160    0.427543
     37          6           0        6.218174    0.810597   -0.055937
     38          6           0       -1.005525    2.009760   -0.145935
     39          6           0        4.942162    0.282621    0.030810
     40          6           0       -0.016362    1.042642   -0.076184
     41          6           0        3.800364    1.016591   -0.146594
     42          6           0        1.402734    1.320427   -0.084643
     43          6           0        2.488295    0.415290    0.053172
     44          6           0        2.253132   -1.066185    0.283859
     45          1           0      -12.783554   -2.904400   -1.376130
     46          1           0      -13.528239   -1.712133   -1.780335
     47          1           0      -13.916725   -0.066708    1.819783
     48          1           0      -14.027479    0.333450    0.034744
     49          1           0      -14.548227   -2.158975    0.182215
     50          1           0      -10.424199   -3.112276   -1.669750
     51          1           0      -10.956868   -2.258741   -3.101791
     52          1           0       -9.599959   -1.578624   -2.247462
     53          1           0       -9.294694    1.118016   -0.927346
     54          1           0      -10.178708    0.500493    2.371559
     55          1           0      -11.991039    0.359430    3.150999
     56          1           0      -11.196590   -1.169186    2.486378
     57          1           0      -12.469352    2.222744   -0.243914
     58          1           0      -12.665131    2.381864    1.607433
     59          1           0      -10.972127    2.350397    0.803731
     60          1           0      -11.963292   -2.606816    1.498980
     61          1           0       -9.048203   -1.482965    0.676585
     62          1           0       -5.843079   -1.943792   -0.138125
     63          1           0       -5.789324   -1.604046    1.558980
     64          1           0       -6.992460   -2.651231    0.931295
     65          1           0       -7.060274    1.644526   -0.738190
     66          1           0       -4.446078    0.209185    0.437194
     67          1           0       13.432110   -1.420606    2.279500
     68          1           0       11.925001   -2.115774    1.796111
     69          1           0       13.789329   -2.886980    0.344279
     70          1           0       12.822420   -2.361673   -1.862862
     71          1           0       11.618038   -2.571014   -0.668131
     72          1           0       11.676463    0.442593    3.297875
     73          1           0       10.487369    1.198054    2.447582
     74          1           0       10.282241   -0.516026    2.633001
     75          1           0       13.851929    1.233855    0.643661
     76          1           0       12.354333    1.943432    0.928938
     77          1           0       13.199494    1.266893    2.412764
     78          1           0       12.801783   -0.294272   -3.195511
     79          1           0       11.530097    1.042915   -2.363760
     80          1           0       13.310204    0.731040   -1.660698
     81          1           0       -5.385107    3.089089   -0.621229
     82          1           0        9.847842   -0.541707   -2.350111
     83          1           0       15.102039   -1.164567    0.688075
     84          1           0        8.426514    1.976038   -0.470424
     85          1           0       -2.563327    4.626746    0.031692
     86          1           0       -2.164356    4.067228   -1.532959
     87          1           0       -3.910525    4.788132   -0.867778
     88          1           0       -2.596046    0.470940   -0.233480
     89          1           0        6.610530   -1.740349    0.249597
     90          1           0        8.221863   -2.078064   -0.259243
     91          1           0        7.937178   -1.418522    1.390208
     92          1           0        6.329539    1.816225   -0.604240
     93          1           0       -0.305436    2.975819   -0.052413
     94          1           0        4.878522   -0.754047    0.305782
     95          1           0       -0.107419   -0.172580    0.144694
     96          1           0        3.903239    2.137157   -0.163320
     97          1           0        1.681388    2.463517   -0.129709
     98          1           0        1.258553   -1.406930    0.115330
     99          1           0        2.808924   -1.530818   -0.468222
    100          1           0        2.667477   -1.487891    1.376840
 ---------------------------------------------------------------------

 SCF Done:  E(RCAM-B3LYP) =  -1857.31805744     A.U. after   15 cycles

 Excitation energies and oscillator strengths:

 Excited State   1:      Singlet-A      2.2853 eV  542.54 nm  f=2.9866  <S**2>=0.000
     163 ->166        -0.14534
     164 ->165         0.68868
 This state for optimization and/or second-order correction.
 Total Energy, E(TD-HF/TD-DFT) =  -1857.23407601
 Copying the excited state density for this state as the 1-particle RhoCI density.

 The electronic state is 1-A.
 Alpha  occ. eigenvalues --  -19.22978 -19.21716 -19.21475 -19.19683 -10.32538
 Alpha  occ. eigenvalues --  -10.32354 -10.32313 -10.31579 -10.30985 -10.29043
 Alpha  occ. eigenvalues --  -10.28475 -10.28285 -10.27989 -10.27946 -10.27803
 Alpha  occ. eigenvalues --  -10.27734 -10.27716 -10.27704 -10.27703 -10.27580
 Alpha  occ. eigenvalues --  -10.27577 -10.27460 -10.27455 -10.27080 -10.26935
 Alpha  occ. eigenvalues --  -10.26917 -10.26663 -10.26448 -10.26436 -10.26349
 Alpha  occ. eigenvalues --  -10.26336 -10.26209 -10.26062 -10.26055 -10.25971
 Alpha  occ. eigenvalues --  -10.25960 -10.25810 -10.25784 -10.25379 -10.25166
 Alpha  occ. eigenvalues --  -10.24709 -10.24492 -10.24183 -10.23662  -1.14293
 Alpha  occ. eigenvalues --   -1.10103  -1.08430  -1.06253  -0.93825  -0.92556
 Alpha  occ. eigenvalues --   -0.91860  -0.90969  -0.89793  -0.87908  -0.87293
 Alpha  occ. eigenvalues --   -0.86650  -0.86322  -0.85913  -0.84264  -0.83067
 Alpha  occ. eigenvalues --   -0.81993  -0.81049  -0.80347  -0.78260  -0.77061
 Alpha  occ. eigenvalues --   -0.76811  -0.76717  -0.75887  -0.75691  -0.75435
 Alpha  occ. eigenvalues --   -0.74149  -0.73247  -0.72746  -0.69821  -0.69030
 Alpha  occ. eigenvalues --   -0.68153  -0.66766  -0.65494  -0.64739  -0.63607
 Alpha  occ. eigenvalues --   -0.62554  -0.61256  -0.60275  -0.59819  -0.59628
 Alpha  occ. eigenvalues --   -0.58188  -0.57812  -0.57533  -0.56855  -0.56544
 Alpha  occ. eigenvalues --   -0.55617  -0.54965  -0.54712  -0.54459  -0.53595
 Alpha  occ. eigenvalues --   -0.53243  -0.52664  -0.52303  -0.51769  -0.51592
 Alpha  occ. eigenvalues --   -0.51358  -0.51058  -0.50537  -0.50257  -0.49659
 Alpha  occ. eigenvalues --   -0.49146  -0.48965  -0.48546  -0.48347  -0.48123
 Alpha  occ. eigenvalues --   -0.48031  -0.47899  -0.47341  -0.46783  -0.46367
 Alpha  occ. eigenvalues --   -0.45964  -0.45759  -0.45724  -0.45398  -0.44787
 Alpha  occ. eigenvalues --   -0.44475  -0.44159  -0.44084  -0.43754  -0.43551
 Alpha  occ. eigenvalues --   -0.43176  -0.42973  -0.42458  -0.42431  -0.42394
 Alpha  occ. eigenvalues --   -0.41902  -0.41399  -0.41221  -0.40784  -0.40602
 Alpha  occ. eigenvalues --   -0.40360  -0.40179  -0.40100  -0.39932  -0.39843
 Alpha  occ. eigenvalues --   -0.39787  -0.39343  -0.39034  -0.38649  -0.38454
 Alpha  occ. eigenvalues --   -0.38238  -0.37870  -0.37435  -0.37129  -0.37087
 Alpha  occ. eigenvalues --   -0.36108  -0.36049  -0.34626  -0.34171  -0.33949
 Alpha  occ. eigenvalues --   -0.32945  -0.32489  -0.32166  -0.31315  -0.30847
 Alpha  occ. eigenvalues --   -0.30331  -0.27687  -0.24531  -0.20116
 Alpha virt. eigenvalues --   -0.05618  -0.01154   0.02549   0.06160   0.06813
 Alpha virt. eigenvalues --    0.08577   0.09451   0.10261   0.10656   0.12113
 Alpha virt. eigenvalues --    0.12391   0.12696   0.12911   0.13411   0.13776

 Mulliken charges:
               1
     1  O   -0.504948
     2  O   -0.546489
     3  O   -0.591878
     4  O   -0.530310
     5  C    0.163563
     6  C    0.291126
     7  C    0.031853
     8  C   -0.228475
     9  C   -0.178619
    10  C    0.163335
    11  C   -0.362907
    12  C   -0.109754
    13  C   -0.293895
    14  C   -0.304548
    15  C   -0.087563
    16  C    0.093993
    17  C   -0.379033
    18  C   -0.129257
    19  C   -0.063162
    20  C   -0.020210
    21  C    0.246462
    22  C   -0.172631
    23  C    0.138760
    24  C   -0.189771
    25  C   -0.059523
    26  C   -0.293156
    27  C   -0.295248
    28  C   -0.264786
    29  C   -0.115121
    30  C    0.209297
    31  C    0.087238
    32  C   -0.324570
    33  C   -0.382207
    34  C   -0.138764
    35  C    0.146094
    36  C   -0.380537
    37  C   -0.132407
    38  C   -0.099727
    39  C   -0.082112
    40  C   -0.066943
    41  C   -0.111157
    42  C   -0.142484
    43  C    0.097584
    44  C   -0.363248
    45  H    0.104133
    46  H    0.108669
    47  H    0.110839
    48  H    0.103629
    49  H    0.084602
    50  H    0.104698
    51  H    0.124697
    52  H    0.106093
    53  H    0.104557
    54  H    0.104587
    55  H    0.085995
    56  H    0.060680
    57  H    0.115542
    58  H    0.086997
    59  H    0.105513
    60  H    0.308265
    61  H    0.080432
    62  H    0.141129
    63  H    0.133579
    64  H    0.088720
    65  H    0.095244
    66  H    0.084720
    67  H    0.071280
    68  H    0.094436
    69  H    0.083709
    70  H    0.100253
    71  H    0.125880
    72  H    0.103260
    73  H    0.122708
    74  H    0.094021
    75  H    0.104917
    76  H    0.112584
    77  H    0.084617
    78  H    0.112448
    79  H    0.070851
    80  H    0.127325
    81  H    0.080739
    82  H    0.306856
    83  H    0.307045
    84  H    0.080609
    85  H    0.127496
    86  H    0.136817
    87  H    0.117273
    88  H    0.111940
    89  H    0.106286
    90  H    0.090811
    91  H    0.126514
    92  H    0.067268
    93  H    0.102121
    94  H    0.089361
    95  H    0.057842
    96  H    0.095197
    97  H    0.064349
    98  H    0.118644
    99  H    0.134609
   100  H    0.102752
 Sum of Mulliken charges =  -0.00000

 Dipole moment (field-independent basis, Debye):
    X=              3.6299    Y=             -0.4026    Z=              1.6004  Tot=              3.9874
 Quadrupole moment (field-independent basis, Debye-Ang):
   XX=           -281.5324   YY=           -257.6322   ZZ=           -278.7933
   XY=             -7.4268   XZ=             33.6460   YZ=             -1.4082

 Normal termination of Gaussian 16 at Mon Jul 29 12:41:50 2019.
