 Gaussian 16, Revision A.03,
 Gaussian 16:  ES64L-G16RevA.03 25-Dec-2016

 -------------------------------------
 # td=(NStates=1) CAM-B3LYP/6-31G(d,p)
 -------------------------------------

 --
 TD
 --
 Symbolic Z-matrix:
 Charge =  0 Multiplicity = 1

                         Standard orientation:
 ---------------------------------------------------------------------
 Center     Atomic      Atomic             Coordinates (Angstroms)
 Number     Number       Type             X           Y           Z
 ---------------------------------------------------------------------
      1          8           0       11.658759    0.060209    1.673628
      2          8           0       13.183630   -2.336890   -1.368913
      3          8           0      -10.549932   -1.422102    2.039155
      4          8           0      -14.617390   -0.932678    0.185893
      5          6           0       11.004897   -0.294171    0.364266
      6          6           0       11.487179   -1.277772    1.212772
      7          6           0       11.873772    0.481772   -0.683599
      8          6           0       12.771309   -1.926391    0.954782
      9          6           0       13.301916    0.011651   -0.653170
     10          6           0       13.608346   -1.515318   -0.336977
     11          6           0       10.568627   -2.238003    2.001292
     12          6           0        9.511713    0.083136    0.397558
     13          6           0       11.294533    0.234940   -2.088213
     14          6           0       11.818878    2.016313   -0.446439
     15          6           0        8.667780   -0.806149   -0.250712
     16          6           0        7.246340   -0.569052   -0.375058
     17          6           0        6.453388   -1.637100   -1.024230
     18          6           0        6.623911    0.668638    0.039724
     19          6           0        5.239555    0.910567    0.062608
     20          6           0      -12.016321    0.198795   -1.114640
     21          6           0      -11.580982   -0.798194    1.343095
     22          6           0      -12.768178   -1.053981   -1.487573
     23          6           0      -13.482261   -1.679175   -0.180116
     24          6           0      -12.546773   -1.961598    0.845835
     25          6           0      -11.040679   -0.053322    0.077450
     26          6           0      -11.079259    0.359450   -2.355454
     27          6           0      -12.876569    1.463698   -0.945424
     28          6           0      -12.317870    0.164522    2.328134
     29          6           0        4.674501    2.078371    0.455902
     30          6           0       -9.787919    0.374807    0.104022
     31          6           0        3.376587    2.526044    0.567980
     32          6           0       -8.544649    0.799974    0.212086
     33          6           0        3.022770    3.916760    0.982901
     34          6           0        2.257815    1.631034    0.131369
     35          6           0       -7.405332    0.100448   -0.075027
     36          6           0       -7.642979   -1.306990   -0.578648
     37          6           0       -6.196295    0.581484    0.061497
     38          6           0        0.891172    1.912977    0.299964
     39          6           0       -4.921255    0.106106   -0.272631
     40          6           0       -0.049654    0.954354    0.036988
     41          6           0       -3.788374    0.813501   -0.065449
     42          6           0       -1.456447    1.228827    0.155015
     43          6           0       -2.481519    0.418998   -0.350596
     44          6           0       -2.227579   -1.008962   -0.995617
     45          1           0       12.616105   -3.213345    0.904280
     46          1           0       13.520342   -1.851316    1.897650
     47          1           0       13.651374    0.306038   -1.503119
     48          1           0       13.790135    0.514224    0.248330
     49          1           0       14.568549   -1.697034   -0.090977
     50          1           0       10.059765   -2.977618    1.312431
     51          1           0       11.364971   -2.600654    2.718209
     52          1           0        9.904761   -1.740468    2.588166
     53          1           0        9.069947    0.996231    0.954814
     54          1           0       10.540279    1.052470   -2.571926
     55          1           0       12.126300    0.360607   -2.826709
     56          1           0       10.671590   -0.952988   -2.129681
     57          1           0       12.313789    2.129512    0.335789
     58          1           0       12.379990    2.701009   -1.296554
     59          1           0       10.931687    2.244603   -0.438330
     60          1           0       12.189674   -2.001043   -1.553919
     61          1           0        9.061475   -1.739762   -0.717208
     62          1           0        5.727582   -2.039973   -0.389526
     63          1           0        5.731179   -1.302018   -1.796299
     64          1           0        6.985757   -2.436878   -1.521354
     65          1           0        7.365755    1.444003    0.361289
     66          1           0        4.692988    0.151016   -0.295210
     67          1           0      -13.663349   -0.612745   -2.262706
     68          1           0      -12.202508   -1.731187   -1.966541
     69          1           0      -13.910534   -2.525908   -0.479217
     70          1           0      -13.191839   -2.338818    1.605890
     71          1           0      -11.739916   -2.683484    0.579872
     72          1           0      -11.397898    0.511728   -3.373161
     73          1           0      -10.614012    1.467956   -2.000757
     74          1           0      -10.192234   -0.227518   -2.398305
     75          1           0      -13.673691    1.395801   -0.258111
     76          1           0      -12.126309    2.307688   -1.015406
     77          1           0      -13.291342    1.534864   -1.964988
     78          1           0      -12.552005   -0.556140    3.084689
     79          1           0      -11.674677    1.023622    2.552204
     80          1           0      -13.224729    0.626247    1.782159
     81          1           0        5.477674    2.855613    0.569490
     82          1           0       -9.891821   -0.806101    2.285551
     83          1           0      -14.992474   -0.641271   -0.779467
     84          1           0       -8.517941    1.911865    0.552695
     85          1           0        2.403379    4.353382    0.120654
     86          1           0        2.271726    4.013063    1.783686
     87          1           0        3.909961    4.593562    1.102986
     88          1           0        2.471320    0.609453   -0.176399
     89          1           0       -6.655619   -1.799878   -0.472977
     90          1           0       -8.304766   -1.744199    0.189695
     91          1           0       -8.115752   -1.189218   -1.555518
     92          1           0       -6.257012    1.784922    0.329919
     93          1           0        0.804574    2.946891    0.868179
     94          1           0       -5.051623   -1.025061   -0.395066
     95          1           0        0.337063   -0.031201   -0.482371
     96          1           0       -4.020045    1.924519    0.250259
     97          1           0       -1.705174    2.189383    0.683760
     98          1           0       -1.118981   -1.030934   -1.298507
     99          1           0       -2.450682   -1.724895   -0.183180
    100          1           0       -2.707829   -1.142882   -1.841279
 ---------------------------------------------------------------------

 SCF Done:  E(RCAM-B3LYP) =  -1857.24509268     A.U. after   15 cycles

 Excitation energies and oscillator strengths:

 Excited State   1:      Singlet-A      1.9642 eV  631.21 nm  f=2.8405  <S**2>=0.000
     163 ->166         0.12446
     164 ->165         0.70117
     164 <-165        -0.11324
 This state for optimization and/or second-order correction.
 Total Energy, E(TD-HF/TD-DFT) =  -1857.17290856
 Copying the excited state density for this state as the 1-particle RhoCI density.

 The electronic state is 1-A.
 Alpha  occ. eigenvalues --  -19.22334 -19.21378 -19.21182 -19.21111 -10.32178
 Alpha  occ. eigenvalues --  -10.31921 -10.31635 -10.30053 -10.29099 -10.28848
 Alpha  occ. eigenvalues --  -10.28610 -10.28506 -10.28226 -10.28113 -10.28075
 Alpha  occ. eigenvalues --  -10.28064 -10.28049 -10.27805 -10.27523 -10.27415
 Alpha  occ. eigenvalues --  -10.27223 -10.27115 -10.27082 -10.27061 -10.27027
 Alpha  occ. eigenvalues --  -10.27019 -10.26920 -10.26915 -10.26683 -10.26550
 Alpha  occ. eigenvalues --  -10.26400 -10.26178 -10.26036 -10.25929 -10.25644
 Alpha  occ. eigenvalues --  -10.25501 -10.25360 -10.25297 -10.25261 -10.25219
 Alpha  occ. eigenvalues --  -10.24803 -10.24406 -10.24048 -10.22876  -1.14359
 Alpha  occ. eigenvalues --   -1.11487  -1.09347  -1.08813  -0.93619  -0.92547
 Alpha  occ. eigenvalues --   -0.92266  -0.91528  -0.91134  -0.90233  -0.87947
 Alpha  occ. eigenvalues --   -0.86754  -0.85913  -0.85688  -0.84806  -0.83242
 Alpha  occ. eigenvalues --   -0.82601  -0.80575  -0.80488  -0.78567  -0.77652
 Alpha  occ. eigenvalues --   -0.77446  -0.76880  -0.76698  -0.76456  -0.75725
 Alpha  occ. eigenvalues --   -0.75444  -0.74527  -0.73259  -0.71146  -0.70419
 Alpha  occ. eigenvalues --   -0.69064  -0.67496  -0.66124  -0.65295  -0.64965
 Alpha  occ. eigenvalues --   -0.63494  -0.61699  -0.60813  -0.59953  -0.59439
 Alpha  occ. eigenvalues --   -0.58899  -0.58314  -0.57746  -0.56859  -0.56679
 Alpha  occ. eigenvalues --   -0.55995  -0.55456  -0.55169  -0.54646  -0.54133
 Alpha  occ. eigenvalues --   -0.53341  -0.53134  -0.52900  -0.52450  -0.52190
 Alpha  occ. eigenvalues --   -0.51887  -0.51400  -0.51287  -0.50829  -0.50623
 Alpha  occ. eigenvalues --   -0.50005  -0.49877  -0.49745  -0.49371  -0.49070
 Alpha  occ. eigenvalues --   -0.48320  -0.48067  -0.47827  -0.47490  -0.46727
 Alpha  occ. eigenvalues --   -0.46425  -0.46283  -0.45892  -0.45732  -0.45488
 Alpha  occ. eigenvalues --   -0.45294  -0.45021  -0.44592  -0.44536  -0.44275
 Alpha  occ. eigenvalues --   -0.44166  -0.44064  -0.43687  -0.43625  -0.43162
 Alpha  occ. eigenvalues --   -0.42943  -0.42806  -0.41881  -0.41409  -0.41384
 Alpha  occ. eigenvalues --   -0.41242  -0.40583  -0.40390  -0.40211  -0.40000
 Alpha  occ. eigenvalues --   -0.39636  -0.39467  -0.39403  -0.39173  -0.38604
 Alpha  occ. eigenvalues --   -0.38396  -0.38135  -0.37590  -0.37293  -0.37260
 Alpha  occ. eigenvalues --   -0.36768  -0.36320  -0.35626  -0.35153  -0.34715
 Alpha  occ. eigenvalues --   -0.32910  -0.31896  -0.31595  -0.30662  -0.30261
 Alpha  occ. eigenvalues --   -0.29557  -0.28092  -0.24169  -0.19315
 Alpha virt. eigenvalues --   -0.06846  -0.01192   0.02623   0.06122   0.06743
 Alpha virt. eigenvalues --    0.07416   0.08744   0.10530   0.11264   0.11509
 Alpha virt. eigenvalues --    0.12331   0.12790   0.12949   0.13342   0.13475

 Mulliken charges:
               1
     1  O   -0.518478
     2  O   -0.537246
     3  O   -0.552489
     4  O   -0.566894
     5  C    0.123235
     6  C    0.311142
     7  C    0.009058
     8  C   -0.222978
     9  C   -0.176431
    10  C    0.157200
    11  C   -0.316521
    12  C   -0.108096
    13  C   -0.296707
    14  C   -0.248752
    15  C   -0.086710
    16  C    0.087741
    17  C   -0.402651
    18  C   -0.118863
    19  C   -0.030251
    20  C    0.019701
    21  C    0.237271
    22  C   -0.193637
    23  C    0.190997
    24  C   -0.200840
    25  C   -0.086001
    26  C   -0.318213
    27  C   -0.303874
    28  C   -0.299442
    29  C   -0.130480
    30  C    0.135360
    31  C    0.101631
    32  C   -0.277053
    33  C   -0.399518
    34  C   -0.123155
    35  C    0.121864
    36  C   -0.356465
    37  C   -0.110098
    38  C   -0.050377
    39  C   -0.089405
    40  C   -0.111938
    41  C   -0.105266
    42  C   -0.114331
    43  C    0.066709
    44  C   -0.345248
    45  H    0.072901
    46  H    0.089653
    47  H    0.099481
    48  H    0.101417
    49  H    0.102217
    50  H    0.109060
    51  H    0.109112
    52  H    0.127733
    53  H    0.121647
    54  H    0.097933
    55  H    0.115367
    56  H    0.036875
    57  H    0.129958
    58  H    0.069072
    59  H    0.104869
    60  H    0.302728
    61  H    0.085789
    62  H    0.135182
    63  H    0.120215
    64  H    0.112777
    65  H    0.071447
    66  H    0.066662
    67  H    0.036410
    68  H    0.112117
    69  H    0.088310
    70  H    0.112396
    71  H    0.124774
    72  H    0.106666
    73  H    0.060908
    74  H    0.119489
    75  H    0.133508
    76  H    0.107567
    77  H    0.097143
    78  H    0.122271
    79  H    0.093040
    80  H    0.111499
    81  H    0.071383
    82  H    0.303867
    83  H    0.312976
    84  H    0.105252
    85  H    0.126276
    86  H    0.132328
    87  H    0.116566
    88  H    0.078265
    89  H    0.094534
    90  H    0.128597
    91  H    0.130584
    92  H    0.040853
    93  H    0.078351
    94  H    0.077903
    95  H    0.089788
    96  H    0.085083
    97  H    0.092066
    98  H    0.094714
    99  H    0.133054
   100  H    0.135868
 Sum of Mulliken charges =  -0.00000

 Dipole moment (field-independent basis, Debye):
    X=             -2.3308    Y=              1.0694    Z=             -2.5523  Tot=              3.6181
 Quadrupole moment (field-independent basis, Debye-Ang):
   XX=           -309.1389   YY=           -264.2627   ZZ=           -276.1650
   XY=              6.9633   XZ=             24.5650   YZ=              3.9210

 Normal termination of Gaussian 16 at Tue Jul 30 15:19:20 2019.
