 Gaussian 16, Revision A.03,
 Gaussian 16:  ES64L-G16RevA.03 25-Dec-2016

 -------------------------------------
 # td=(NStates=1) CAM-B3LYP/6-31G(d,p)
 -------------------------------------

 --
 TD
 --
 Symbolic Z-matrix:
 Charge =  0 Multiplicity = 1

                         Standard orientation:
 ---------------------------------------------------------------------
 Center     Atomic      Atomic             Coordinates (Angstroms)
 Number     Number       Type             X           Y           Z
 ---------------------------------------------------------------------
      1          8           0      -11.725863    0.499927   -1.454582
      2          8           0      -13.139064   -2.380135    1.185241
      3          8           0       10.704403   -0.994044   -1.910110
      4          8           0       14.563954   -0.801816   -0.145942
      5          6           0      -11.140673   -0.000761   -0.268339
      6          6           0      -11.688243   -0.977601   -1.248824
      7          6           0      -11.827686    0.427345    1.010195
      8          6           0      -13.090492   -1.547009   -0.962133
      9          6           0      -13.324935    0.074910    0.865842
     10          6           0      -13.661257   -1.339789    0.436569
     11          6           0      -10.861221   -1.783760   -2.220911
     12          6           0       -9.588986    0.104673   -0.331851
     13          6           0      -11.106294   -0.200527    2.211117
     14          6           0      -11.646480    1.942018    1.101295
     15          6           0       -8.703147   -0.737876    0.244221
     16          6           0       -7.230086   -0.593980    0.406509
     17          6           0       -6.511663   -1.867127    0.762891
     18          6           0       -6.575151    0.568264    0.089034
     19          6           0       -5.219019    0.785510    0.016848
     20          6           0       11.989219    0.115056    1.395669
     21          6           0       11.640779   -0.476923   -1.109346
     22          6           0       12.770859   -1.164594    1.514304
     23          6           0       13.438509   -1.629869    0.219123
     24          6           0       12.561246   -1.813706   -0.915604
     25          6           0       10.980577    0.099137    0.082053
     26          6           0       10.975811    0.223901    2.660168
     27          6           0       12.855141    1.368429    1.358885
     28          6           0       12.473469    0.612917   -1.869100
     29          6           0       -4.719156    1.979537   -0.407959
     30          6           0        9.898505    0.691090    0.109992
     31          6           0       -3.342157    2.367958   -0.535268
     32          6           0        8.638439    0.940745   -0.193386
     33          6           0       -3.019159    3.803987   -0.521019
     34          6           0       -2.289986    1.376495   -0.421685
     35          6           0        7.477336    0.048238   -0.111295
     36          6           0        7.762769   -1.427489    0.225661
     37          6           0        6.261393    0.622580   -0.224279
     38          6           0       -0.880069    1.658865   -0.424979
     39          6           0        4.967648   -0.059385   -0.215600
     40          6           0        0.037549    0.701987   -0.264528
     41          6           0        3.761253    0.718192   -0.394725
     42          6           0        1.387633    0.889414   -0.287256
     43          6           0        2.535359    0.125125   -0.193414
     44          6           0        2.360578   -1.343378    0.101316
     45          1           0      -13.145968   -2.629779   -1.400222
     46          1           0      -13.549584   -0.954077   -1.745371
     47          1           0      -13.923753    0.160323    1.841568
     48          1           0      -13.963238    0.629405    0.093592
     49          1           0      -14.898222   -1.536585    0.507549
     50          1           0      -10.741015   -2.778601   -1.899923
     51          1           0      -11.476704   -2.001408   -3.227837
     52          1           0       -9.889516   -1.338702   -2.555726
     53          1           0       -9.079658    1.066375   -0.783500
     54          1           0      -10.160677    0.220568    2.128608
     55          1           0      -11.646411    0.301464    2.976192
     56          1           0      -11.148549   -1.336748    2.201190
     57          1           0      -11.810702    2.405894    0.039495
     58          1           0      -12.361471    2.230545    1.841486
     59          1           0      -10.703252    2.463299    1.718432
     60          1           0      -12.127079   -2.260617    1.145898
     61          1           0       -9.048410   -1.783727    0.722424
     62          1           0       -6.145281   -2.222909   -0.365814
     63          1           0       -5.785220   -1.666387    1.290760
     64          1           0       -7.305907   -2.520108    0.929629
     65          1           0       -7.213102    1.453577   -0.273226
     66          1           0       -4.546260   -0.052328    0.103099
     67          1           0       13.476859   -1.120377    2.205292
     68          1           0       11.776160   -1.919958    1.683018
     69          1           0       13.868372   -2.697343    0.241309
     70          1           0       13.101543   -2.052387   -1.833835
     71          1           0       12.026395   -2.731219   -0.448606
     72          1           0       11.708917    0.129875    3.509009
     73          1           0       10.610144    1.057792    2.599574
     74          1           0       10.183546   -0.647274    2.664327
     75          1           0       13.815658    1.319082    0.759887
     76          1           0       12.509794    2.193584    1.246290
     77          1           0       13.116605    1.262114    2.329236
     78          1           0       13.089908    0.234644   -2.956901
     79          1           0       11.802544    1.556897   -2.155884
     80          1           0       13.344848    0.930479   -1.038101
     81          1           0       -5.383726    2.968468   -0.616332
     82          1           0        9.736752   -0.439183   -1.772678
     83          1           0       14.990996   -0.702372    0.802742
     84          1           0        8.466607    1.970148   -0.435197
     85          1           0       -2.686174    4.234516    0.396473
     86          1           0       -2.266061    3.982767   -1.395633
     87          1           0       -3.818492    4.402224   -0.704503
     88          1           0       -2.471808    0.320479   -0.446813
     89          1           0        6.919969   -2.110865   -0.148084
     90          1           0        8.643162   -1.824478   -0.413833
     91          1           0        7.870211   -1.691784    1.349441
     92          1           0        6.177958    1.776288   -0.505705
     93          1           0       -0.725934    2.696708   -0.436038
     94          1           0        4.911938   -1.202317   -0.140642
     95          1           0       -0.163699   -0.435155   -0.231398
     96          1           0        3.880178    1.738224   -0.627258
     97          1           0        1.661770    2.020034   -0.599970
     98          1           0        1.542393   -1.745799    0.322315
     99          1           0        2.760377   -2.073337   -0.843739
    100          1           0        2.875560   -1.536999    0.815929
 ---------------------------------------------------------------------

 SCF Done:  E(RCAM-B3LYP) =  -1857.13693900     A.U. after   15 cycles

 Excitation energies and oscillator strengths:

 Excited State   1:      Singlet-A      2.1646 eV  572.78 nm  f=3.1999  <S**2>=0.000
     163 ->166         0.14180
     164 ->165         0.69342
 This state for optimization and/or second-order correction.
 Total Energy, E(TD-HF/TD-DFT) =  -1857.05739145
 Copying the excited state density for this state as the 1-particle RhoCI density.

 The electronic state is 1-A.
 Alpha  occ. eigenvalues --  -19.22185 -19.22062 -19.21702 -19.19730 -10.32828
 Alpha  occ. eigenvalues --  -10.32294 -10.32235 -10.30938 -10.30119 -10.28772
 Alpha  occ. eigenvalues --  -10.28409 -10.28287 -10.28234 -10.28143 -10.27969
 Alpha  occ. eigenvalues --  -10.27782 -10.27753 -10.27737 -10.27637 -10.27560
 Alpha  occ. eigenvalues --  -10.27486 -10.27284 -10.26939 -10.26865 -10.26842
 Alpha  occ. eigenvalues --  -10.26788 -10.26641 -10.26634 -10.26618 -10.26603
 Alpha  occ. eigenvalues --  -10.26529 -10.26487 -10.26402 -10.26116 -10.25859
 Alpha  occ. eigenvalues --  -10.25815 -10.25598 -10.25479 -10.25450 -10.25087
 Alpha  occ. eigenvalues --  -10.25026 -10.24695 -10.23928 -10.22301  -1.14578
 Alpha  occ. eigenvalues --   -1.10530  -1.09463  -1.08459  -0.92962  -0.92783
 Alpha  occ. eigenvalues --   -0.92420  -0.91823  -0.91005  -0.90478  -0.88205
 Alpha  occ. eigenvalues --   -0.86665  -0.86468  -0.85544  -0.85346  -0.83497
 Alpha  occ. eigenvalues --   -0.82615  -0.81516  -0.80290  -0.79909  -0.78359
 Alpha  occ. eigenvalues --   -0.77439  -0.77289  -0.76813  -0.76805  -0.75762
 Alpha  occ. eigenvalues --   -0.75118  -0.74432  -0.73000  -0.70682  -0.69013
 Alpha  occ. eigenvalues --   -0.67690  -0.66785  -0.65504  -0.64856  -0.63704
 Alpha  occ. eigenvalues --   -0.63546  -0.61892  -0.61686  -0.60658  -0.59664
 Alpha  occ. eigenvalues --   -0.59297  -0.58107  -0.57736  -0.57252  -0.56628
 Alpha  occ. eigenvalues --   -0.55991  -0.55739  -0.55517  -0.55143  -0.54419
 Alpha  occ. eigenvalues --   -0.53878  -0.53765  -0.53177  -0.53005  -0.52729
 Alpha  occ. eigenvalues --   -0.51597  -0.51128  -0.50931  -0.50659  -0.50252
 Alpha  occ. eigenvalues --   -0.49526  -0.49230  -0.49156  -0.49099  -0.48209
 Alpha  occ. eigenvalues --   -0.48122  -0.47952  -0.47873  -0.47475  -0.47316
 Alpha  occ. eigenvalues --   -0.46887  -0.46406  -0.45993  -0.45911  -0.45636
 Alpha  occ. eigenvalues --   -0.45226  -0.45099  -0.44984  -0.44471  -0.44353
 Alpha  occ. eigenvalues --   -0.43943  -0.43717  -0.42998  -0.42817  -0.42129
 Alpha  occ. eigenvalues --   -0.41962  -0.41879  -0.41657  -0.41559  -0.41153
 Alpha  occ. eigenvalues --   -0.40866  -0.40716  -0.40495  -0.40440  -0.40102
 Alpha  occ. eigenvalues --   -0.39794  -0.39594  -0.39295  -0.39080  -0.39003
 Alpha  occ. eigenvalues --   -0.38791  -0.38217  -0.38063  -0.37983  -0.36500
 Alpha  occ. eigenvalues --   -0.36239  -0.36032  -0.35301  -0.34353  -0.33778
 Alpha  occ. eigenvalues --   -0.32517  -0.31971  -0.31575  -0.31321  -0.30800
 Alpha  occ. eigenvalues --   -0.29018  -0.28032  -0.24494  -0.19904
 Alpha virt. eigenvalues --   -0.06396  -0.01262   0.02925   0.06121   0.07594
 Alpha virt. eigenvalues --    0.09079   0.09169   0.09811   0.11497   0.11665
 Alpha virt. eigenvalues --    0.11785   0.12242   0.12827   0.13118   0.13388

 Mulliken charges:
               1
     1  O   -0.519700
     2  O   -0.531070
     3  O   -0.571048
     4  O   -0.545617
     5  C    0.224846
     6  C    0.223587
     7  C    0.003846
     8  C   -0.206764
     9  C   -0.188028
    10  C    0.143029
    11  C   -0.341780
    12  C   -0.134265
    13  C   -0.284686
    14  C   -0.321588
    15  C   -0.068447
    16  C    0.039941
    17  C   -0.313832
    18  C   -0.095377
    19  C   -0.061915
    20  C   -0.031387
    21  C    0.291178
    22  C   -0.170118
    23  C    0.152350
    24  C   -0.175111
    25  C   -0.026610
    26  C   -0.277775
    27  C   -0.282501
    28  C   -0.271447
    29  C   -0.121610
    30  C    0.048972
    31  C    0.069831
    32  C   -0.246484
    33  C   -0.378998
    34  C   -0.112875
    35  C    0.130642
    36  C   -0.377408
    37  C   -0.115102
    38  C   -0.069521
    39  C   -0.116798
    40  C   -0.071714
    41  C   -0.111354
    42  C   -0.137931
    43  C    0.119574
    44  C   -0.325361
    45  H    0.093788
    46  H    0.126585
    47  H    0.093552
    48  H    0.118395
    49  H    0.077682
    50  H    0.123711
    51  H    0.095283
    52  H    0.130254
    53  H    0.098554
    54  H    0.136298
    55  H    0.109507
    56  H    0.075291
    57  H    0.130318
    58  H    0.113486
    59  H    0.082246
    60  H    0.303021
    61  H    0.054322
    62  H    0.099077
    63  H    0.125107
    64  H    0.115068
    65  H    0.074711
    66  H    0.091185
    67  H    0.086064
    68  H    0.084974
    69  H    0.065115
    70  H    0.125216
    71  H    0.093524
    72  H    0.085501
    73  H    0.120311
    74  H    0.096404
    75  H    0.110408
    76  H    0.110087
    77  H    0.092679
    78  H    0.070932
    79  H    0.076600
    80  H    0.101971
    81  H    0.070988
    82  H    0.296292
    83  H    0.298797
    84  H    0.100937
    85  H    0.138699
    86  H    0.111925
    87  H    0.116866
    88  H    0.077876
    89  H    0.104828
    90  H    0.123822
    91  H    0.120603
    92  H    0.082182
    93  H    0.089902
    94  H    0.097796
    95  H    0.079390
    96  H    0.094824
    97  H    0.048884
    98  H    0.105078
    99  H    0.078146
   100  H    0.131361
 Sum of Mulliken charges =  -0.00000

 Dipole moment (field-independent basis, Debye):
    X=             -0.3071    Y=              0.2452    Z=              3.1558  Tot=              3.1802
 Quadrupole moment (field-independent basis, Debye-Ang):
   XX=           -312.0108   YY=           -259.4374   ZZ=           -279.1549
   XY=             -2.2016   XZ=             38.5979   YZ=              0.6098

 Normal termination of Gaussian 16 at Wed Jul 31 04:44:47 2019.
