 Gaussian 16, Revision A.03,
 Gaussian 16:  ES64L-G16RevA.03 25-Dec-2016

 -------------------------------------
 # td=(NStates=1) CAM-B3LYP/6-31G(d,p)
 -------------------------------------

 --
 TD
 --
 Symbolic Z-matrix:
 Charge =  0 Multiplicity = 1

                         Standard orientation:
 ---------------------------------------------------------------------
 Center     Atomic      Atomic             Coordinates (Angstroms)
 Number     Number       Type             X           Y           Z
 ---------------------------------------------------------------------
      1          8           0      -11.608600    0.317475   -1.512606
      2          8           0      -12.899880   -2.651248    1.111943
      3          8           0       10.640545   -1.231760   -2.056242
      4          8           0       14.506468   -1.044436   -0.016927
      5          6           0      -11.052319   -0.094348   -0.383785
      6          6           0      -11.572383   -1.119212   -1.295980
      7          6           0      -11.785620    0.302049    0.930942
      8          6           0      -12.906068   -1.685154   -1.118762
      9          6           0      -13.309893   -0.222186    0.860764
     10          6           0      -13.520991   -1.624264    0.242378
     11          6           0      -10.611171   -1.895302   -2.236145
     12          6           0       -9.498327    0.187354   -0.299155
     13          6           0      -11.128078   -0.303761    2.218627
     14          6           0      -11.766769    1.817995    1.021841
     15          6           0       -8.656467   -0.626439    0.288970
     16          6           0       -7.131966   -0.442510    0.370149
     17          6           0       -6.278217   -1.576470    0.903256
     18          6           0       -6.642216    0.789654   -0.034787
     19          6           0       -5.254287    1.030067   -0.061390
     20          6           0       11.868293    0.152930    1.305258
     21          6           0       11.697600   -0.649134   -1.200799
     22          6           0       12.476563   -1.119505    1.527029
     23          6           0       13.372614   -1.762074    0.477249
     24          6           0       12.466273   -1.889251   -0.778260
     25          6           0       11.044212    0.045484   -0.019650
     26          6           0       10.935905    0.419296    2.493231
     27          6           0       12.853675    1.405128    1.199055
     28          6           0       12.546262    0.242537   -2.169750
     29          6           0       -4.818407    2.353646   -0.254390
     30          6           0        9.821845    0.479799   -0.131092
     31          6           0       -3.434282    2.624021   -0.413417
     32          6           0        8.576571    0.858295   -0.305531
     33          6           0       -2.981852    3.999812   -0.963231
     34          6           0       -2.375389    1.646582   -0.133342
     35          6           0        7.458380    0.028803   -0.047800
     36          6           0        7.787540   -1.351549    0.181106
     37          6           0        6.161915    0.553175   -0.156973
     38          6           0       -0.948790    1.861090   -0.183262
     39          6           0        4.855998    0.010045    0.000032
     40          6           0        0.023764    0.917352   -0.060072
     41          6           0        3.752912    0.759038   -0.133689
     42          6           0        1.354035    1.090246   -0.232860
     43          6           0        2.400323    0.274208   -0.089584
     44          6           0        2.177165   -1.167981    0.275759
     45          1           0      -12.999914   -2.586468   -1.282340
     46          1           0      -13.526282   -1.456648   -1.911577
     47          1           0      -13.751159   -0.119341    1.889593
     48          1           0      -13.777882    0.367445    0.093534
     49          1           0      -14.606253   -2.001302    0.212149
     50          1           0      -10.378695   -2.944908   -1.937732
     51          1           0      -10.936402   -2.104285   -3.287852
     52          1           0       -9.524131   -1.395802   -2.244742
     53          1           0       -9.131065    1.120051   -0.752911
     54          1           0      -10.213234   -0.007525    2.242179
     55          1           0      -11.548608    0.316686    3.119301
     56          1           0      -11.364149   -1.441685    2.340980
     57          1           0      -12.365726    2.246783    0.268660
     58          1           0      -12.574859    2.079139    1.763261
     59          1           0      -10.893116    2.127694    1.368284
     60          1           0      -11.766286   -2.721101    1.116826
     61          1           0       -8.981871   -1.462454    0.708238
     62          1           0       -5.643567   -1.929943    0.159822
     63          1           0       -5.554832   -1.242715    1.667390
     64          1           0       -6.760526   -2.466810    1.318436
     65          1           0       -7.530948    1.479273    0.012532
     66          1           0       -4.615817    0.150731   -0.048237
     67          1           0       13.162938   -0.831566    2.275544
     68          1           0       11.699256   -1.946181    1.925792
     69          1           0       13.514859   -2.810125    0.811576
     70          1           0       13.252874   -2.393664   -1.574562
     71          1           0       11.898677   -2.752137   -0.611235
     72          1           0       11.635610    0.711678    3.332792
     73          1           0       10.352748    1.380331    2.399137
     74          1           0        9.994678   -0.464629    2.662402
     75          1           0       13.736435    1.241434    0.453496
     76          1           0       12.333020    2.228506    1.013149
     77          1           0       13.227882    1.605190    2.288532
     78          1           0       12.791121   -0.280704   -3.037473
     79          1           0       11.998506    1.140244   -2.483797
     80          1           0       13.477770    0.661595   -1.523621
     81          1           0       -5.587717    2.984654   -0.691162
     82          1           0       10.173645   -0.417782   -2.424004
     83          1           0       14.966731   -0.589569    0.834340
     84          1           0        8.452429    1.910696   -0.440707
     85          1           0       -2.105371    4.492721   -0.171107
     86          1           0       -2.466799    3.980344   -1.835647
     87          1           0       -3.750176    4.760789   -0.935811
     88          1           0       -2.626328    0.642424    0.181791
     89          1           0        6.895373   -2.155544    0.156245
     90          1           0        8.679537   -1.695976   -0.369685
     91          1           0        8.435380   -1.419831    1.118138
     92          1           0        5.928917    1.721282   -0.324664
     93          1           0       -0.635323    2.953331   -0.434651
     94          1           0        4.712073   -1.069310    0.159386
     95          1           0       -0.547377   -0.061885    0.032160
     96          1           0        3.837673    1.895630   -0.254644
     97          1           0        1.733272    2.142076   -0.371565
     98          1           0        1.080510   -1.376172    0.618839
     99          1           0        2.426148   -1.853742   -0.417172
    100          1           0        2.907960   -1.377972    1.061441
 ---------------------------------------------------------------------

 SCF Done:  E(RCAM-B3LYP) =  -1857.29209946     A.U. after   15 cycles

 Excitation energies and oscillator strengths:

 Excited State   1:      Singlet-A      2.1523 eV  576.04 nm  f=2.7145  <S**2>=0.000
     163 ->166         0.13274
     164 ->165         0.69400
 This state for optimization and/or second-order correction.
 Total Energy, E(TD-HF/TD-DFT) =  -1857.21300238
 Copying the excited state density for this state as the 1-particle RhoCI density.

 The electronic state is 1-A.
 Alpha  occ. eigenvalues --  -19.23895 -19.22665 -19.21478 -19.20638 -10.32549
 Alpha  occ. eigenvalues --  -10.32252 -10.32171 -10.31711 -10.31105 -10.28759
 Alpha  occ. eigenvalues --  -10.28552 -10.28389 -10.27640 -10.27490 -10.27487
 Alpha  occ. eigenvalues --  -10.27305 -10.27022 -10.27019 -10.26817 -10.26813
 Alpha  occ. eigenvalues --  -10.26788 -10.26708 -10.26586 -10.26550 -10.26415
 Alpha  occ. eigenvalues --  -10.26346 -10.26322 -10.26245 -10.26215 -10.26124
 Alpha  occ. eigenvalues --  -10.26034 -10.26033 -10.25984 -10.25982 -10.25743
 Alpha  occ. eigenvalues --  -10.25647 -10.25276 -10.25206 -10.25110 -10.25023
 Alpha  occ. eigenvalues --  -10.24562 -10.24532 -10.23450 -10.23206  -1.18947
 Alpha  occ. eigenvalues --   -1.09227  -1.07329  -1.05021  -0.94103  -0.92462
 Alpha  occ. eigenvalues --   -0.91941  -0.91427  -0.90245  -0.89491  -0.88570
 Alpha  occ. eigenvalues --   -0.87690  -0.85782  -0.85548  -0.84721  -0.83439
 Alpha  occ. eigenvalues --   -0.81811  -0.80723  -0.80422  -0.78326  -0.77285
 Alpha  occ. eigenvalues --   -0.77166  -0.76897  -0.76661  -0.76399  -0.75847
 Alpha  occ. eigenvalues --   -0.75348  -0.73727  -0.73034  -0.70703  -0.70165
 Alpha  occ. eigenvalues --   -0.68663  -0.67079  -0.66331  -0.65479  -0.64633
 Alpha  occ. eigenvalues --   -0.63466  -0.61619  -0.60378  -0.60128  -0.59823
 Alpha  occ. eigenvalues --   -0.58917  -0.58163  -0.57861  -0.57625  -0.56011
 Alpha  occ. eigenvalues --   -0.55926  -0.55505  -0.55244  -0.54608  -0.54095
 Alpha  occ. eigenvalues --   -0.53723  -0.53506  -0.53226  -0.52830  -0.52139
 Alpha  occ. eigenvalues --   -0.51684  -0.51387  -0.50953  -0.50751  -0.50276
 Alpha  occ. eigenvalues --   -0.49301  -0.48937  -0.48445  -0.48261  -0.48170
 Alpha  occ. eigenvalues --   -0.47826  -0.47494  -0.47361  -0.47109  -0.46584
 Alpha  occ. eigenvalues --   -0.46412  -0.46105  -0.46083  -0.45936  -0.45717
 Alpha  occ. eigenvalues --   -0.45555  -0.45409  -0.44798  -0.44241  -0.43631
 Alpha  occ. eigenvalues --   -0.43309  -0.43193  -0.43070  -0.42906  -0.42550
 Alpha  occ. eigenvalues --   -0.42283  -0.41945  -0.41775  -0.41673  -0.40935
 Alpha  occ. eigenvalues --   -0.40903  -0.40493  -0.40205  -0.40110  -0.39564
 Alpha  occ. eigenvalues --   -0.39502  -0.39457  -0.39089  -0.38974  -0.38870
 Alpha  occ. eigenvalues --   -0.38626  -0.38121  -0.37917  -0.37441  -0.37229
 Alpha  occ. eigenvalues --   -0.36331  -0.35820  -0.35362  -0.34325  -0.33900
 Alpha  occ. eigenvalues --   -0.33614  -0.32135  -0.31962  -0.31572  -0.31039
 Alpha  occ. eigenvalues --   -0.30158  -0.28009  -0.24134  -0.19550
 Alpha virt. eigenvalues --   -0.05819  -0.00810   0.03398   0.06550   0.07075
 Alpha virt. eigenvalues --    0.07399   0.08357   0.10622   0.10999   0.12277
 Alpha virt. eigenvalues --    0.12580   0.12836   0.13332   0.13881   0.14027

 Mulliken charges:
               1
     1  O   -0.483844
     2  O   -0.577383
     3  O   -0.565855
     4  O   -0.540283
     5  C    0.248004
     6  C    0.214370
     7  C    0.001926
     8  C   -0.179312
     9  C   -0.192333
    10  C    0.146074
    11  C   -0.353472
    12  C   -0.144849
    13  C   -0.305966
    14  C   -0.307755
    15  C   -0.038179
    16  C    0.060604
    17  C   -0.396227
    18  C   -0.114273
    19  C   -0.065995
    20  C    0.023810
    21  C    0.248440
    22  C   -0.168309
    23  C    0.150419
    24  C   -0.185689
    25  C   -0.092704
    26  C   -0.295156
    27  C   -0.316262
    28  C   -0.299147
    29  C   -0.139367
    30  C    0.155218
    31  C    0.082170
    32  C   -0.274916
    33  C   -0.364402
    34  C   -0.126792
    35  C    0.165999
    36  C   -0.409963
    37  C   -0.137424
    38  C   -0.071378
    39  C   -0.071459
    40  C   -0.081296
    41  C   -0.118402
    42  C   -0.133762
    43  C    0.135983
    44  C   -0.380664
    45  H    0.114398
    46  H    0.118923
    47  H    0.099660
    48  H    0.101312
    49  H    0.102663
    50  H    0.105363
    51  H    0.115460
    52  H    0.115729
    53  H    0.102881
    54  H    0.117826
    55  H    0.084720
    56  H    0.088942
    57  H    0.126061
    58  H    0.092141
    59  H    0.113028
    60  H    0.296667
    61  H    0.060835
    62  H    0.137835
    63  H    0.128210
    64  H    0.114668
    65  H    0.094930
    66  H    0.103060
    67  H    0.076899
    68  H    0.098996
    69  H    0.085844
    70  H    0.089917
    71  H    0.114821
    72  H    0.095410
    73  H    0.107499
    74  H    0.085257
    75  H    0.109963
    76  H    0.131563
    77  H    0.080351
    78  H    0.131032
    79  H    0.087755
    80  H    0.100692
    81  H    0.104005
    82  H    0.303679
    83  H    0.303825
    84  H    0.109880
    85  H    0.080053
    86  H    0.144865
    87  H    0.113765
    88  H    0.070010
    89  H    0.098899
    90  H    0.154136
    91  H    0.103306
    92  H    0.062730
    93  H    0.067909
    94  H    0.080249
    95  H    0.074895
    96  H    0.078742
    97  H    0.070333
    98  H    0.099803
    99  H    0.132301
   100  H    0.115109
 Sum of Mulliken charges =  -0.00000

 Dipole moment (field-independent basis, Debye):
    X=              1.4012    Y=              0.4028    Z=              1.6457  Tot=              2.1986
 Quadrupole moment (field-independent basis, Debye-Ang):
   XX=           -255.8960   YY=           -261.4687   ZZ=           -276.9318
   XY=             16.6757   XZ=             36.4728   YZ=             -1.6915

 Normal termination of Gaussian 16 at Mon Jul 29 03:47:29 2019.
