 Gaussian 16, Revision A.03,
 Gaussian 16:  ES64L-G16RevA.03 25-Dec-2016

 -------------------------------------
 # td=(NStates=1) CAM-B3LYP/6-31G(d,p)
 -------------------------------------

 --
 TD
 --
 Symbolic Z-matrix:
 Charge =  0 Multiplicity = 1

                         Standard orientation:
 ---------------------------------------------------------------------
 Center     Atomic      Atomic             Coordinates (Angstroms)
 Number     Number       Type             X           Y           Z
 ---------------------------------------------------------------------
      1          8           0      -11.704980    0.277979   -1.400043
      2          8           0      -12.996105   -2.622131    1.329490
      3          8           0       10.481662   -1.176752   -2.027106
      4          8           0       14.462337   -0.863977   -0.221438
      5          6           0      -10.966455   -0.105460   -0.335081
      6          6           0      -11.611593   -1.119447   -1.274112
      7          6           0      -11.780829    0.238246    1.048036
      8          6           0      -12.924939   -1.834461   -0.954910
      9          6           0      -13.273835   -0.164374    0.927620
     10          6           0      -13.531750   -1.634249    0.418280
     11          6           0      -10.806813   -1.988530   -2.211428
     12          6           0       -9.511646    0.117437   -0.477111
     13          6           0      -11.150641   -0.167591    2.334891
     14          6           0      -11.666687    1.824023    0.965764
     15          6           0       -8.543790   -0.684627    0.058010
     16          6           0       -7.152743   -0.468552    0.047304
     17          6           0       -6.270924   -1.718873    0.449123
     18          6           0       -6.577921    0.740846   -0.233973
     19          6           0       -5.204716    1.097591   -0.133981
     20          6           0       11.918726   -0.121603    1.313742
     21          6           0       11.536531   -0.621256   -1.224157
     22          6           0       12.708203   -1.396327    1.384201
     23          6           0       13.331772   -1.840004    0.114722
     24          6           0       12.349083   -1.838615   -1.035179
     25          6           0       11.034595   -0.043667    0.060385
     26          6           0       11.116086    0.237218    2.576719
     27          6           0       12.962617    1.224533    1.139305
     28          6           0       12.381707    0.456765   -2.034897
     29          6           0       -4.732205    2.371953   -0.408404
     30          6           0        9.760400    0.362757   -0.063255
     31          6           0       -3.381611    2.595549   -0.524344
     32          6           0        8.579101    0.922067    0.034195
     33          6           0       -3.020751    4.081459   -0.733313
     34          6           0       -2.333290    1.765665   -0.255045
     35          6           0        7.417199    0.089214    0.134335
     36          6           0        7.679183   -1.307171    0.372462
     37          6           0        6.164427    0.740595    0.117946
     38          6           0       -0.898716    1.955458   -0.285916
     39          6           0        4.890276    0.200980    0.144507
     40          6           0        0.020207    0.926267   -0.131526
     41          6           0        3.784719    0.839048   -0.071101
     42          6           0        1.404365    1.257903   -0.160621
     43          6           0        2.408017    0.281255   -0.028863
     44          6           0        2.188344   -1.069986    0.300947
     45          1           0      -12.928123   -2.889889   -1.049598
     46          1           0      -13.663891   -1.289348   -1.506573
     47          1           0      -13.616655    0.066255    1.795515
     48          1           0      -13.763639    0.644438    0.333528
     49          1           0      -14.671120   -1.835440    0.568825
     50          1           0      -10.249801   -2.773516   -1.696158
     51          1           0      -11.248680   -2.559240   -2.994893
     52          1           0      -10.020763   -1.518300   -2.808981
     53          1           0       -9.030291    1.018066   -0.825489
     54          1           0      -10.124222    0.157588    2.540972
     55          1           0      -11.737638    0.215733    3.394525
     56          1           0      -11.111419   -1.375902    2.366334
     57          1           0      -12.232797    2.334438    0.048045
     58          1           0      -12.098050    2.069160    1.927618
     59          1           0      -10.687767    1.895493    1.024726
     60          1           0      -12.055567   -2.764606    1.170578
     61          1           0       -8.849190   -1.665467    0.412471
     62          1           0       -5.566169   -1.773131   -0.485213
     63          1           0       -5.554750   -1.477735    1.236037
     64          1           0       -6.922510   -2.478473    0.708350
     65          1           0       -7.442162    1.366505   -0.566895
     66          1           0       -4.487946    0.291760   -0.101513
     67          1           0       13.499116   -1.153888    2.222232
     68          1           0       12.279018   -2.206310    1.848943
     69          1           0       13.866245   -2.878600    0.508918
     70          1           0       12.841278   -2.339888   -2.004741
     71          1           0       11.640008   -2.773201   -0.651077
     72          1           0       11.853305    0.435755    3.476073
     73          1           0       10.785632    1.176568    2.566031
     74          1           0       10.237548   -0.624962    2.820097
     75          1           0       13.552870    1.038563    0.422649
     76          1           0       12.348507    2.101452    1.196434
     77          1           0       13.615364    1.077704    2.072048
     78          1           0       12.732271   -0.052815   -2.802680
     79          1           0       11.547341    1.237814   -2.276756
     80          1           0       13.132899    0.989596   -1.523150
     81          1           0       -5.578108    3.292780   -0.479187
     82          1           0        9.998387   -0.503050   -2.383190
     83          1           0       15.090122   -0.850232    0.558123
     84          1           0        8.396815    2.076358    0.022610
     85          1           0       -2.307266    4.380233    0.156038
     86          1           0       -2.561533    4.104300   -1.731685
     87          1           0       -3.916128    4.939538   -0.634920
     88          1           0       -2.448006    0.640016   -0.151596
     89          1           0        6.772113   -1.886133    0.031208
     90          1           0        8.459510   -1.702502   -0.390943
     91          1           0        8.170978   -1.592810    1.180236
     92          1           0        6.135100    1.699970   -0.025402
     93          1           0       -0.485331    3.091351   -0.467049
     94          1           0        5.065369   -0.994632    0.258746
     95          1           0       -0.364176    0.006708    0.078845
     96          1           0        3.917617    1.956129   -0.008898
     97          1           0        1.651855    2.160366   -0.196462
     98          1           0        1.260341   -1.515168    0.385080
     99          1           0        2.589814   -1.617720   -0.437425
    100          1           0        2.578768   -1.504822    1.229740
 ---------------------------------------------------------------------

 SCF Done:  E(RCAM-B3LYP) =  -1857.22567224     A.U. after   15 cycles

 Excitation energies and oscillator strengths:

 Excited State   1:      Singlet-A      2.2771 eV  544.48 nm  f=2.9202  <S**2>=0.000
     163 ->166         0.14549
     164 ->165         0.68899
 This state for optimization and/or second-order correction.
 Total Energy, E(TD-HF/TD-DFT) =  -1857.14199010
 Copying the excited state density for this state as the 1-particle RhoCI density.

 The electronic state is 1-A.
 Alpha  occ. eigenvalues --  -19.23081 -19.21517 -19.21083 -19.20538 -10.32985
 Alpha  occ. eigenvalues --  -10.32663 -10.32348 -10.32064 -10.31445 -10.29114
 Alpha  occ. eigenvalues --  -10.27687 -10.27683 -10.27638 -10.27630 -10.27567
 Alpha  occ. eigenvalues --  -10.27238 -10.27215 -10.27158 -10.27095 -10.27072
 Alpha  occ. eigenvalues --  -10.27071 -10.26990 -10.26609 -10.26567 -10.26498
 Alpha  occ. eigenvalues --  -10.26433 -10.26376 -10.26210 -10.26120 -10.26066
 Alpha  occ. eigenvalues --  -10.26012 -10.25968 -10.25921 -10.25667 -10.25182
 Alpha  occ. eigenvalues --  -10.25051 -10.24724 -10.24354 -10.24320 -10.24217
 Alpha  occ. eigenvalues --  -10.24048 -10.23705 -10.23638 -10.23633  -1.18864
 Alpha  occ. eigenvalues --   -1.11352  -1.08382  -1.06596  -0.93383  -0.92671
 Alpha  occ. eigenvalues --   -0.92278  -0.91398  -0.90812  -0.89785  -0.87898
 Alpha  occ. eigenvalues --   -0.87063  -0.86376  -0.86043  -0.84834  -0.84215
 Alpha  occ. eigenvalues --   -0.82073  -0.80908  -0.80861  -0.79146  -0.77521
 Alpha  occ. eigenvalues --   -0.76973  -0.76928  -0.76708  -0.76087  -0.75935
 Alpha  occ. eigenvalues --   -0.74916  -0.73676  -0.73157  -0.70280  -0.69942
 Alpha  occ. eigenvalues --   -0.68439  -0.67041  -0.66145  -0.65759  -0.65144
 Alpha  occ. eigenvalues --   -0.63549  -0.63074  -0.61193  -0.60625  -0.60086
 Alpha  occ. eigenvalues --   -0.58351  -0.58105  -0.57931  -0.57389  -0.56805
 Alpha  occ. eigenvalues --   -0.56177  -0.55360  -0.55084  -0.54628  -0.54141
 Alpha  occ. eigenvalues --   -0.54088  -0.53159  -0.52935  -0.52767  -0.52025
 Alpha  occ. eigenvalues --   -0.51444  -0.51044  -0.50727  -0.50475  -0.49953
 Alpha  occ. eigenvalues --   -0.49759  -0.49625  -0.49485  -0.48976  -0.48860
 Alpha  occ. eigenvalues --   -0.48640  -0.48102  -0.47782  -0.47647  -0.47161
 Alpha  occ. eigenvalues --   -0.46876  -0.46464  -0.46217  -0.45902  -0.45457
 Alpha  occ. eigenvalues --   -0.45142  -0.45016  -0.44478  -0.44298  -0.43723
 Alpha  occ. eigenvalues --   -0.43120  -0.42977  -0.42765  -0.42699  -0.42380
 Alpha  occ. eigenvalues --   -0.42079  -0.41876  -0.41638  -0.41622  -0.40948
 Alpha  occ. eigenvalues --   -0.40852  -0.40739  -0.40358  -0.40239  -0.39987
 Alpha  occ. eigenvalues --   -0.39553  -0.39325  -0.39178  -0.39091  -0.38421
 Alpha  occ. eigenvalues --   -0.38232  -0.37751  -0.37510  -0.37318  -0.36562
 Alpha  occ. eigenvalues --   -0.36490  -0.36353  -0.35727  -0.35026  -0.33681
 Alpha  occ. eigenvalues --   -0.33034  -0.32608  -0.32579  -0.31654  -0.29816
 Alpha  occ. eigenvalues --   -0.28440  -0.27413  -0.23948  -0.19905
 Alpha virt. eigenvalues --   -0.05479  -0.00908   0.03012   0.05734   0.07044
 Alpha virt. eigenvalues --    0.09198   0.09955   0.11100   0.11767   0.12048
 Alpha virt. eigenvalues --    0.12648   0.12878   0.12951   0.13783   0.13886

 Mulliken charges:
               1
     1  O   -0.479179
     2  O   -0.557530
     3  O   -0.537765
     4  O   -0.569968
     5  C    0.203117
     6  C    0.248409
     7  C    0.000249
     8  C   -0.220297
     9  C   -0.163498
    10  C    0.149258
    11  C   -0.368238
    12  C   -0.117234
    13  C   -0.292876
    14  C   -0.297628
    15  C   -0.075350
    16  C    0.065321
    17  C   -0.361930
    18  C   -0.093490
    19  C   -0.086941
    20  C    0.013137
    21  C    0.224339
    22  C   -0.181737
    23  C    0.146000
    24  C   -0.173401
    25  C   -0.023674
    26  C   -0.282601
    27  C   -0.306119
    28  C   -0.280623
    29  C   -0.103926
    30  C    0.090878
    31  C    0.086925
    32  C   -0.247853
    33  C   -0.361163
    34  C   -0.125073
    35  C    0.109016
    36  C   -0.390315
    37  C   -0.087091
    38  C   -0.086549
    39  C   -0.039526
    40  C   -0.074951
    41  C   -0.153703
    42  C   -0.076912
    43  C    0.109011
    44  C   -0.387695
    45  H    0.117588
    46  H    0.127954
    47  H    0.101947
    48  H    0.096067
    49  H    0.093057
    50  H    0.110156
    51  H    0.118623
    52  H    0.121739
    53  H    0.095013
    54  H    0.116992
    55  H    0.078769
    56  H    0.071590
    57  H    0.110204
    58  H    0.093833
    59  H    0.110184
    60  H    0.298676
    61  H    0.066142
    62  H    0.116568
    63  H    0.127487
    64  H    0.110254
    65  H    0.063733
    66  H    0.088877
    67  H    0.072036
    68  H    0.113061
    69  H    0.070007
    70  H    0.112863
    71  H    0.092020
    72  H    0.075493
    73  H    0.123969
    74  H    0.080620
    75  H    0.142487
    76  H    0.110503
    77  H    0.072063
    78  H    0.121307
    79  H    0.070962
    80  H    0.136484
    81  H    0.091709
    82  H    0.293011
    83  H    0.303668
    84  H    0.102523
    85  H    0.113898
    86  H    0.130449
    87  H    0.085519
    88  H    0.068223
    89  H    0.100706
    90  H    0.128677
    91  H    0.136271
    92  H    0.046915
    93  H    0.071410
    94  H    0.057718
    95  H    0.083742
    96  H    0.084712
    97  H    0.055902
    98  H    0.114357
    99  H    0.134826
   100  H    0.125615
 Sum of Mulliken charges =  -0.00000

 Dipole moment (field-independent basis, Debye):
    X=              3.8919    Y=             -0.7572    Z=              1.4005  Tot=              4.2049
 Quadrupole moment (field-independent basis, Debye-Ang):
   XX=           -273.3975   YY=           -260.3069   ZZ=           -276.1087
   XY=             -0.7378   XZ=             31.9700   YZ=              0.1671

 Normal termination of Gaussian 16 at Fri Aug  2 10:40:42 2019.
