 Gaussian 16, Revision A.03,
 Gaussian 16:  ES64L-G16RevA.03 25-Dec-2016

 -------------------------------------
 # td=(NStates=1) CAM-B3LYP/6-31G(d,p)
 -------------------------------------

 --
 TD
 --
 Symbolic Z-matrix:
 Charge =  0 Multiplicity = 1

                         Standard orientation:
 ---------------------------------------------------------------------
 Center     Atomic      Atomic             Coordinates (Angstroms)
 Number     Number       Type             X           Y           Z
 ---------------------------------------------------------------------
      1          8           0      -11.641773    0.340242   -1.506412
      2          8           0      -13.158337   -2.549100    1.304088
      3          8           0       10.567007   -1.128088   -1.947074
      4          8           0       14.524856   -1.162959   -0.210205
      5          6           0      -11.036823   -0.073383   -0.339903
      6          6           0      -11.520998   -1.118279   -1.206027
      7          6           0      -11.805348    0.343120    0.924625
      8          6           0      -12.950218   -1.720709   -1.061134
      9          6           0      -13.386359   -0.123574    0.808171
     10          6           0      -13.602943   -1.550577    0.285144
     11          6           0      -10.637699   -1.722224   -2.292704
     12          6           0       -9.536661    0.202660   -0.290885
     13          6           0      -11.158649   -0.164261    2.235254
     14          6           0      -11.878703    1.964441    0.979873
     15          6           0       -8.633771   -0.892303    0.086012
     16          6           0       -7.172520   -0.683655    0.167377
     17          6           0       -6.382919   -1.944710    0.408045
     18          6           0       -6.547607    0.526746    0.050916
     19          6           0       -5.222463    0.806062   -0.079636
     20          6           0       11.940672    0.211399    1.293198
     21          6           0       11.697883   -0.653498   -1.255916
     22          6           0       12.645649   -1.182775    1.450731
     23          6           0       13.394003   -1.833871    0.250594
     24          6           0       12.433568   -1.961423   -0.837536
     25          6           0       11.162397    0.103515   -0.007299
     26          6           0       11.042001    0.432270    2.487018
     27          6           0       12.969858    1.279053    1.150285
     28          6           0       12.552423    0.258233   -2.245442
     29          6           0       -4.753518    2.161258   -0.260952
     30          6           0        9.887201    0.474104   -0.132018
     31          6           0       -3.436573    2.545205   -0.434981
     32          6           0        8.684326    0.947597   -0.182081
     33          6           0       -3.025041    3.940370   -0.871488
     34          6           0       -2.318391    1.654072   -0.124383
     35          6           0        7.382192    0.227866    0.060180
     36          6           0        7.598776   -1.286734    0.352318
     37          6           0        6.214294    0.743768   -0.011272
     38          6           0       -0.956310    1.880830   -0.306224
     39          6           0        4.890364    0.100500    0.085968
     40          6           0        0.061588    0.995630    0.024471
     41          6           0        3.806660    0.856299   -0.047443
     42          6           0        1.466933    1.245642   -0.253854
     43          6           0        2.490376    0.396961    0.221819
     44          6           0        2.281318   -0.997092    0.619772
     45          1           0      -12.979184   -2.734738   -1.407388
     46          1           0      -13.576842   -1.129977   -1.666707
     47          1           0      -14.044223    0.103135    1.602679
     48          1           0      -13.904425    0.668254   -0.036193
     49          1           0      -14.649864   -1.911746    0.268763
     50          1           0      -10.360673   -2.726331   -2.025814
     51          1           0      -11.122753   -2.006477   -3.128909
     52          1           0       -9.736339   -1.107203   -2.464100
     53          1           0       -9.137486    1.269664   -0.346982
     54          1           0      -10.151410    0.173071    2.394215
     55          1           0      -11.876958   -0.067766    3.066710
     56          1           0      -11.017756   -1.252034    2.188946
     57          1           0      -12.242216    2.413004   -0.011869
     58          1           0      -12.569765    2.238425    1.721379
     59          1           0      -10.849580    2.434498    1.130801
     60          1           0      -12.091425   -2.388524    1.383083
     61          1           0       -8.942637   -1.941610    0.399630
     62          1           0       -5.889000   -2.417025   -0.427609
     63          1           0       -5.625107   -1.929963    1.144023
     64          1           0       -7.227395   -2.738093    0.694527
     65          1           0       -7.477561    1.176090   -0.180590
     66          1           0       -4.635034    0.096559    0.078978
     67          1           0       13.241280   -1.167314    2.257369
     68          1           0       11.816485   -2.072426    1.545276
     69          1           0       13.600567   -2.865898    0.651649
     70          1           0       12.804545   -2.405851   -1.694737
     71          1           0       11.814471   -2.643619   -0.471136
     72          1           0       11.553353   -0.101030    3.335503
     73          1           0       10.708316    1.540541    2.750750
     74          1           0       10.055775   -0.172430    2.300449
     75          1           0       13.766264    1.126732    0.376838
     76          1           0       12.550187    2.324206    0.993434
     77          1           0       13.528510    1.267575    2.178444
     78          1           0       12.847037   -0.316952   -3.120534
     79          1           0       12.242541    1.160297   -2.680754
     80          1           0       13.261037    0.389667   -1.536553
     81          1           0       -5.681747    2.886387   -0.310120
     82          1           0       10.026508   -0.373580   -2.178030
     83          1           0       15.197243   -1.013239    0.519424
     84          1           0        8.667280    2.017481   -0.575998
     85          1           0       -2.424263    4.384897    0.000388
     86          1           0       -2.409985    3.857390   -1.779390
     87          1           0       -3.842103    4.447631   -1.317404
     88          1           0       -2.808639    0.643444    0.221076
     89          1           0        6.666109   -1.741126    0.105700
     90          1           0        8.412982   -1.670456   -0.309187
     91          1           0        7.887662   -1.650171    1.344731
     92          1           0        6.273325    1.756066   -0.229041
     93          1           0       -0.566977    2.815874   -0.521419
     94          1           0        4.720091   -0.898014    0.529570
     95          1           0       -0.253209    0.080085    0.750122
     96          1           0        3.673593    1.833775   -0.304442
     97          1           0        1.766743    2.269174   -0.790104
     98          1           0        1.187955   -1.270605    0.529114
     99          1           0        2.917179   -1.629193   -0.047788
    100          1           0        2.739695   -1.362481    1.772495
 ---------------------------------------------------------------------

 SCF Done:  E(RCAM-B3LYP) =  -1857.33942226     A.U. after   15 cycles

 Excitation energies and oscillator strengths:

 Excited State   1:      Singlet-A      1.9751 eV  627.75 nm  f=2.4604  <S**2>=0.000
     163 ->166         0.10841
     164 ->165         0.70687
     164 <-165        -0.12828
 This state for optimization and/or second-order correction.
 Total Energy, E(TD-HF/TD-DFT) =  -1857.26684025
 Copying the excited state density for this state as the 1-particle RhoCI density.

 The electronic state is 1-A.
 Alpha  occ. eigenvalues --  -19.22710 -19.21270 -19.20872 -19.19659 -10.32263
 Alpha  occ. eigenvalues --  -10.32201 -10.32020 -10.31083 -10.30694 -10.29246
 Alpha  occ. eigenvalues --  -10.29131 -10.28653 -10.28559 -10.28439 -10.28121
 Alpha  occ. eigenvalues --  -10.28066 -10.28013 -10.27961 -10.27617 -10.27579
 Alpha  occ. eigenvalues --  -10.27408 -10.27109 -10.26890 -10.26780 -10.26652
 Alpha  occ. eigenvalues --  -10.26534 -10.26502 -10.26374 -10.26302 -10.26165
 Alpha  occ. eigenvalues --  -10.25938 -10.25929 -10.25852 -10.25828 -10.25723
 Alpha  occ. eigenvalues --  -10.25447 -10.25395 -10.25270 -10.24939 -10.24641
 Alpha  occ. eigenvalues --  -10.24282 -10.24132 -10.23001 -10.22524  -1.15578
 Alpha  occ. eigenvalues --   -1.10769  -1.09639  -1.05026  -0.93244  -0.92845
 Alpha  occ. eigenvalues --   -0.92228  -0.90709  -0.90139  -0.88844  -0.87514
 Alpha  occ. eigenvalues --   -0.87147  -0.86506  -0.85394  -0.84405  -0.82722
 Alpha  occ. eigenvalues --   -0.82268  -0.80865  -0.80358  -0.77939  -0.76852
 Alpha  occ. eigenvalues --   -0.76778  -0.76588  -0.76360  -0.76139  -0.75601
 Alpha  occ. eigenvalues --   -0.75377  -0.74476  -0.73432  -0.70841  -0.69647
 Alpha  occ. eigenvalues --   -0.68916  -0.67563  -0.65870  -0.65172  -0.64669
 Alpha  occ. eigenvalues --   -0.63868  -0.62459  -0.60817  -0.60448  -0.59480
 Alpha  occ. eigenvalues --   -0.58539  -0.58029  -0.57999  -0.57404  -0.56917
 Alpha  occ. eigenvalues --   -0.55917  -0.55054  -0.54543  -0.54423  -0.54115
 Alpha  occ. eigenvalues --   -0.53542  -0.52870  -0.52671  -0.52445  -0.51717
 Alpha  occ. eigenvalues --   -0.51014  -0.50613  -0.50233  -0.49815  -0.49331
 Alpha  occ. eigenvalues --   -0.48855  -0.48812  -0.48512  -0.48441  -0.48179
 Alpha  occ. eigenvalues --   -0.48097  -0.47525  -0.47280  -0.46999  -0.46915
 Alpha  occ. eigenvalues --   -0.46821  -0.46413  -0.46188  -0.46070  -0.45887
 Alpha  occ. eigenvalues --   -0.45196  -0.45114  -0.44611  -0.44437  -0.44210
 Alpha  occ. eigenvalues --   -0.43642  -0.43250  -0.43214  -0.43049  -0.42818
 Alpha  occ. eigenvalues --   -0.42691  -0.42388  -0.42195  -0.41901  -0.41653
 Alpha  occ. eigenvalues --   -0.40814  -0.40521  -0.40144  -0.40100  -0.39981
 Alpha  occ. eigenvalues --   -0.39889  -0.39527  -0.39178  -0.38693  -0.38643
 Alpha  occ. eigenvalues --   -0.38301  -0.37940  -0.37662  -0.37225  -0.37140
 Alpha  occ. eigenvalues --   -0.36936  -0.36343  -0.35240  -0.34780  -0.34044
 Alpha  occ. eigenvalues --   -0.32660  -0.31773  -0.31472  -0.31286  -0.31008
 Alpha  occ. eigenvalues --   -0.28650  -0.28398  -0.25203  -0.19442
 Alpha virt. eigenvalues --   -0.06991  -0.00633   0.03087   0.06112   0.06606
 Alpha virt. eigenvalues --    0.08923   0.09562   0.09731   0.11711   0.11918
 Alpha virt. eigenvalues --    0.12281   0.13034   0.13563   0.13861   0.14016

 Mulliken charges:
               1
     1  O   -0.502624
     2  O   -0.571794
     3  O   -0.560106
     4  O   -0.539220
     5  C    0.279978
     6  C    0.167907
     7  C    0.011000
     8  C   -0.191341
     9  C   -0.191148
    10  C    0.134099
    11  C   -0.323518
    12  C   -0.157547
    13  C   -0.301524
    14  C   -0.316658
    15  C   -0.092323
    16  C    0.065949
    17  C   -0.381398
    18  C   -0.070951
    19  C   -0.032207
    20  C    0.055770
    21  C    0.233338
    22  C   -0.197995
    23  C    0.145703
    24  C   -0.158527
    25  C   -0.074086
    26  C   -0.305443
    27  C   -0.304520
    28  C   -0.314596
    29  C   -0.135369
    30  C    0.167064
    31  C    0.078889
    32  C   -0.324930
    33  C   -0.369065
    34  C   -0.105051
    35  C    0.123428
    36  C   -0.388129
    37  C   -0.105920
    38  C   -0.086298
    39  C   -0.129228
    40  C   -0.091321
    41  C   -0.041125
    42  C   -0.150485
    43  C    0.125446
    44  C   -0.374728
    45  H    0.106713
    46  H    0.138798
    47  H    0.110904
    48  H    0.072551
    49  H    0.104716
    50  H    0.094876
    51  H    0.122175
    52  H    0.132144
    53  H    0.123655
    54  H    0.121679
    55  H    0.118058
    56  H    0.068303
    57  H    0.117560
    58  H    0.113575
    59  H    0.089835
    60  H    0.293266
    61  H    0.095062
    62  H    0.128866
    63  H    0.126893
    64  H    0.077374
    65  H    0.046493
    66  H    0.060086
    67  H    0.085168
    68  H    0.078851
    69  H    0.075054
    70  H    0.115178
    71  H    0.117075
    72  H    0.096489
    73  H    0.100760
    74  H    0.107674
    75  H    0.120515
    76  H    0.104249
    77  H    0.073074
    78  H    0.107099
    79  H    0.099830
    80  H    0.131249
    81  H    0.089951
    82  H    0.299171
    83  H    0.310201
    84  H    0.100147
    85  H    0.127260
    86  H    0.125061
    87  H    0.112645
    88  H    0.069165
    89  H    0.105383
    90  H    0.130327
    91  H    0.114088
    92  H    0.072970
    93  H    0.090360
    94  H    0.098937
    95  H    0.090075
    96  H    0.070599
    97  H    0.090376
    98  H    0.111232
    99  H    0.132751
   100  H    0.084058
 Sum of Mulliken charges =  -0.00000

 Dipole moment (field-independent basis, Debye):
    X=              3.5809    Y=              0.6974    Z=              1.6528  Tot=              4.0051
 Quadrupole moment (field-independent basis, Debye-Ang):
   XX=           -271.0406   YY=           -262.7230   ZZ=           -276.4349
   XY=             -2.5214   XZ=             29.5513   YZ=             -3.1737

 Normal termination of Gaussian 16 at Mon Jul 29 05:32:36 2019.
