 Gaussian 16, Revision A.03,
 Gaussian 16:  ES64L-G16RevA.03 25-Dec-2016

 -------------------------------------
 # td=(NStates=1) CAM-B3LYP/6-31G(d,p)
 -------------------------------------

 --
 TD
 --
 Symbolic Z-matrix:
 Charge =  0 Multiplicity = 1

                         Standard orientation:
 ---------------------------------------------------------------------
 Center     Atomic      Atomic             Coordinates (Angstroms)
 Number     Number       Type             X           Y           Z
 ---------------------------------------------------------------------
      1          8           0      -11.746169    0.214886   -1.582177
      2          8           0      -13.185454   -2.051745    1.773110
      3          8           0       10.583980   -1.072310   -2.154073
      4          8           0       14.545303   -0.840065   -0.237806
      5          6           0      -11.016349   -0.125710   -0.358089
      6          6           0      -11.720128   -1.283205   -1.129074
      7          6           0      -11.769397    0.573224    0.795546
      8          6           0      -13.078298   -1.820746   -0.711965
      9          6           0      -13.138607    0.214254    0.842954
     10          6           0      -13.568250   -1.174407    0.678548
     11          6           0      -10.968237   -2.131088   -1.974338
     12          6           0       -9.611649   -0.050867   -0.408070
     13          6           0      -10.988417    0.232640    2.207610
     14          6           0      -11.710398    2.127249    0.784370
     15          6           0       -8.730136   -0.921036    0.074137
     16          6           0       -7.284306   -0.653367    0.113289
     17          6           0       -6.396957   -1.931608    0.310117
     18          6           0       -6.607871    0.576925   -0.173671
     19          6           0       -5.297833    0.729770   -0.144517
     20          6           0       12.043847    0.148509    1.304402
     21          6           0       11.673270   -0.666199   -1.232741
     22          6           0       12.916621   -1.064747    1.475465
     23          6           0       13.538674   -1.617919    0.239051
     24          6           0       12.488418   -1.940219   -0.894799
     25          6           0       11.128432    0.000349    0.090150
     26          6           0       11.130597    0.338417    2.449178
     27          6           0       12.922501    1.427833    1.211266
     28          6           0       12.510118    0.460444   -2.011646
     29          6           0       -4.722436    2.035174   -0.341296
     30          6           0        9.920608    0.504088    0.058820
     31          6           0       -3.405372    2.337192   -0.496454
     32          6           0        8.636085    0.922390    0.007123
     33          6           0       -3.007656    3.709802   -1.023029
     34          6           0       -2.386524    1.400637   -0.403589
     35          6           0        7.418868    0.084560    0.174844
     36          6           0        7.642644   -1.340878    0.536415
     37          6           0        6.216220    0.678747   -0.037883
     38          6           0       -1.113750    1.604342   -0.493076
     39          6           0        4.898796    0.048747    0.134361
     40          6           0       -0.049796    0.695786   -0.233524
     41          6           0        3.763423    0.732725   -0.148793
     42          6           0        1.376318    1.034276   -0.258118
     43          6           0        2.392595    0.221449    0.101774
     44          6           0        2.294445   -1.226084    0.368814
     45          1           0      -13.052344   -2.845514   -0.621772
     46          1           0      -13.830503   -1.463859   -1.383386
     47          1           0      -13.609892    0.654241    1.626212
     48          1           0      -13.555832    0.868042    0.024896
     49          1           0      -14.822620   -1.168542    0.695745
     50          1           0      -10.768826   -3.027841   -1.644319
     51          1           0      -11.525720   -2.509126   -2.892623
     52          1           0      -10.071082   -1.777056   -2.516646
     53          1           0       -9.240233    0.937796   -0.744651
     54          1           0       -9.984066    0.558645    2.248281
     55          1           0      -11.494343    0.674797    2.939639
     56          1           0      -11.358007   -0.915709    2.196341
     57          1           0      -11.819324    2.617092   -0.190419
     58          1           0      -12.333310    2.418530    1.703511
     59          1           0      -10.639005    2.485284    0.832727
     60          1           0      -12.283943   -2.450746    1.470786
     61          1           0       -8.893796   -1.943470    0.427190
     62          1           0       -5.571246   -1.863783   -0.662672
     63          1           0       -5.903744   -1.700138    1.282622
     64          1           0       -7.017133   -2.862328    0.332306
     65          1           0       -7.066574    1.624353   -0.451520
     66          1           0       -4.502713    0.065641   -0.055681
     67          1           0       13.532450   -0.999078    2.321882
     68          1           0       12.044139   -1.689578    1.966947
     69          1           0       14.283635   -2.665101    0.566436
     70          1           0       13.178675   -2.368021   -1.747248
     71          1           0       11.912622   -2.696678   -0.542513
     72          1           0       11.835637    0.341252    3.441647
     73          1           0       10.528572    1.387537    2.417810
     74          1           0       10.353912   -0.445369    2.505070
     75          1           0       13.637440    1.434438    0.319591
     76          1           0       12.260658    2.277190    1.171280
     77          1           0       13.645359    1.649741    2.121986
     78          1           0       13.336951    0.006166   -2.796694
     79          1           0       11.756872    1.370518   -2.266064
     80          1           0       13.326840    0.885972   -1.532727
     81          1           0       -5.407696    2.891420   -0.477785
     82          1           0        9.766201   -0.406819   -2.078356
     83          1           0       15.123754   -0.817412    0.447030
     84          1           0        8.454095    2.084856    0.090352
     85          1           0       -2.328841    4.317758   -0.448026
     86          1           0       -2.507324    3.661713   -1.990000
     87          1           0       -3.829160    4.464091   -1.119819
     88          1           0       -2.609480    0.442208   -0.030054
     89          1           0        6.630752   -1.939872    0.474987
     90          1           0        8.458688   -1.615205   -0.152373
     91          1           0        8.044955   -1.258150    1.440544
     92          1           0        6.154240    1.713972   -0.150795
     93          1           0       -0.667617    2.494274   -0.823563
     94          1           0        4.819296   -1.024441    0.405391
     95          1           0       -0.333116   -0.350347    0.259334
     96          1           0        3.823286    1.783180   -0.235853
     97          1           0        1.520511    2.202535   -0.551742
     98          1           0        1.233670   -1.568576    0.380872
     99          1           0        2.828993   -1.829876   -0.511616
    100          1           0        2.913326   -1.465404    1.213707
 ---------------------------------------------------------------------

 SCF Done:  E(RCAM-B3LYP) =  -1857.26731878     A.U. after   15 cycles

 Excitation energies and oscillator strengths:

 Excited State   1:      Singlet-A      1.9531 eV  634.81 nm  f=2.6242  <S**2>=0.000
     163 ->166        -0.10394
     164 ->165         0.71022
     164 <-165        -0.14206
 This state for optimization and/or second-order correction.
 Total Energy, E(TD-HF/TD-DFT) =  -1857.19554453
 Copying the excited state density for this state as the 1-particle RhoCI density.

 The electronic state is 1-A.
 Alpha  occ. eigenvalues --  -19.22419 -19.22118 -19.21332 -19.20926 -10.33540
 Alpha  occ. eigenvalues --  -10.33493 -10.32724 -10.32439 -10.31588 -10.29122
 Alpha  occ. eigenvalues --  -10.28688 -10.28479 -10.28317 -10.28163 -10.27973
 Alpha  occ. eigenvalues --  -10.27924 -10.27834 -10.27814 -10.27406 -10.27321
 Alpha  occ. eigenvalues --  -10.27287 -10.27032 -10.26974 -10.26839 -10.26651
 Alpha  occ. eigenvalues --  -10.26567 -10.26419 -10.26300 -10.26280 -10.26186
 Alpha  occ. eigenvalues --  -10.26017 -10.25929 -10.25870 -10.25841 -10.25654
 Alpha  occ. eigenvalues --  -10.25605 -10.25566 -10.25462 -10.25329 -10.25231
 Alpha  occ. eigenvalues --  -10.24794 -10.24745 -10.23441 -10.23218  -1.14978
 Alpha  occ. eigenvalues --   -1.10557  -1.08343  -1.05668  -0.94349  -0.93322
 Alpha  occ. eigenvalues --   -0.92046  -0.91740  -0.91057  -0.90523  -0.88275
 Alpha  occ. eigenvalues --   -0.88126  -0.86297  -0.85757  -0.85354  -0.83608
 Alpha  occ. eigenvalues --   -0.82661  -0.81248  -0.80098  -0.78964  -0.77853
 Alpha  occ. eigenvalues --   -0.77250  -0.76664  -0.76180  -0.76018  -0.75074
 Alpha  occ. eigenvalues --   -0.74935  -0.74538  -0.73378  -0.70117  -0.69618
 Alpha  occ. eigenvalues --   -0.68607  -0.67017  -0.66064  -0.65188  -0.64807
 Alpha  occ. eigenvalues --   -0.63875  -0.62760  -0.61541  -0.60963  -0.60699
 Alpha  occ. eigenvalues --   -0.58966  -0.58598  -0.57707  -0.57545  -0.56923
 Alpha  occ. eigenvalues --   -0.55824  -0.55437  -0.54924  -0.54714  -0.54523
 Alpha  occ. eigenvalues --   -0.54161  -0.53146  -0.53078  -0.52491  -0.51619
 Alpha  occ. eigenvalues --   -0.51590  -0.51044  -0.50581  -0.50032  -0.49943
 Alpha  occ. eigenvalues --   -0.49612  -0.49278  -0.49165  -0.48787  -0.48482
 Alpha  occ. eigenvalues --   -0.48431  -0.48311  -0.48111  -0.47869  -0.47476
 Alpha  occ. eigenvalues --   -0.46640  -0.46008  -0.45647  -0.45587  -0.45143
 Alpha  occ. eigenvalues --   -0.45078  -0.44518  -0.44422  -0.44263  -0.43967
 Alpha  occ. eigenvalues --   -0.43813  -0.43691  -0.43300  -0.43161  -0.42929
 Alpha  occ. eigenvalues --   -0.42900  -0.42553  -0.41858  -0.41697  -0.41324
 Alpha  occ. eigenvalues --   -0.41093  -0.40873  -0.40616  -0.40607  -0.40332
 Alpha  occ. eigenvalues --   -0.39939  -0.39472  -0.39162  -0.39027  -0.38604
 Alpha  occ. eigenvalues --   -0.38298  -0.38189  -0.38002  -0.36783  -0.36468
 Alpha  occ. eigenvalues --   -0.36201  -0.35621  -0.34922  -0.34344  -0.33295
 Alpha  occ. eigenvalues --   -0.32529  -0.32263  -0.31893  -0.31852  -0.30872
 Alpha  occ. eigenvalues --   -0.29894  -0.28207  -0.24821  -0.19022
 Alpha virt. eigenvalues --   -0.07050  -0.00629   0.02723   0.05055   0.07212
 Alpha virt. eigenvalues --    0.08908   0.09038   0.09969   0.11068   0.11275
 Alpha virt. eigenvalues --    0.11864   0.12010   0.12733   0.13185   0.13561

 Mulliken charges:
               1
     1  O   -0.536650
     2  O   -0.540356
     3  O   -0.595068
     4  O   -0.490502
     5  C    0.225640
     6  C    0.238604
     7  C    0.011935
     8  C   -0.229670
     9  C   -0.151757
    10  C    0.130278
    11  C   -0.366370
    12  C   -0.109107
    13  C   -0.289498
    14  C   -0.311660
    15  C   -0.047103
    16  C    0.014764
    17  C   -0.349228
    18  C   -0.104958
    19  C   -0.013950
    20  C    0.029468
    21  C    0.273157
    22  C   -0.178052
    23  C    0.144629
    24  C   -0.178441
    25  C   -0.079780
    26  C   -0.298844
    27  C   -0.292152
    28  C   -0.285057
    29  C   -0.164723
    30  C    0.133431
    31  C    0.122466
    32  C   -0.293823
    33  C   -0.394865
    34  C   -0.108710
    35  C    0.098702
    36  C   -0.350548
    37  C   -0.105539
    38  C   -0.061389
    39  C   -0.093763
    40  C   -0.115622
    41  C   -0.103094
    42  C   -0.120516
    43  C    0.107757
    44  C   -0.370992
    45  H    0.112907
    46  H    0.140082
    47  H    0.105908
    48  H    0.120030
    49  H    0.068824
    50  H    0.120755
    51  H    0.105655
    52  H    0.135916
    53  H    0.104293
    54  H    0.113571
    55  H    0.103713
    56  H    0.060173
    57  H    0.115490
    58  H    0.104789
    59  H    0.083506
    60  H    0.305661
    61  H    0.076212
    62  H    0.103876
    63  H    0.135748
    64  H    0.107359
    65  H    0.086991
    66  H    0.083266
    67  H    0.096864
    68  H    0.086491
    69  H    0.009326
    70  H    0.114093
    71  H    0.125820
    72  H    0.073472
    73  H    0.098966
    74  H    0.110225
    75  H    0.117472
    76  H    0.103171
    77  H    0.076471
    78  H    0.085346
    79  H    0.083933
    80  H    0.127979
    81  H    0.074484
    82  H    0.311712
    83  H    0.299986
    84  H    0.109374
    85  H    0.123387
    86  H    0.131358
    87  H    0.102265
    88  H    0.073978
    89  H    0.100417
    90  H    0.127325
    91  H    0.139930
    92  H    0.076899
    93  H    0.072685
    94  H    0.076838
    95  H    0.066904
    96  H    0.080152
    97  H    0.076538
    98  H    0.109895
    99  H    0.113620
   100  H    0.128856
 Sum of Mulliken charges =  -0.00000

 Dipole moment (field-independent basis, Debye):
    X=              2.0054    Y=             -0.2922    Z=              2.4603  Tot=              3.1875
 Quadrupole moment (field-independent basis, Debye-Ang):
   XX=           -274.9515   YY=           -256.1796   ZZ=           -286.6207
   XY=             15.6136   XZ=             45.8135   YZ=             -0.8595

 Normal termination of Gaussian 16 at Wed Jul 31 20:27:05 2019.
