 Gaussian 16, Revision A.03,
 Gaussian 16:  ES64L-G16RevA.03 25-Dec-2016

 -------------------------------------
 # td=(NStates=1) CAM-B3LYP/6-31G(d,p)
 -------------------------------------

 --
 TD
 --
 Symbolic Z-matrix:
 Charge =  0 Multiplicity = 1

                         Standard orientation:
 ---------------------------------------------------------------------
 Center     Atomic      Atomic             Coordinates (Angstroms)
 Number     Number       Type             X           Y           Z
 ---------------------------------------------------------------------
      1          8           0      -11.977169    0.543637   -1.251231
      2          8           0      -13.012130   -2.662761    1.173777
      3          8           0       10.828907   -0.745605   -2.159220
      4          8           0       14.567398   -0.643815    0.002839
      5          6           0      -11.089671   -0.091079   -0.187285
      6          6           0      -11.748639   -0.889219   -1.315825
      7          6           0      -11.764397    0.085095    1.173763
      8          6           0      -13.066421   -1.497230   -1.099816
      9          6           0      -13.284323   -0.232740    1.064811
     10          6           0      -13.642867   -1.593967    0.324723
     11          6           0      -10.954408   -1.393134   -2.406391
     12          6           0       -9.581592    0.304385   -0.433796
     13          6           0      -11.115819   -0.687647    2.294932
     14          6           0      -11.629126    1.726625    1.444703
     15          6           0       -8.661206   -0.632328   -0.059434
     16          6           0       -7.267112   -0.544571   -0.108064
     17          6           0       -6.409176   -1.840424    0.019089
     18          6           0       -6.630369    0.756522   -0.176061
     19          6           0       -5.189977    0.850569   -0.156224
     20          6           0       11.956973   -0.241905    1.460485
     21          6           0       11.810889   -0.318835   -1.146415
     22          6           0       12.699601   -1.490481    1.311121
     23          6           0       13.490818   -1.657227    0.056752
     24          6           0       12.551171   -1.622245   -1.125284
     25          6           0       11.144252   -0.063562    0.099576
     26          6           0       10.996449   -0.413411    2.536785
     27          6           0       12.809715    0.978760    1.702437
     28          6           0       12.652055    0.796629   -1.735082
     29          6           0       -4.699113    2.113275   -0.207131
     30          6           0        9.914877    0.313086    0.062818
     31          6           0       -3.353028    2.553599   -0.229541
     32          6           0        8.626732    0.849199   -0.033674
     33          6           0       -3.157704    4.104426   -0.166308
     34          6           0       -2.287028    1.624059   -0.222592
     35          6           0        7.526799    0.073004   -0.101084
     36          6           0        7.669322   -1.374338   -0.075992
     37          6           0        6.231037    0.706127   -0.195245
     38          6           0       -0.913153    1.922141   -0.181340
     39          6           0        4.930683    0.119646   -0.160510
     40          6           0        0.115053    0.898670   -0.198558
     41          6           0        3.789536    0.801287   -0.133859
     42          6           0        1.357651    1.256237   -0.182014
     43          6           0        2.476781    0.198959   -0.091696
     44          6           0        2.252556   -1.169032    0.084601
     45          1           0      -13.084585   -2.606776   -1.544755
     46          1           0      -13.774458   -0.897504   -1.797149
     47          1           0      -13.698220   -0.415907    2.200845
     48          1           0      -13.896103    0.517132    0.576139
     49          1           0      -14.593436   -1.821403    0.256293
     50          1           0      -10.569307   -2.306726   -2.040721
     51          1           0      -11.727334   -1.632011   -3.177310
     52          1           0      -10.033401   -0.867277   -2.586109
     53          1           0       -9.372837    1.175505   -1.058524
     54          1           0      -10.165212   -0.305956    2.666797
     55          1           0      -11.638256   -0.644675    3.119504
     56          1           0      -10.990176   -1.840025    1.958135
     57          1           0      -12.473900    2.272108    0.821241
     58          1           0      -12.010384    1.952808    2.406703
     59          1           0      -10.624066    1.997541    1.690430
     60          1           0      -12.069671   -2.565716    0.923108
     61          1           0       -9.104027   -1.553844    0.213180
     62          1           0       -5.492834   -1.744624   -0.733675
     63          1           0       -5.850825   -1.820567    0.953571
     64          1           0       -6.942752   -2.830627   -0.255428
     65          1           0       -7.247274    1.662340   -0.247631
     66          1           0       -4.510828    0.043181   -0.259836
     67          1           0       13.637187   -1.398903    2.031939
     68          1           0       12.141473   -2.404410    1.757709
     69          1           0       13.912795   -2.743939    0.363873
     70          1           0       12.980740   -1.978828   -2.275058
     71          1           0       11.741301   -2.367257   -0.982036
     72          1           0       11.401947   -0.859319    3.524499
     73          1           0       10.252101    0.500869    2.606850
     74          1           0       10.000183   -1.119616    2.255965
     75          1           0       13.438124    1.105994    0.763227
     76          1           0       12.165255    1.906167    1.691669
     77          1           0       13.332973    0.974303    2.586752
     78          1           0       12.927185    0.318976   -2.657706
     79          1           0       12.002924    1.720853   -1.932733
     80          1           0       13.575823    1.118950   -1.045779
     81          1           0       -5.456259    2.928988   -0.210284
     82          1           0       10.160246   -0.135556   -2.061995
     83          1           0       15.032894   -0.409607    0.857093
     84          1           0        8.319164    1.930866    0.121392
     85          1           0       -2.534492    4.421134    0.537430
     86          1           0       -2.658908    4.154330   -1.046318
     87          1           0       -4.040803    4.725205   -0.155430
     88          1           0       -2.633554    0.684076    0.039538
     89          1           0        6.719425   -1.954579   -0.293668
     90          1           0        8.689739   -1.476583   -0.667105
     91          1           0        7.663602   -1.740444    0.967185
     92          1           0        6.338448    1.820216   -0.398298
     93          1           0       -0.614866    3.012166   -0.446419
     94          1           0        4.926319   -1.064088   -0.278484
     95          1           0       -0.340690   -0.129167   -0.128326
     96          1           0        3.829613    2.002694   -0.093779
     97          1           0        1.850452    2.131314   -0.575816
     98          1           0        1.073855   -1.528355    0.166523
     99          1           0        2.360465   -1.696493   -0.945435
    100          1           0        3.072239   -1.822122    0.664644
 ---------------------------------------------------------------------

 SCF Done:  E(RCAM-B3LYP) =  -1857.23015173     A.U. after   17 cycles

 Excitation energies and oscillator strengths:

 Excited State   1:      Singlet-A      1.7161 eV  722.46 nm  f=3.1676  <S**2>=0.000
     163 ->166        -0.11870
     164 ->165         0.70696
     164 <-165        -0.14012
 This state for optimization and/or second-order correction.
 Total Energy, E(TD-HF/TD-DFT) =  -1857.16708515
 Copying the excited state density for this state as the 1-particle RhoCI density.

 The electronic state is 1-A.
 Alpha  occ. eigenvalues --  -19.22332 -19.20636 -19.20493 -19.20228 -10.32648
 Alpha  occ. eigenvalues --  -10.32033 -10.31249 -10.31142 -10.30178 -10.28778
 Alpha  occ. eigenvalues --  -10.28698 -10.28582 -10.28447 -10.28095 -10.27941
 Alpha  occ. eigenvalues --  -10.27937 -10.27861 -10.27806 -10.27646 -10.27495
 Alpha  occ. eigenvalues --  -10.27404 -10.27385 -10.27370 -10.27318 -10.27254
 Alpha  occ. eigenvalues --  -10.27015 -10.26940 -10.26935 -10.26924 -10.26912
 Alpha  occ. eigenvalues --  -10.26848 -10.26622 -10.26295 -10.26160 -10.26150
 Alpha  occ. eigenvalues --  -10.26129 -10.26121 -10.25934 -10.25146 -10.25026
 Alpha  occ. eigenvalues --  -10.24952 -10.24684 -10.24571 -10.23932  -1.11456
 Alpha  occ. eigenvalues --   -1.10482  -1.08217  -1.06917  -0.95233  -0.92876
 Alpha  occ. eigenvalues --   -0.92220  -0.91618  -0.90349  -0.89114  -0.88049
 Alpha  occ. eigenvalues --   -0.87831  -0.87106  -0.86160  -0.85354  -0.83641
 Alpha  occ. eigenvalues --   -0.82808  -0.81092  -0.80859  -0.79954  -0.77773
 Alpha  occ. eigenvalues --   -0.76526  -0.76440  -0.76277  -0.75913  -0.75756
 Alpha  occ. eigenvalues --   -0.75211  -0.74140  -0.72296  -0.71030  -0.70148
 Alpha  occ. eigenvalues --   -0.68534  -0.66869  -0.65610  -0.64861  -0.64054
 Alpha  occ. eigenvalues --   -0.63872  -0.62144  -0.60677  -0.59927  -0.59243
 Alpha  occ. eigenvalues --   -0.59055  -0.58475  -0.58147  -0.57649  -0.56505
 Alpha  occ. eigenvalues --   -0.56086  -0.55568  -0.54639  -0.54173  -0.53970
 Alpha  occ. eigenvalues --   -0.53668  -0.52914  -0.52563  -0.52365  -0.51647
 Alpha  occ. eigenvalues --   -0.51122  -0.50933  -0.50357  -0.50316  -0.49945
 Alpha  occ. eigenvalues --   -0.49604  -0.49013  -0.48814  -0.48572  -0.48413
 Alpha  occ. eigenvalues --   -0.48175  -0.47872  -0.47700  -0.47579  -0.47142
 Alpha  occ. eigenvalues --   -0.46883  -0.46721  -0.46328  -0.45868  -0.45656
 Alpha  occ. eigenvalues --   -0.45483  -0.45141  -0.44707  -0.44427  -0.44161
 Alpha  occ. eigenvalues --   -0.43927  -0.43803  -0.43062  -0.42887  -0.42831
 Alpha  occ. eigenvalues --   -0.41677  -0.41513  -0.41285  -0.41147  -0.40891
 Alpha  occ. eigenvalues --   -0.40744  -0.40649  -0.40135  -0.39913  -0.39647
 Alpha  occ. eigenvalues --   -0.39297  -0.39076  -0.39007  -0.38668  -0.38382
 Alpha  occ. eigenvalues --   -0.38296  -0.37975  -0.37871  -0.37207  -0.36962
 Alpha  occ. eigenvalues --   -0.36563  -0.36501  -0.35737  -0.35032  -0.33612
 Alpha  occ. eigenvalues --   -0.33445  -0.32331  -0.31804  -0.31103  -0.30931
 Alpha  occ. eigenvalues --   -0.30451  -0.26605  -0.23920  -0.18099
 Alpha virt. eigenvalues --   -0.07551  -0.01590   0.01571   0.05577   0.06118
 Alpha virt. eigenvalues --    0.09481   0.09587   0.09765   0.10539   0.11537
 Alpha virt. eigenvalues --    0.11914   0.12753   0.13143   0.13217   0.13420

 Mulliken charges:
               1
     1  O   -0.533934
     2  O   -0.555242
     3  O   -0.554802
     4  O   -0.576632
     5  C    0.170891
     6  C    0.276274
     7  C    0.015436
     8  C   -0.222881
     9  C   -0.174198
    10  C    0.148222
    11  C   -0.328441
    12  C   -0.128312
    13  C   -0.284788
    14  C   -0.328846
    15  C   -0.075817
    16  C    0.066703
    17  C   -0.372825
    18  C   -0.118362
    19  C   -0.053270
    20  C    0.096507
    21  C    0.203298
    22  C   -0.204503
    23  C    0.182573
    24  C   -0.168852
    25  C   -0.082321
    26  C   -0.323788
    27  C   -0.304541
    28  C   -0.272478
    29  C   -0.121341
    30  C    0.065143
    31  C    0.051095
    32  C   -0.235617
    33  C   -0.365039
    34  C   -0.114435
    35  C    0.152245
    36  C   -0.368966
    37  C   -0.134497
    38  C   -0.103836
    39  C   -0.092426
    40  C   -0.075406
    41  C   -0.111308
    42  C   -0.105984
    43  C    0.137594
    44  C   -0.410579
    45  H    0.078264
    46  H    0.120267
    47  H    0.080471
    48  H    0.107424
    49  H    0.105818
    50  H    0.110806
    51  H    0.111406
    52  H    0.129696
    53  H    0.115755
    54  H    0.104344
    55  H    0.126140
    56  H    0.058315
    57  H    0.121976
    58  H    0.100952
    59  H    0.114369
    60  H    0.299905
    61  H    0.076360
    62  H    0.103644
    63  H    0.137250
    64  H    0.109539
    65  H    0.098387
    66  H    0.089549
    67  H    0.058022
    68  H    0.112577
    69  H    0.071105
    70  H    0.093168
    71  H    0.129590
    72  H    0.097018
    73  H    0.099489
    74  H    0.078490
    75  H    0.107348
    76  H    0.100614
    77  H    0.107647
    78  H    0.125511
    79  H    0.082832
    80  H    0.124382
    81  H    0.076699
    82  H    0.286356
    83  H    0.316677
    84  H    0.114003
    85  H    0.133461
    86  H    0.138142
    87  H    0.111644
    88  H    0.076560
    89  H    0.098321
    90  H    0.121612
    91  H    0.125492
    92  H    0.071162
    93  H    0.078378
    94  H    0.075783
    95  H    0.091019
    96  H    0.084235
    97  H    0.099223
    98  H    0.104209
    99  H    0.128185
   100  H    0.118690
 Sum of Mulliken charges =  -0.00000

 Dipole moment (field-independent basis, Debye):
    X=              3.0621    Y=              0.1489    Z=              2.0085  Tot=              3.6651
 Quadrupole moment (field-independent basis, Debye-Ang):
   XX=           -302.8712   YY=           -262.6151   ZZ=           -279.6255
   XY=             -2.6381   XZ=             39.6802   YZ=              2.0671

 Normal termination of Gaussian 16 at Mon Jul 29 08:18:09 2019.
