 Gaussian 16, Revision A.03,
 Gaussian 16:  ES64L-G16RevA.03 25-Dec-2016

 -------------------------------------
 # td=(NStates=1) CAM-B3LYP/6-31G(d,p)
 -------------------------------------

 --
 TD
 --
 Symbolic Z-matrix:
 Charge =  0 Multiplicity = 1

                         Standard orientation:
 ---------------------------------------------------------------------
 Center     Atomic      Atomic             Coordinates (Angstroms)
 Number     Number       Type             X           Y           Z
 ---------------------------------------------------------------------
      1          8           0      -11.801462    0.374215   -1.396491
      2          8           0      -13.296763   -2.435247    1.430337
      3          8           0       10.905572   -0.844467   -2.258713
      4          8           0       14.684725   -0.630113    0.052703
      5          6           0      -11.070122   -0.085022   -0.288318
      6          6           0      -11.714152   -1.038985   -1.259899
      7          6           0      -11.748187    0.361725    1.075219
      8          6           0      -13.048543   -1.566351   -0.982566
      9          6           0      -13.250189    0.070334    1.024771
     10          6           0      -13.600369   -1.307228    0.494021
     11          6           0      -11.024308   -1.687571   -2.276369
     12          6           0       -9.571608    0.124888   -0.369435
     13          6           0      -10.991690   -0.207985    2.324105
     14          6           0      -11.601045    1.874218    1.139220
     15          6           0       -8.606665   -0.787106   -0.032045
     16          6           0       -7.122097   -0.712614   -0.070425
     17          6           0       -6.395170   -1.981274    0.204692
     18          6           0       -6.538569    0.507767   -0.363005
     19          6           0       -5.182933    0.731082   -0.298381
     20          6           0       11.918723   -0.021959    1.350310
     21          6           0       11.865996   -0.402393   -1.285929
     22          6           0       12.669279   -1.298338    1.504761
     23          6           0       13.615012   -1.620421    0.284963
     24          6           0       12.740343   -1.657993   -1.033831
     25          6           0       11.108600   -0.053543    0.090907
     26          6           0       10.899862   -0.134720    2.636731
     27          6           0       12.757754    1.309886    1.533618
     28          6           0       12.671341    0.783509   -1.880954
     29          6           0       -4.770080    2.141166   -0.381890
     30          6           0        9.892335    0.436254    0.042747
     31          6           0       -3.448775    2.505357   -0.256895
     32          6           0        8.662159    0.879450   -0.186190
     33          6           0       -3.104577    3.992934   -0.505991
     34          6           0       -2.363872    1.660214   -0.121623
     35          6           0        7.381353   -0.073300   -0.026354
     36          6           0        7.623773   -1.512682    0.115495
     37          6           0        6.276885    0.543217   -0.324381
     38          6           0       -1.024556    1.895475   -0.115920
     39          6           0        4.872700   -0.098001   -0.064503
     40          6           0       -0.030046    0.797571   -0.136987
     41          6           0        3.732346    0.683452   -0.151033
     42          6           0        1.357785    1.030727   -0.208689
     43          6           0        2.422882    0.088127   -0.118823
     44          6           0        2.108038   -1.341874    0.111096
     45          1           0      -13.156341   -2.565808   -1.267435
     46          1           0      -13.629605   -1.013149   -1.917547
     47          1           0      -13.500398    0.237911    1.918832
     48          1           0      -13.671494    0.842092    0.356330
     49          1           0      -14.715500   -1.301291    0.457001
     50          1           0      -10.619319   -2.587092   -1.911096
     51          1           0      -11.607515   -1.843551   -3.256544
     52          1           0      -10.058198   -1.212037   -2.760507
     53          1           0       -9.396851    1.204829   -0.540393
     54          1           0       -9.815958   -0.224197    2.278663
     55          1           0      -11.443872    0.571776    3.155606
     56          1           0      -11.577483   -1.306438    2.777461
     57          1           0      -11.876121    2.197843    0.071918
     58          1           0      -12.099555    2.356531    1.940397
     59          1           0      -10.587644    2.154666    1.235542
     60          1           0      -12.435623   -2.626385    1.292407
     61          1           0       -9.026795   -1.655136    0.477924
     62          1           0       -5.849134   -2.391671   -0.697871
     63          1           0       -5.700756   -1.886088    0.968752
     64          1           0       -7.131732   -2.728123    0.480302
     65          1           0       -7.145244    1.308001   -0.419120
     66          1           0       -4.516191    0.061943   -0.304790
     67          1           0       13.175834   -1.242862    2.535954
     68          1           0       12.104733   -2.122416    1.526380
     69          1           0       14.150767   -2.591087    0.496093
     70          1           0       13.403275   -1.864905   -1.918410
     71          1           0       12.025760   -2.448023   -1.052710
     72          1           0       11.358551   -0.433069    3.686298
     73          1           0       10.346462    0.796784    2.770685
     74          1           0       10.248761   -1.001563    2.394249
     75          1           0       13.507636    1.369826    0.631955
     76          1           0       12.004553    2.104423    1.604499
     77          1           0       13.097934    1.341184    2.458093
     78          1           0       13.563538    0.703722   -2.740575
     79          1           0       12.092039    1.692368   -2.341388
     80          1           0       13.290584    1.396148   -0.580900
     81          1           0       -5.480500    2.926214   -0.313281
     82          1           0       10.214344   -0.104399   -2.145944
     83          1           0       15.384677   -0.631115    0.688959
     84          1           0        8.352495    1.748677   -0.425944
     85          1           0       -2.826403    4.404633    0.596920
     86          1           0       -2.383615    4.037538   -1.330526
     87          1           0       -3.974454    4.713626   -0.635765
     88          1           0       -2.621995    0.554243   -0.184362
     89          1           0        6.665861   -2.040265    0.108276
     90          1           0        8.279632   -1.628001   -0.638738
     91          1           0        7.713249   -1.909765    1.172454
     92          1           0        6.230441    1.726977   -0.593895
     93          1           0       -0.661776    2.807596   -0.077351
     94          1           0        4.892724   -1.184987    0.310165
     95          1           0       -0.204699   -0.207181    0.038711
     96          1           0        3.766333    1.753735   -0.279276
     97          1           0        1.622923    1.933368   -0.357555
     98          1           0        1.018749   -1.473856    0.478999
     99          1           0        2.429488   -1.716360   -0.926053
    100          1           0        2.619166   -1.688898    0.932136
 ---------------------------------------------------------------------

 SCF Done:  E(RCAM-B3LYP) =  -1857.17639850     A.U. after   16 cycles

 Excitation energies and oscillator strengths:

 Excited State   1:      Singlet-A      1.9073 eV  650.03 nm  f=2.5689  <S**2>=0.000
     163 ->166         0.10739
     164 ->165         0.71068
     164 <-165        -0.14468
 This state for optimization and/or second-order correction.
 Total Energy, E(TD-HF/TD-DFT) =  -1857.10630471
 Copying the excited state density for this state as the 1-particle RhoCI density.

 The electronic state is 1-A.
 Alpha  occ. eigenvalues --  -19.21525 -19.21180 -19.20925 -19.20740 -10.33229
 Alpha  occ. eigenvalues --  -10.32206 -10.31716 -10.31662 -10.30825 -10.28617
 Alpha  occ. eigenvalues --  -10.28349 -10.28309 -10.28309 -10.27809 -10.27720
 Alpha  occ. eigenvalues --  -10.27659 -10.27533 -10.27479 -10.27457 -10.27316
 Alpha  occ. eigenvalues --  -10.27198 -10.27091 -10.27000 -10.26908 -10.26769
 Alpha  occ. eigenvalues --  -10.26696 -10.26647 -10.26584 -10.26579 -10.26521
 Alpha  occ. eigenvalues --  -10.26202 -10.25974 -10.25764 -10.25586 -10.25560
 Alpha  occ. eigenvalues --  -10.25541 -10.25423 -10.25247 -10.25138 -10.24897
 Alpha  occ. eigenvalues --  -10.24628 -10.24567 -10.23825 -10.23529  -1.16314
 Alpha  occ. eigenvalues --   -1.09218  -1.08731  -1.07825  -0.92952  -0.92422
 Alpha  occ. eigenvalues --   -0.91897  -0.91071  -0.90828  -0.90245  -0.87990
 Alpha  occ. eigenvalues --   -0.86815  -0.85563  -0.84813  -0.84368  -0.83096
 Alpha  occ. eigenvalues --   -0.81959  -0.81200  -0.80524  -0.79357  -0.78280
 Alpha  occ. eigenvalues --   -0.77053  -0.76926  -0.76372  -0.75005  -0.74347
 Alpha  occ. eigenvalues --   -0.74147  -0.73583  -0.72821  -0.70017  -0.69394
 Alpha  occ. eigenvalues --   -0.68994  -0.67911  -0.65706  -0.65017  -0.64591
 Alpha  occ. eigenvalues --   -0.63898  -0.62325  -0.61836  -0.60541  -0.59529
 Alpha  occ. eigenvalues --   -0.58933  -0.58347  -0.58117  -0.57423  -0.56936
 Alpha  occ. eigenvalues --   -0.56397  -0.55751  -0.55316  -0.55143  -0.54131
 Alpha  occ. eigenvalues --   -0.53911  -0.53381  -0.52599  -0.52254  -0.52191
 Alpha  occ. eigenvalues --   -0.51893  -0.51334  -0.51258  -0.50869  -0.50444
 Alpha  occ. eigenvalues --   -0.50094  -0.49631  -0.49381  -0.49027  -0.48761
 Alpha  occ. eigenvalues --   -0.48320  -0.47885  -0.47631  -0.47067  -0.47030
 Alpha  occ. eigenvalues --   -0.46584  -0.46089  -0.45898  -0.45475  -0.45066
 Alpha  occ. eigenvalues --   -0.45031  -0.44752  -0.44595  -0.44038  -0.43802
 Alpha  occ. eigenvalues --   -0.43629  -0.43131  -0.43000  -0.42889  -0.42615
 Alpha  occ. eigenvalues --   -0.42100  -0.41547  -0.41329  -0.41284  -0.41153
 Alpha  occ. eigenvalues --   -0.41024  -0.40769  -0.40310  -0.39915  -0.39889
 Alpha  occ. eigenvalues --   -0.39707  -0.39388  -0.39198  -0.38544  -0.38263
 Alpha  occ. eigenvalues --   -0.38090  -0.37804  -0.37188  -0.37043  -0.36400
 Alpha  occ. eigenvalues --   -0.36230  -0.35505  -0.34288  -0.34136  -0.33334
 Alpha  occ. eigenvalues --   -0.31833  -0.31596  -0.31478  -0.31141  -0.30585
 Alpha  occ. eigenvalues --   -0.29884  -0.28376  -0.25117  -0.18578
 Alpha virt. eigenvalues --   -0.06856  -0.00077   0.03574   0.05273   0.06486
 Alpha virt. eigenvalues --    0.08486   0.09173   0.10307   0.11753   0.11932
 Alpha virt. eigenvalues --    0.12135   0.12646   0.13321   0.13699   0.14244

 Mulliken charges:
               1
     1  O   -0.502532
     2  O   -0.543026
     3  O   -0.563471
     4  O   -0.561767
     5  C    0.181399
     6  C    0.279612
     7  C    0.019589
     8  C   -0.216087
     9  C   -0.141184
    10  C    0.130259
    11  C   -0.363845
    12  C   -0.108226
    13  C   -0.306083
    14  C   -0.325607
    15  C   -0.108664
    16  C    0.070900
    17  C   -0.379118
    18  C   -0.074236
    19  C   -0.033373
    20  C   -0.005590
    21  C    0.263451
    22  C   -0.157031
    23  C    0.130699
    24  C   -0.183808
    25  C   -0.071734
    26  C   -0.320302
    27  C   -0.282520
    28  C   -0.237911
    29  C   -0.135346
    30  C    0.148612
    31  C    0.087747
    32  C   -0.262841
    33  C   -0.371319
    34  C   -0.098814
    35  C    0.101651
    36  C   -0.352903
    37  C   -0.115607
    38  C   -0.082020
    39  C   -0.131030
    40  C   -0.084699
    41  C   -0.096130
    42  C   -0.091762
    43  C    0.080915
    44  C   -0.358526
    45  H    0.112852
    46  H    0.100181
    47  H    0.098948
    48  H    0.115550
    49  H    0.104967
    50  H    0.115565
    51  H    0.104047
    52  H    0.117883
    53  H    0.097771
    54  H    0.117687
    55  H    0.078154
    56  H    0.069455
    57  H    0.117261
    58  H    0.107385
    59  H    0.102286
    60  H    0.294117
    61  H    0.076287
    62  H    0.120978
    63  H    0.131934
    64  H    0.112036
    65  H    0.074371
    66  H    0.068911
    67  H    0.078381
    68  H    0.109762
    69  H    0.078145
    70  H    0.114911
    71  H    0.122414
    72  H    0.082040
    73  H    0.107246
    74  H    0.109245
    75  H    0.128413
    76  H    0.103053
    77  H    0.106925
    78  H    0.101920
    79  H    0.086308
    80  H    0.016341
    81  H    0.088095
    82  H    0.305068
    83  H    0.304288
    84  H    0.090170
    85  H    0.101495
    86  H    0.132698
    87  H    0.103336
    88  H    0.068465
    89  H    0.101904
    90  H    0.148429
    91  H    0.118440
    92  H    0.075367
    93  H    0.079331
    94  H    0.090983
    95  H    0.064576
    96  H    0.095308
    97  H    0.048820
    98  H    0.107087
    99  H    0.133865
   100  H    0.130825
 Sum of Mulliken charges =  -0.00000

 Dipole moment (field-independent basis, Debye):
    X=              3.1267    Y=             -0.5411    Z=              2.4322  Tot=              3.9981
 Quadrupole moment (field-independent basis, Debye-Ang):
   XX=           -302.6732   YY=           -258.4757   ZZ=           -278.0504
   XY=             -9.3916   XZ=             40.5405   YZ=             -0.3863

 Normal termination of Gaussian 16 at Fri Aug  2 01:23:44 2019.
