 Gaussian 16, Revision A.03,
 Gaussian 16:  ES64L-G16RevA.03 25-Dec-2016

 -------------------------------------
 # td=(NStates=1) CAM-B3LYP/6-31G(d,p)
 -------------------------------------

 --
 TD
 --
 Symbolic Z-matrix:
 Charge =  0 Multiplicity = 1

                         Standard orientation:
 ---------------------------------------------------------------------
 Center     Atomic      Atomic             Coordinates (Angstroms)
 Number     Number       Type             X           Y           Z
 ---------------------------------------------------------------------
      1          8           0      -11.711871    0.072428   -1.434265
      2          8           0      -12.923199   -2.482409    1.585880
      3          8           0       10.625543   -0.925143   -2.067511
      4          8           0       14.409264   -1.097190    0.029087
      5          6           0      -11.005330   -0.121860   -0.305952
      6          6           0      -11.621949   -1.179318   -1.133753
      7          6           0      -11.706557    0.355893    1.054125
      8          6           0      -12.985811   -1.861801   -0.776510
      9          6           0      -13.178012   -0.113319    0.955456
     10          6           0      -13.496861   -1.585829    0.614102
     11          6           0      -10.862129   -2.071642   -2.171185
     12          6           0       -9.571984    0.155973   -0.344194
     13          6           0      -11.041461   -0.086326    2.285510
     14          6           0      -11.673512    1.819550    0.890571
     15          6           0       -8.607938   -0.763929   -0.046591
     16          6           0       -7.246629   -0.581047   -0.095691
     17          6           0       -6.308180   -1.859015    0.072382
     18          6           0       -6.677054    0.760945   -0.213242
     19          6           0       -5.239087    0.979525   -0.288786
     20          6           0       11.888143    0.095295    1.357168
     21          6           0       11.689280   -0.636392   -1.157640
     22          6           0       12.642529   -1.263679    1.697588
     23          6           0       13.233070   -1.906286    0.466283
     24          6           0       12.378424   -2.040564   -0.770432
     25          6           0       11.127195    0.013312    0.047221
     26          6           0       10.886026    0.416357    2.441333
     27          6           0       12.879506    1.257842    1.355908
     28          6           0       12.560597    0.357994   -2.049822
     29          6           0       -4.770315    2.297365   -0.407684
     30          6           0        9.901462    0.430607   -0.004894
     31          6           0       -3.354232    2.658821   -0.467344
     32          6           0        8.679326    0.878860   -0.228771
     33          6           0       -3.047571    4.159606   -0.536613
     34          6           0       -2.305887    1.767883   -0.394335
     35          6           0        7.459600    0.078020   -0.178034
     36          6           0        7.752843   -1.412643    0.008924
     37          6           0        6.247741    0.756157   -0.161763
     38          6           0       -0.919656    1.958085   -0.393742
     39          6           0        4.936776    0.141091   -0.123082
     40          6           0       -0.002791    0.911078   -0.159330
     41          6           0        3.704520    0.872738   -0.213938
     42          6           0        1.336870    1.244626   -0.162500
     43          6           0        2.394754    0.361346   -0.045090
     44          6           0        2.173946   -1.058753    0.345385
     45          1           0      -12.885533   -2.869768   -0.832956
     46          1           0      -13.723911   -1.652935   -1.428175
     47          1           0      -13.497373    0.062803    2.033675
     48          1           0      -13.752586    0.713670    0.213648
     49          1           0      -14.552783   -1.668610    0.646509
     50          1           0      -10.328810   -2.959012   -1.969271
     51          1           0      -11.534237   -2.339004   -3.100983
     52          1           0      -10.046464   -1.416931   -2.415995
     53          1           0       -9.379301    1.182399   -0.728184
     54          1           0       -9.926458    0.477464    2.390878
     55          1           0      -11.709210    0.045903    3.288052
     56          1           0      -10.798984   -1.121805    2.464698
     57          1           0      -12.465587    2.245613    0.232706
     58          1           0      -12.033302    2.420951    1.882876
     59          1           0      -10.649122    2.175060    0.761713
     60          1           0      -11.960628   -2.411494    1.360686
     61          1           0       -9.099320   -1.631300    0.179207
     62          1           0       -5.483011   -1.731770   -0.647172
     63          1           0       -5.755299   -1.780554    1.127724
     64          1           0       -6.842280   -2.890575    0.159542
     65          1           0       -7.149986    1.511744   -0.201408
     66          1           0       -4.488068    0.238816   -0.068940
     67          1           0       13.512557   -1.258325    2.407862
     68          1           0       11.992101   -1.999868    2.066482
     69          1           0       13.505178   -2.939823    0.916463
     70          1           0       12.844249   -2.558734   -1.453259
     71          1           0       11.576002   -2.626847   -0.655348
     72          1           0       11.472615    0.522351    3.412036
     73          1           0       10.359256    1.263863    2.156702
     74          1           0       10.171913   -0.455087    2.439249
     75          1           0       13.709456    0.983810    0.707036
     76          1           0       12.474716    2.252553    0.966125
     77          1           0       13.193609    1.368359    2.459791
     78          1           0       12.838925   -0.134813   -2.934364
     79          1           0       11.847582    1.345001   -1.900322
     80          1           0       13.359240    0.673987   -1.512032
     81          1           0       -5.592781    2.976961   -0.523442
     82          1           0       10.154101   -0.115577   -2.307660
     83          1           0       15.240980   -1.525185    0.491545
     84          1           0        8.621459    2.001307   -0.451890
     85          1           0       -2.443360    4.250871    0.572390
     86          1           0       -2.167112    4.366777   -1.453979
     87          1           0       -3.895309    4.792533   -0.534880
     88          1           0       -2.686340    0.836694   -0.066219
     89          1           0        6.782096   -1.997571   -0.034988
     90          1           0        8.283625   -2.059346   -0.698649
     91          1           0        8.216560   -1.667795    0.940773
     92          1           0        6.239588    1.888515   -0.069744
     93          1           0       -0.609470    3.000788   -0.558985
     94          1           0        4.895489   -0.958277    0.043223
     95          1           0       -0.367487   -0.112981    0.046318
     96          1           0        3.827863    1.951714   -0.404996
     97          1           0        1.417677    2.366779   -0.279089
     98          1           0        1.161540   -1.415448    0.528055
     99          1           0        2.635113   -1.829156   -0.398779
    100          1           0        2.794756   -1.449586    1.263986
 ---------------------------------------------------------------------

 SCF Done:  E(RCAM-B3LYP) =  -1857.31826220     A.U. after   15 cycles

 Excitation energies and oscillator strengths:

 Excited State   1:      Singlet-A      2.0272 eV  611.59 nm  f=3.0119  <S**2>=0.000
     163 ->166        -0.14007
     164 ->165         0.69335
 This state for optimization and/or second-order correction.
 Total Energy, E(TD-HF/TD-DFT) =  -1857.24376258
 Copying the excited state density for this state as the 1-particle RhoCI density.

 The electronic state is 1-A.
 Alpha  occ. eigenvalues --  -19.23700 -19.22331 -19.21523 -19.19548 -10.32369
 Alpha  occ. eigenvalues --  -10.31916 -10.31804 -10.31785 -10.29989 -10.28908
 Alpha  occ. eigenvalues --  -10.28580 -10.28408 -10.28355 -10.28012 -10.27704
 Alpha  occ. eigenvalues --  -10.27425 -10.27191 -10.27165 -10.27138 -10.27134
 Alpha  occ. eigenvalues --  -10.27098 -10.27047 -10.27046 -10.27036 -10.26973
 Alpha  occ. eigenvalues --  -10.26940 -10.26782 -10.26492 -10.26454 -10.26302
 Alpha  occ. eigenvalues --  -10.26273 -10.26055 -10.25997 -10.25979 -10.25585
 Alpha  occ. eigenvalues --  -10.25468 -10.25380 -10.25102 -10.25102 -10.24441
 Alpha  occ. eigenvalues --  -10.23929 -10.23799 -10.23733 -10.23214  -1.23917
 Alpha  occ. eigenvalues --   -1.08948  -1.08768  -1.07085  -0.93119  -0.92443
 Alpha  occ. eigenvalues --   -0.92091  -0.91266  -0.90378  -0.89870  -0.87341
 Alpha  occ. eigenvalues --   -0.86561  -0.86119  -0.85367  -0.84587  -0.82611
 Alpha  occ. eigenvalues --   -0.81635  -0.80403  -0.79812  -0.78142  -0.77533
 Alpha  occ. eigenvalues --   -0.76666  -0.76383  -0.76039  -0.75939  -0.75759
 Alpha  occ. eigenvalues --   -0.74869  -0.74603  -0.72890  -0.70235  -0.69523
 Alpha  occ. eigenvalues --   -0.67905  -0.66676  -0.65784  -0.65231  -0.64731
 Alpha  occ. eigenvalues --   -0.64194  -0.62708  -0.62052  -0.61208  -0.60481
 Alpha  occ. eigenvalues --   -0.60050  -0.58164  -0.57969  -0.57539  -0.57025
 Alpha  occ. eigenvalues --   -0.56177  -0.55798  -0.55393  -0.54510  -0.54391
 Alpha  occ. eigenvalues --   -0.54011  -0.53931  -0.53302  -0.52278  -0.51604
 Alpha  occ. eigenvalues --   -0.51400  -0.51329  -0.50278  -0.49519  -0.49360
 Alpha  occ. eigenvalues --   -0.49163  -0.48638  -0.48195  -0.47747  -0.47634
 Alpha  occ. eigenvalues --   -0.47377  -0.47325  -0.46996  -0.46645  -0.46542
 Alpha  occ. eigenvalues --   -0.46203  -0.46104  -0.45914  -0.45795  -0.45495
 Alpha  occ. eigenvalues --   -0.45366  -0.44995  -0.44710  -0.44394  -0.44206
 Alpha  occ. eigenvalues --   -0.43869  -0.43822  -0.43381  -0.43203  -0.43182
 Alpha  occ. eigenvalues --   -0.42324  -0.42271  -0.42037  -0.41791  -0.41670
 Alpha  occ. eigenvalues --   -0.41521  -0.41246  -0.40555  -0.40235  -0.39614
 Alpha  occ. eigenvalues --   -0.39427  -0.39213  -0.39063  -0.38819  -0.38496
 Alpha  occ. eigenvalues --   -0.38221  -0.38059  -0.37937  -0.37574  -0.37212
 Alpha  occ. eigenvalues --   -0.36106  -0.36027  -0.34676  -0.34366  -0.34011
 Alpha  occ. eigenvalues --   -0.32544  -0.32279  -0.31580  -0.31416  -0.31026
 Alpha  occ. eigenvalues --   -0.29545  -0.27450  -0.23924  -0.19296
 Alpha virt. eigenvalues --   -0.06436  -0.01568   0.02601   0.06615   0.07143
 Alpha virt. eigenvalues --    0.09308   0.10265   0.10334   0.12037   0.12382
 Alpha virt. eigenvalues --    0.12600   0.13060   0.13607   0.13678   0.13892

 Mulliken charges:
               1
     1  O   -0.425013
     2  O   -0.547114
     3  O   -0.574167
     4  O   -0.554515
     5  C    0.184293
     6  C    0.200748
     7  C    0.041529
     8  C   -0.204167
     9  C   -0.185627
    10  C    0.136251
    11  C   -0.346894
    12  C   -0.113925
    13  C   -0.300905
    14  C   -0.301957
    15  C   -0.071034
    16  C    0.064364
    17  C   -0.367268
    18  C   -0.045702
    19  C   -0.060504
    20  C   -0.000966
    21  C    0.230439
    22  C   -0.153117
    23  C    0.089037
    24  C   -0.151859
    25  C   -0.063552
    26  C   -0.284371
    27  C   -0.296615
    28  C   -0.284906
    29  C   -0.137844
    30  C    0.168418
    31  C    0.080238
    32  C   -0.298535
    33  C   -0.345325
    34  C   -0.100990
    35  C    0.121302
    36  C   -0.385589
    37  C   -0.114502
    38  C   -0.098078
    39  C   -0.101196
    40  C   -0.064966
    41  C   -0.126925
    42  C   -0.125575
    43  C    0.141346
    44  C   -0.388506
    45  H    0.110721
    46  H    0.114402
    47  H    0.091632
    48  H    0.076083
    49  H    0.103732
    50  H    0.113527
    51  H    0.098016
    52  H    0.118473
    53  H    0.102222
    54  H    0.080503
    55  H    0.099566
    56  H    0.102101
    57  H    0.119904
    58  H    0.073997
    59  H    0.103517
    60  H    0.305859
    61  H    0.073821
    62  H    0.133376
    63  H    0.109136
    64  H    0.112649
    65  H    0.036108
    66  H    0.085943
    67  H    0.087418
    68  H    0.098024
    69  H    0.071789
    70  H    0.111073
    71  H    0.115108
    72  H    0.082884
    73  H    0.117119
    74  H    0.091155
    75  H    0.136938
    76  H    0.087937
    77  H    0.082392
    78  H    0.124597
    79  H    0.058802
    80  H    0.126403
    81  H    0.087281
    82  H    0.304939
    83  H    0.311413
    84  H    0.104288
    85  H    0.098447
    86  H    0.094308
    87  H    0.119771
    88  H    0.062506
    89  H    0.090174
    90  H    0.144533
    91  H    0.129818
    92  H    0.088458
    93  H    0.086586
    94  H    0.083252
    95  H    0.091431
    96  H    0.082480
    97  H    0.088081
    98  H    0.115249
    99  H    0.109896
   100  H    0.114405
 Sum of Mulliken charges =  -0.00000

 Dipole moment (field-independent basis, Debye):
    X=              2.9046    Y=             -1.0856    Z=              1.6005  Tot=              3.4896
 Quadrupole moment (field-independent basis, Debye-Ang):
   XX=           -261.6856   YY=           -255.6548   ZZ=           -282.3292
   XY=            -24.0119   XZ=             28.9501   YZ=             -1.9692

 Normal termination of Gaussian 16 at Wed Jul 31 02:32:21 2019.
