 Gaussian 16, Revision A.03,
 Gaussian 16:  ES64L-G16RevA.03 25-Dec-2016

 -------------------------------------
 # td=(NStates=1) CAM-B3LYP/6-31G(d,p)
 -------------------------------------

 --
 TD
 --
 Symbolic Z-matrix:
 Charge =  0 Multiplicity = 1

                         Standard orientation:
 ---------------------------------------------------------------------
 Center     Atomic      Atomic             Coordinates (Angstroms)
 Number     Number       Type             X           Y           Z
 ---------------------------------------------------------------------
      1          8           0      -11.814970    0.473244   -1.399128
      2          8           0      -12.848708   -2.582716    1.303949
      3          8           0       10.480596   -0.876367   -2.003867
      4          8           0       14.522065   -1.171359   -0.179141
      5          6           0      -11.140960   -0.082010   -0.193909
      6          6           0      -11.728009   -0.943579   -1.266295
      7          6           0      -11.822142    0.239444    1.123404
      8          6           0      -13.118277   -1.666821   -0.960429
      9          6           0      -13.278196   -0.256291    1.159264
     10          6           0      -13.509326   -1.580900    0.511227
     11          6           0      -10.994797   -1.618678   -2.291632
     12          6           0       -9.598026    0.089133   -0.256372
     13          6           0      -10.981921   -0.337273    2.323535
     14          6           0      -11.762767    1.893649    1.001931
     15          6           0       -8.700606   -0.863961    0.001647
     16          6           0       -7.299665   -0.752831    0.148643
     17          6           0       -6.379019   -1.948724    0.041355
     18          6           0       -6.726759    0.595184    0.092699
     19          6           0       -5.246015    0.709114   -0.170533
     20          6           0       11.991514   -0.022340    1.414880
     21          6           0       11.664525   -0.552611   -1.229098
     22          6           0       12.638339   -1.481853    1.483327
     23          6           0       13.371935   -1.889315    0.238427
     24          6           0       12.417509   -1.897563   -0.882493
     25          6           0       11.121263    0.007797    0.095889
     26          6           0       11.167526    0.049139    2.630738
     27          6           0       12.957554    1.038647    1.524871
     28          6           0       12.453351    0.413255   -1.923638
     29          6           0       -4.727058    2.008918   -0.231139
     30          6           0        9.902358    0.607959    0.085423
     31          6           0       -3.432596    2.421126   -0.337965
     32          6           0        8.746260    1.040641    0.014632
     33          6           0       -3.192932    4.052692   -0.437719
     34          6           0       -2.315410    1.617427   -0.328574
     35          6           0        7.510123    0.228851    0.056366
     36          6           0        7.616585   -1.326687    0.125867
     37          6           0        6.257656    0.906198   -0.148883
     38          6           0       -1.014469    2.032377   -0.284177
     39          6           0        4.997381    0.278822   -0.138835
     40          6           0        0.134615    1.187105   -0.241899
     41          6           0        3.919292    1.026224   -0.337059
     42          6           0        1.436633    1.350016   -0.399867
     43          6           0        2.557974    0.436153   -0.194140
     44          6           0        2.407280   -1.033606   -0.103068
     45          1           0      -12.955845   -2.790090   -1.149664
     46          1           0      -13.958561   -1.327089   -1.713844
     47          1           0      -13.623490   -0.364279    2.160200
     48          1           0      -13.906995    0.618932    0.684816
     49          1           0      -14.494486   -1.778641    0.518772
     50          1           0      -10.513428   -2.644765   -2.095941
     51          1           0      -11.583903   -1.866789   -3.222301
     52          1           0      -10.150400   -1.096239   -2.845773
     53          1           0       -9.292241    1.006693   -0.643357
     54          1           0      -10.167261    0.137344    2.578775
     55          1           0      -11.469752   -0.136853    3.085207
     56          1           0      -10.936037   -1.573640    2.358949
     57          1           0      -12.296293    2.281387    0.185864
     58          1           0      -12.321939    2.219863    1.932374
     59          1           0      -10.786137    2.252756    1.040840
     60          1           0      -11.782463   -2.718607    1.148250
     61          1           0       -9.142079   -1.759744    0.272773
     62          1           0       -6.063653   -2.141772   -1.000963
     63          1           0       -5.262234   -1.810855    0.374713
     64          1           0       -6.780411   -2.735490    0.377737
     65          1           0       -7.365249    1.488934    0.380839
     66          1           0       -4.728810   -0.237271   -0.231641
     67          1           0       13.476929   -1.553238    2.226900
     68          1           0       11.786052   -2.148851    1.741130
     69          1           0       13.710799   -3.033900    0.395353
     70          1           0       12.846416   -2.216860   -1.918137
     71          1           0       11.571003   -2.479903   -0.882339
     72          1           0       11.898925   -0.078641    3.409737
     73          1           0       10.827077    1.073454    2.544833
     74          1           0       10.275675   -0.714299    2.695731
     75          1           0       13.675732    1.107847    0.734649
     76          1           0       12.664185    1.981373    1.630486
     77          1           0       13.887974    0.845792    2.335983
     78          1           0       12.593884    0.293032   -3.008753
     79          1           0       11.869345    1.400382   -1.785343
     80          1           0       13.452827    0.542009   -1.534439
     81          1           0       -5.411731    2.765116    0.055359
     82          1           0       10.221953    0.102690   -2.289406
     83          1           0       15.076431   -1.280372    0.509760
     84          1           0        8.618777    2.147541    0.054988
     85          1           0       -2.616880    4.438699    0.276376
     86          1           0       -2.749554    4.160449   -1.463649
     87          1           0       -4.110530    4.532432   -0.470451
     88          1           0       -2.499034    0.571927   -0.260517
     89          1           0        6.831771   -1.885310   -0.339775
     90          1           0        8.476483   -1.359623   -0.464543
     91          1           0        7.974402   -1.586747    1.036019
     92          1           0        6.334122    1.971432   -0.276011
     93          1           0       -0.813070    3.092640   -0.418124
     94          1           0        5.166224   -0.766586    0.167406
     95          1           0       -0.439545    0.283947   -0.045427
     96          1           0        3.900501    2.154798   -0.481702
     97          1           0        1.564874    2.390527   -0.424188
     98          1           0        1.443306   -1.410381   -0.077128
     99          1           0        2.847820   -1.541895   -0.893302
    100          1           0        2.712306   -1.414636    0.948977
 ---------------------------------------------------------------------

 SCF Done:  E(RCAM-B3LYP) =  -1857.27216463     A.U. after   15 cycles

 Excitation energies and oscillator strengths:

 Excited State   1:      Singlet-A      1.9652 eV  630.89 nm  f=3.0587  <S**2>=0.000
     163 ->166         0.12562
     164 ->165         0.70209
     164 <-165        -0.12197
 This state for optimization and/or second-order correction.
 Total Energy, E(TD-HF/TD-DFT) =  -1857.19994425
 Copying the excited state density for this state as the 1-particle RhoCI density.

 The electronic state is 1-A.
 Alpha  occ. eigenvalues --  -19.22822 -19.21958 -19.21499 -19.21423 -10.32254
 Alpha  occ. eigenvalues --  -10.31542 -10.31497 -10.31496 -10.29512 -10.28863
 Alpha  occ. eigenvalues --  -10.28560 -10.28289 -10.27872 -10.27669 -10.27564
 Alpha  occ. eigenvalues --  -10.27483 -10.26987 -10.26847 -10.26817 -10.26702
 Alpha  occ. eigenvalues --  -10.26687 -10.26668 -10.26363 -10.26018 -10.25788
 Alpha  occ. eigenvalues --  -10.25692 -10.25654 -10.25639 -10.25422 -10.25418
 Alpha  occ. eigenvalues --  -10.25401 -10.25301 -10.25248 -10.25201 -10.25046
 Alpha  occ. eigenvalues --  -10.24967 -10.24796 -10.24661 -10.24614 -10.24366
 Alpha  occ. eigenvalues --  -10.24358 -10.24352 -10.23811 -10.23392  -1.13456
 Alpha  occ. eigenvalues --   -1.13205  -1.08766  -1.06927  -0.93946  -0.91929
 Alpha  occ. eigenvalues --   -0.91427  -0.90759  -0.90061  -0.89383  -0.87854
 Alpha  occ. eigenvalues --   -0.87677  -0.85693  -0.85428  -0.84370  -0.83710
 Alpha  occ. eigenvalues --   -0.82260  -0.81468  -0.81105  -0.79297  -0.77788
 Alpha  occ. eigenvalues --   -0.77732  -0.77218  -0.76614  -0.76342  -0.76145
 Alpha  occ. eigenvalues --   -0.75672  -0.74590  -0.72694  -0.70940  -0.69853
 Alpha  occ. eigenvalues --   -0.68660  -0.67005  -0.65150  -0.64657  -0.64536
 Alpha  occ. eigenvalues --   -0.63463  -0.62327  -0.61766  -0.60642  -0.59630
 Alpha  occ. eigenvalues --   -0.58547  -0.58174  -0.58058  -0.57164  -0.56016
 Alpha  occ. eigenvalues --   -0.55767  -0.55397  -0.55331  -0.54485  -0.54173
 Alpha  occ. eigenvalues --   -0.53751  -0.53613  -0.52985  -0.52671  -0.52524
 Alpha  occ. eigenvalues --   -0.51690  -0.51008  -0.50964  -0.50590  -0.50094
 Alpha  occ. eigenvalues --   -0.50038  -0.49874  -0.49474  -0.49074  -0.48853
 Alpha  occ. eigenvalues --   -0.48672  -0.48634  -0.47899  -0.47589  -0.47452
 Alpha  occ. eigenvalues --   -0.46542  -0.46137  -0.45749  -0.45520  -0.45368
 Alpha  occ. eigenvalues --   -0.45016  -0.44841  -0.44713  -0.44600  -0.44527
 Alpha  occ. eigenvalues --   -0.44382  -0.43420  -0.43228  -0.42951  -0.42793
 Alpha  occ. eigenvalues --   -0.42263  -0.42023  -0.41724  -0.41196  -0.41026
 Alpha  occ. eigenvalues --   -0.40479  -0.40450  -0.40234  -0.39937  -0.39713
 Alpha  occ. eigenvalues --   -0.39587  -0.39147  -0.39017  -0.38793  -0.38492
 Alpha  occ. eigenvalues --   -0.38192  -0.37939  -0.37596  -0.37227  -0.37048
 Alpha  occ. eigenvalues --   -0.36819  -0.36042  -0.35686  -0.35003  -0.33483
 Alpha  occ. eigenvalues --   -0.33289  -0.32368  -0.32039  -0.31564  -0.30715
 Alpha  occ. eigenvalues --   -0.28916  -0.27182  -0.24168  -0.18526
 Alpha virt. eigenvalues --   -0.06473  -0.00414   0.03217   0.05172   0.07191
 Alpha virt. eigenvalues --    0.07789   0.09660   0.11540   0.12307   0.12745
 Alpha virt. eigenvalues --    0.13061   0.13683   0.13787   0.14218   0.14612

 Mulliken charges:
               1
     1  O   -0.521141
     2  O   -0.575916
     3  O   -0.563097
     4  O   -0.510669
     5  C    0.179088
     6  C    0.301656
     7  C    0.000847
     8  C   -0.225903
     9  C   -0.177504
    10  C    0.181421
    11  C   -0.364994
    12  C   -0.101769
    13  C   -0.278616
    14  C   -0.330641
    15  C   -0.044839
    16  C    0.058910
    17  C   -0.358312
    18  C   -0.132411
    19  C   -0.063491
    20  C    0.021378
    21  C    0.234572
    22  C   -0.183087
    23  C    0.137459
    24  C   -0.190326
    25  C   -0.069847
    26  C   -0.273203
    27  C   -0.304771
    28  C   -0.315272
    29  C   -0.126795
    30  C    0.201786
    31  C    0.067602
    32  C   -0.336679
    33  C   -0.366580
    34  C   -0.096325
    35  C    0.056923
    36  C   -0.380268
    37  C   -0.107137
    38  C   -0.100260
    39  C   -0.060828
    40  C   -0.064760
    41  C   -0.117904
    42  C   -0.126774
    43  C    0.092815
    44  C   -0.374662
    45  H    0.101325
    46  H    0.102313
    47  H    0.111478
    48  H    0.087497
    49  H    0.106300
    50  H    0.098017
    51  H    0.107646
    52  H    0.119900
    53  H    0.097876
    54  H    0.112759
    55  H    0.113158
    56  H    0.062284
    57  H    0.144641
    58  H    0.085447
    59  H    0.111130
    60  H    0.309112
    61  H    0.051621
    62  H    0.127064
    63  H    0.104322
    64  H    0.111702
    65  H    0.097851
    66  H    0.082513
    67  H    0.073189
    68  H    0.114221
    69  H    0.061691
    70  H    0.093873
    71  H    0.129065
    72  H    0.104454
    73  H    0.101056
    74  H    0.086602
    75  H    0.122558
    76  H    0.117218
    77  H    0.056767
    78  H    0.114469
    79  H    0.072381
    80  H    0.145014
    81  H    0.085289
    82  H    0.311300
    83  H    0.297779
    84  H    0.110555
    85  H    0.132066
    86  H    0.120159
    87  H    0.107919
    88  H    0.074284
    89  H    0.118938
    90  H    0.154903
    91  H    0.127184
    92  H    0.069956
    93  H    0.066381
    94  H    0.102026
    95  H    0.054652
    96  H    0.096367
    97  H    0.073578
    98  H    0.123223
    99  H    0.135264
   100  H    0.109983
 Sum of Mulliken charges =  -0.00000

 Dipole moment (field-independent basis, Debye):
    X=              4.9258    Y=             -0.4366    Z=              1.8221  Tot=              5.2701
 Quadrupole moment (field-independent basis, Debye-Ang):
   XX=           -249.4327   YY=           -257.9457   ZZ=           -276.8721
   XY=              2.5662   XZ=             20.1692   YZ=              0.2272

 Normal termination of Gaussian 16 at Thu Aug  1 00:35:26 2019.
