 Gaussian 16, Revision A.03,
 Gaussian 16:  ES64L-G16RevA.03 25-Dec-2016

 -------------------------------------
 # td=(NStates=1) CAM-B3LYP/6-31G(d,p)
 -------------------------------------

 --
 TD
 --
 Symbolic Z-matrix:
 Charge =  0 Multiplicity = 1

                         Standard orientation:
 ---------------------------------------------------------------------
 Center     Atomic      Atomic             Coordinates (Angstroms)
 Number     Number       Type             X           Y           Z
 ---------------------------------------------------------------------
      1          8           0      -11.796668    0.468015   -1.391184
      2          8           0      -13.127981   -2.540340    1.228952
      3          8           0       10.591004   -0.733504   -2.178760
      4          8           0       14.579445   -0.762933   -0.297170
      5          6           0      -11.076742   -0.069758   -0.320073
      6          6           0      -11.690965   -0.985878   -1.208105
      7          6           0      -11.732843    0.305161    1.006058
      8          6           0      -13.013052   -1.654986   -1.080518
      9          6           0      -13.226536   -0.136555    0.888006
     10          6           0      -13.554900   -1.516133    0.381727
     11          6           0      -10.927575   -1.626982   -2.377876
     12          6           0       -9.614832    0.100901   -0.315287
     13          6           0      -10.963154   -0.286949    2.283518
     14          6           0      -11.689699    1.806276    1.178137
     15          6           0       -8.580216   -0.778492    0.026265
     16          6           0       -7.216920   -0.597040    0.013787
     17          6           0       -6.329971   -1.736149    0.298933
     18          6           0       -6.552390    0.642419   -0.179859
     19          6           0       -5.155127    0.889495   -0.216951
     20          6           0       11.901474   -0.068389    1.305920
     21          6           0       11.677118   -0.426144   -1.270329
     22          6           0       12.730283   -1.324129    1.322619
     23          6           0       13.483617   -1.618638    0.001242
     24          6           0       12.538608   -1.677535   -1.098755
     25          6           0       11.051493   -0.054343    0.019567
     26          6           0       11.066552   -0.040636    2.588071
     27          6           0       12.821579    1.188634    1.424501
     28          6           0       12.462214    0.722743   -2.002961
     29          6           0       -4.626367    2.090666   -0.516348
     30          6           0        9.801966    0.316018    0.074383
     31          6           0       -3.336136    2.560784   -0.424618
     32          6           0        8.582578    0.814959   -0.067428
     33          6           0       -3.037986    3.986178   -0.609987
     34          6           0       -2.326873    1.574584   -0.235127
     35          6           0        7.424055   -0.077903    0.040652
     36          6           0        7.552277   -1.501815    0.123875
     37          6           0        6.215329    0.540741   -0.008571
     38          6           0       -0.894419    1.865648   -0.128386
     39          6           0        4.901084    0.037251    0.277096
     40          6           0        0.109279    0.845083    0.064251
     41          6           0        3.713493    0.721853    0.071250
     42          6           0        1.364403    1.192641    0.061788
     43          6           0        2.407832    0.261867    0.175800
     44          6           0        2.216454   -1.213238    0.386606
     45          1           0      -13.263479   -2.664253   -1.225778
     46          1           0      -13.755716   -1.117517   -1.719829
     47          1           0      -13.746241    0.068257    1.792466
     48          1           0      -13.628389    0.567534    0.170320
     49          1           0      -14.554827   -1.589181    0.330965
     50          1           0      -10.360627   -2.588193   -2.116571
     51          1           0      -11.482563   -1.818786   -3.284152
     52          1           0      -10.299116   -0.758039   -2.671432
     53          1           0       -9.463675    1.071739   -0.690358
     54          1           0      -10.026923    0.191273    2.466784
     55          1           0      -11.360947    0.009563    3.054711
     56          1           0      -11.064486   -1.398332    2.197046
     57          1           0      -12.185652    2.335395    0.308357
     58          1           0      -11.986653    2.225520    2.075916
     59          1           0      -10.522577    2.076919    1.367175
     60          1           0      -12.143592   -2.747460    1.075585
     61          1           0       -8.906084   -1.674770    0.237079
     62          1           0       -5.262893   -1.752840   -0.338912
     63          1           0       -6.243487   -1.703347    1.570878
     64          1           0       -6.892966   -2.725596    0.160384
     65          1           0       -7.204873    1.608046   -0.525499
     66          1           0       -4.502011   -0.028693    0.176251
     67          1           0       13.404551   -1.378852    2.233541
     68          1           0       11.970779   -1.987968    1.503212
     69          1           0       13.965757   -2.614116    0.136495
     70          1           0       12.956129   -1.895940   -2.051786
     71          1           0       11.881524   -2.668750   -1.168573
     72          1           0       11.935320   -0.032654    3.364607
     73          1           0       10.532465    0.808677    2.675945
     74          1           0       10.453683   -0.801951    2.395858
     75          1           0       13.542121    1.226191    0.597418
     76          1           0       11.965053    2.051751    1.478377
     77          1           0       13.225442    1.010134    2.408914
     78          1           0       12.802857    0.493293   -2.890997
     79          1           0       11.895976    1.518543   -1.923493
     80          1           0       13.534834    0.984397   -1.475013
     81          1           0       -5.441283    3.002342   -0.526746
     82          1           0        9.709224   -0.058439   -1.978009
     83          1           0       15.256457   -0.854230    0.422383
     84          1           0        8.430700    1.904521    0.118731
     85          1           0       -2.320267    4.201954    0.180044
     86          1           0       -2.483622    4.194069   -1.530826
     87          1           0       -3.884572    4.681984   -0.389834
     88          1           0       -2.642887    0.457126   -0.221744
     89          1           0        6.561715   -1.894843   -0.207824
     90          1           0        8.394481   -2.093757   -0.505114
     91          1           0        7.591930   -1.832781    1.068454
     92          1           0        6.242954    1.612857   -0.115617
     93          1           0       -0.491423    2.923300   -0.229293
     94          1           0        4.903172   -1.180797    0.534335
     95          1           0        0.017278   -0.258882   -0.056431
     96          1           0        4.037093    1.790102   -0.107938
     97          1           0        1.530071    2.198473   -0.334858
     98          1           0        1.236796   -1.419296    0.476921
     99          1           0        2.805695   -1.908274   -0.336035
    100          1           0        2.521478   -1.648577    1.431577
 ---------------------------------------------------------------------

 SCF Done:  E(RCAM-B3LYP) =  -1857.26336404     A.U. after   15 cycles

 Excitation energies and oscillator strengths:

 Excited State   1:      Singlet-A      1.8831 eV  658.41 nm  f=3.0480  <S**2>=0.000
     163 ->166        -0.12371
     164 ->165         0.70195
     164 <-165        -0.11963
 This state for optimization and/or second-order correction.
 Total Energy, E(TD-HF/TD-DFT) =  -1857.19416205
 Copying the excited state density for this state as the 1-particle RhoCI density.

 The electronic state is 1-A.
 Alpha  occ. eigenvalues --  -19.22588 -19.22225 -19.21801 -19.19690 -10.32147
 Alpha  occ. eigenvalues --  -10.31723 -10.31220 -10.31172 -10.29108 -10.28960
 Alpha  occ. eigenvalues --  -10.28452 -10.27877 -10.27708 -10.27659 -10.27532
 Alpha  occ. eigenvalues --  -10.27487 -10.27445 -10.27381 -10.27316 -10.27247
 Alpha  occ. eigenvalues --  -10.27225 -10.27047 -10.26885 -10.26806 -10.26674
 Alpha  occ. eigenvalues --  -10.26465 -10.26441 -10.26353 -10.26296 -10.25992
 Alpha  occ. eigenvalues --  -10.25970 -10.25714 -10.25622 -10.25611 -10.25322
 Alpha  occ. eigenvalues --  -10.25076 -10.25022 -10.24961 -10.24909 -10.24898
 Alpha  occ. eigenvalues --  -10.23416 -10.23359 -10.23122 -10.22221  -1.16790
 Alpha  occ. eigenvalues --   -1.10003  -1.09560  -1.05535  -0.93728  -0.93108
 Alpha  occ. eigenvalues --   -0.92479  -0.91905  -0.91283  -0.90199  -0.87646
 Alpha  occ. eigenvalues --   -0.87172  -0.86524  -0.85722  -0.85186  -0.83161
 Alpha  occ. eigenvalues --   -0.82359  -0.81016  -0.80776  -0.78939  -0.77986
 Alpha  occ. eigenvalues --   -0.77275  -0.76887  -0.76633  -0.76213  -0.75915
 Alpha  occ. eigenvalues --   -0.75592  -0.75242  -0.72729  -0.71817  -0.70109
 Alpha  occ. eigenvalues --   -0.68998  -0.67138  -0.66543  -0.65498  -0.64057
 Alpha  occ. eigenvalues --   -0.63608  -0.62132  -0.60971  -0.59664  -0.59439
 Alpha  occ. eigenvalues --   -0.58915  -0.58125  -0.57869  -0.56934  -0.56685
 Alpha  occ. eigenvalues --   -0.55929  -0.55696  -0.55066  -0.54980  -0.54155
 Alpha  occ. eigenvalues --   -0.53912  -0.53740  -0.53302  -0.52763  -0.51950
 Alpha  occ. eigenvalues --   -0.50950  -0.50839  -0.50350  -0.50247  -0.50080
 Alpha  occ. eigenvalues --   -0.49884  -0.49643  -0.49367  -0.49221  -0.48864
 Alpha  occ. eigenvalues --   -0.48407  -0.48172  -0.47795  -0.47580  -0.47120
 Alpha  occ. eigenvalues --   -0.46601  -0.46351  -0.46293  -0.46039  -0.45749
 Alpha  occ. eigenvalues --   -0.44951  -0.44895  -0.44528  -0.44377  -0.44242
 Alpha  occ. eigenvalues --   -0.43911  -0.43665  -0.43567  -0.42645  -0.42575
 Alpha  occ. eigenvalues --   -0.42306  -0.42082  -0.41826  -0.41620  -0.41559
 Alpha  occ. eigenvalues --   -0.41483  -0.41361  -0.40553  -0.39939  -0.39657
 Alpha  occ. eigenvalues --   -0.39478  -0.39233  -0.38577  -0.38564  -0.38402
 Alpha  occ. eigenvalues --   -0.37784  -0.37742  -0.37525  -0.36868  -0.36790
 Alpha  occ. eigenvalues --   -0.36669  -0.35595  -0.35334  -0.34669  -0.33819
 Alpha  occ. eigenvalues --   -0.32696  -0.32321  -0.31978  -0.31407  -0.30658
 Alpha  occ. eigenvalues --   -0.29724  -0.27724  -0.24067  -0.18843
 Alpha virt. eigenvalues --   -0.07093  -0.01258   0.02816   0.06065   0.06778
 Alpha virt. eigenvalues --    0.09167   0.09615   0.09985   0.10413   0.11356
 Alpha virt. eigenvalues --    0.12010   0.12146   0.12624   0.12841   0.13346

 Mulliken charges:
               1
     1  O   -0.506458
     2  O   -0.546232
     3  O   -0.614034
     4  O   -0.548965
     5  C    0.243381
     6  C    0.199513
     7  C    0.009081
     8  C   -0.234602
     9  C   -0.193991
    10  C    0.159929
    11  C   -0.328097
    12  C   -0.105550
    13  C   -0.287501
    14  C   -0.313261
    15  C   -0.057036
    16  C    0.113295
    17  C   -0.364380
    18  C   -0.121275
    19  C   -0.052718
    20  C   -0.055739
    21  C    0.268843
    22  C   -0.173308
    23  C    0.165738
    24  C   -0.200455
    25  C   -0.037155
    26  C   -0.268062
    27  C   -0.267820
    28  C   -0.271215
    29  C   -0.135782
    30  C    0.112395
    31  C    0.114586
    32  C   -0.304560
    33  C   -0.380853
    34  C   -0.116617
    35  C    0.136895
    36  C   -0.390609
    37  C   -0.112158
    38  C   -0.134780
    39  C   -0.090700
    40  C   -0.073519
    41  C   -0.116474
    42  C   -0.080072
    43  C    0.087942
    44  C   -0.366256
    45  H    0.119539
    46  H    0.122098
    47  H    0.091634
    48  H    0.109221
    49  H    0.096320
    50  H    0.097637
    51  H    0.118383
    52  H    0.121470
    53  H    0.104242
    54  H    0.106711
    55  H    0.112266
    56  H    0.070794
    57  H    0.117104
    58  H    0.116033
    59  H    0.070269
    60  H    0.304375
    61  H    0.053560
    62  H    0.110333
    63  H    0.098310
    64  H    0.103252
    65  H    0.071211
    66  H    0.088293
    67  H    0.069205
    68  H    0.108217
    69  H    0.076910
    70  H    0.119691
    71  H    0.102860
    72  H    0.084323
    73  H    0.111314
    74  H    0.107852
    75  H    0.125426
    76  H    0.073149
    77  H    0.087541
    78  H    0.121631
    79  H    0.099080
    80  H    0.089259
    81  H    0.064463
    82  H    0.309980
    83  H    0.312129
    84  H    0.119733
    85  H    0.125884
    86  H    0.136055
    87  H    0.113854
    88  H    0.086687
    89  H    0.109578
    90  H    0.121336
    91  H    0.137984
    92  H    0.069927
    93  H    0.089916
    94  H    0.056175
    95  H    0.093150
    96  H    0.078038
    97  H    0.090356
    98  H    0.111054
    99  H    0.123564
   100  H    0.109264
 Sum of Mulliken charges =  -0.00000

 Dipole moment (field-independent basis, Debye):
    X=              1.0902    Y=             -0.7862    Z=              2.3291  Tot=              2.6891
 Quadrupole moment (field-independent basis, Debye-Ang):
   XX=           -276.7320   YY=           -256.5335   ZZ=           -280.7210
   XY=             -6.1748   XZ=             34.5923   YZ=              0.4744

 Normal termination of Gaussian 16 at Thu Aug  1 16:27:33 2019.
