 Gaussian 16, Revision A.03,
 Gaussian 16:  ES64L-G16RevA.03 25-Dec-2016

 -------------------------------------
 # td=(NStates=1) CAM-B3LYP/6-31G(d,p)
 -------------------------------------

 --
 TD
 --
 Symbolic Z-matrix:
 Charge =  0 Multiplicity = 1

                         Standard orientation:
 ---------------------------------------------------------------------
 Center     Atomic      Atomic             Coordinates (Angstroms)
 Number     Number       Type             X           Y           Z
 ---------------------------------------------------------------------
      1          8           0      -11.792383    0.139839   -1.469629
      2          8           0      -12.821554   -2.554214    1.527555
      3          8           0       10.499277   -1.130144   -1.991118
      4          8           0       14.416154   -1.209806   -0.061565
      5          6           0      -11.067126   -0.084166   -0.251855
      6          6           0      -11.665075   -1.227199   -1.156378
      7          6           0      -11.793999    0.376904    1.040082
      8          6           0      -12.966335   -1.870971   -0.796437
      9          6           0      -13.223673   -0.173933    1.039212
     10          6           0      -13.438156   -1.610312    0.557322
     11          6           0      -10.901889   -2.086170   -2.127305
     12          6           0       -9.622250    0.175703   -0.342535
     13          6           0      -11.039753   -0.113508    2.233146
     14          6           0      -11.784173    1.856903    0.959682
     15          6           0       -8.708825   -0.793979    0.015654
     16          6           0       -7.236601   -0.487056    0.015534
     17          6           0       -6.335067   -1.778124    0.324246
     18          6           0       -6.602875    0.780306   -0.115347
     19          6           0       -5.192320    0.978138   -0.149334
     20          6           0       12.002775    0.081800    1.306257
     21          6           0       11.668933   -0.712750   -1.145318
     22          6           0       12.721741   -1.135001    1.626309
     23          6           0       13.372025   -1.887613    0.406076
     24          6           0       12.379617   -1.997938   -0.712114
     25          6           0       11.173736    0.044845    0.068475
     26          6           0       11.116455    0.572657    2.501008
     27          6           0       13.055420    1.294581    1.179748
     28          6           0       12.571003    0.097518   -2.024132
     29          6           0       -4.732955    2.304937   -0.374220
     30          6           0        9.879364    0.493052   -0.012563
     31          6           0       -3.391153    2.678577   -0.506655
     32          6           0        8.676027    0.932490   -0.232944
     33          6           0       -3.102528    4.121735   -0.652782
     34          6           0       -2.328313    1.659520   -0.396971
     35          6           0        7.440236    0.131601    0.022494
     36          6           0        7.621958   -1.340197    0.285750
     37          6           0        6.214203    0.698493   -0.099381
     38          6           0       -0.978134    2.020481   -0.344530
     39          6           0        4.932209    0.087889    0.011148
     40          6           0        0.045621    1.020888   -0.149138
     41          6           0        3.775428    0.805732   -0.349479
     42          6           0        1.405176    1.212429   -0.355155
     43          6           0        2.446048    0.252811   -0.223021
     44          6           0        2.197809   -1.120553    0.191222
     45          1           0      -12.856463   -2.837400   -0.926678
     46          1           0      -13.781380   -1.551810   -1.494328
     47          1           0      -13.717497   -0.086440    2.010611
     48          1           0      -13.814505    0.425890    0.238915
     49          1           0      -14.380817   -1.925038    0.409879
     50          1           0      -10.564787   -3.110615   -1.690406
     51          1           0      -11.721217   -1.981442   -2.998051
     52          1           0       -9.950188   -1.364591   -2.405727
     53          1           0       -9.476773    0.937210   -1.016302
     54          1           0      -10.136212    0.680758    2.385460
     55          1           0      -11.731983    0.145271    3.126817
     56          1           0      -10.875256   -1.106410    2.304566
     57          1           0      -12.239137    2.358629    0.059537
     58          1           0      -12.385955    2.294922    1.867536
     59          1           0      -10.773794    2.281519    1.062263
     60          1           0      -11.922278   -2.578345    1.177353
     61          1           0       -9.122772   -1.510290    0.593091
     62          1           0       -5.703061   -2.048362   -0.496085
     63          1           0       -5.748404   -1.548432    1.196870
     64          1           0       -6.767212   -2.705742    0.281828
     65          1           0       -7.164005    1.701661   -0.360547
     66          1           0       -4.296877    0.169488   -0.372607
     67          1           0       13.523516   -1.028811    2.471756
     68          1           0       11.913334   -1.716069    2.342525
     69          1           0       13.750758   -2.928321    0.709047
     70          1           0       12.786053   -2.453666   -1.585600
     71          1           0       11.566871   -2.772423   -0.408028
     72          1           0       11.704077    0.550852    3.365896
     73          1           0       10.974686    1.625660    2.360251
     74          1           0       10.012155    0.132684    2.617716
     75          1           0       13.801857    1.214374    0.686809
     76          1           0       12.352097    2.084510    0.911601
     77          1           0       13.411153    1.551679    2.260310
     78          1           0       12.934563   -0.455821   -2.892729
     79          1           0       12.051442    0.899285   -2.544656
     80          1           0       13.628439    0.358452   -1.494454
     81          1           0       -5.578662    3.063335   -0.533774
     82          1           0       10.111785   -0.415656   -2.218168
     83          1           0       14.887814   -0.643413    0.810861
     84          1           0        8.556276    1.949508   -0.709323
     85          1           0       -2.479364    4.560871    0.075041
     86          1           0       -2.556715    4.406634   -1.636531
     87          1           0       -3.960541    4.815001   -0.795658
     88          1           0       -2.615173    0.659544   -0.113268
     89          1           0        6.702126   -1.759745   -0.099383
     90          1           0        8.535271   -1.726993   -0.202366
     91          1           0        7.719053   -1.535661    1.496191
     92          1           0        6.033651    1.881656   -0.449340
     93          1           0       -0.518009    3.025251   -0.387809
     94          1           0        4.733935   -0.911722    0.321442
     95          1           0       -0.415216    0.083887   -0.024437
     96          1           0        3.706710    1.941883   -0.718337
     97          1           0        1.577232    2.189701   -0.775523
     98          1           0        1.166999   -1.480772   -0.548622
     99          1           0        3.162017   -1.926975   -0.353235
    100          1           0        2.030906   -1.407666    1.471248
 ---------------------------------------------------------------------

 SCF Done:  E(RCAM-B3LYP) =  -1857.21852414     A.U. after   16 cycles

 Excitation energies and oscillator strengths:

 Excited State   1:      Singlet-A      1.8170 eV  682.37 nm  f=2.6243  <S**2>=0.000
     163 ->166        -0.11246
     164 ->165         0.70610
     164 <-165        -0.13170
 This state for optimization and/or second-order correction.
 Total Energy, E(TD-HF/TD-DFT) =  -1857.15175161
 Copying the excited state density for this state as the 1-particle RhoCI density.

 The electronic state is 1-A.
 Alpha  occ. eigenvalues --  -19.23636 -19.22510 -19.20880 -19.19417 -10.31945
 Alpha  occ. eigenvalues --  -10.31731 -10.31658 -10.31640 -10.31631 -10.29388
 Alpha  occ. eigenvalues --  -10.29129 -10.28603 -10.28345 -10.28336 -10.28227
 Alpha  occ. eigenvalues --  -10.27993 -10.27704 -10.27696 -10.27654 -10.27612
 Alpha  occ. eigenvalues --  -10.27471 -10.27401 -10.27395 -10.27382 -10.27314
 Alpha  occ. eigenvalues --  -10.27277 -10.27185 -10.27177 -10.26965 -10.26599
 Alpha  occ. eigenvalues --  -10.26363 -10.26143 -10.26107 -10.26105 -10.25771
 Alpha  occ. eigenvalues --  -10.25540 -10.25480 -10.25272 -10.25032 -10.25013
 Alpha  occ. eigenvalues --  -10.24932 -10.24589 -10.24153 -10.24131  -1.15586
 Alpha  occ. eigenvalues --   -1.12214  -1.10187  -1.08199  -0.93766  -0.92114
 Alpha  occ. eigenvalues --   -0.91907  -0.91267  -0.90131  -0.89516  -0.88655
 Alpha  occ. eigenvalues --   -0.87120  -0.86982  -0.85444  -0.84445  -0.82336
 Alpha  occ. eigenvalues --   -0.81877  -0.81282  -0.80350  -0.78294  -0.77263
 Alpha  occ. eigenvalues --   -0.76698  -0.76594  -0.76453  -0.76161  -0.76130
 Alpha  occ. eigenvalues --   -0.74404  -0.74258  -0.72022  -0.70345  -0.69538
 Alpha  occ. eigenvalues --   -0.68609  -0.66720  -0.65773  -0.65494  -0.63731
 Alpha  occ. eigenvalues --   -0.63397  -0.62281  -0.60441  -0.60307  -0.59063
 Alpha  occ. eigenvalues --   -0.58760  -0.58648  -0.57824  -0.57258  -0.56925
 Alpha  occ. eigenvalues --   -0.55773  -0.55363  -0.55058  -0.54949  -0.54209
 Alpha  occ. eigenvalues --   -0.53788  -0.53201  -0.52894  -0.52466  -0.51987
 Alpha  occ. eigenvalues --   -0.51507  -0.51129  -0.50791  -0.50674  -0.49755
 Alpha  occ. eigenvalues --   -0.49545  -0.49199  -0.48774  -0.48575  -0.48031
 Alpha  occ. eigenvalues --   -0.47881  -0.47572  -0.47036  -0.46979  -0.46587
 Alpha  occ. eigenvalues --   -0.46263  -0.46131  -0.45762  -0.45523  -0.45172
 Alpha  occ. eigenvalues --   -0.45101  -0.44671  -0.44193  -0.43959  -0.43686
 Alpha  occ. eigenvalues --   -0.43486  -0.43300  -0.43143  -0.43028  -0.42546
 Alpha  occ. eigenvalues --   -0.42368  -0.42321  -0.41800  -0.41696  -0.41557
 Alpha  occ. eigenvalues --   -0.41274  -0.41144  -0.40478  -0.40194  -0.40109
 Alpha  occ. eigenvalues --   -0.39727  -0.39662  -0.39484  -0.38764  -0.38231
 Alpha  occ. eigenvalues --   -0.38176  -0.38085  -0.37602  -0.37334  -0.36751
 Alpha  occ. eigenvalues --   -0.35815  -0.35516  -0.35095  -0.34198  -0.33484
 Alpha  occ. eigenvalues --   -0.33409  -0.32441  -0.32325  -0.31743  -0.30817
 Alpha  occ. eigenvalues --   -0.28722  -0.27974  -0.24494  -0.18807
 Alpha virt. eigenvalues --   -0.07304  -0.00792   0.02538   0.04933   0.05583
 Alpha virt. eigenvalues --    0.07086   0.09543   0.09793   0.10109   0.10792
 Alpha virt. eigenvalues --    0.11101   0.12015   0.12568   0.13072   0.13310

 Mulliken charges:
               1
     1  O   -0.507627
     2  O   -0.560024
     3  O   -0.543938
     4  O   -0.522772
     5  C    0.182112
     6  C    0.210955
     7  C    0.036109
     8  C   -0.215903
     9  C   -0.177085
    10  C    0.150492
    11  C   -0.312092
    12  C   -0.087640
    13  C   -0.284582
    14  C   -0.317517
    15  C   -0.077888
    16  C    0.036315
    17  C   -0.369600
    18  C   -0.122765
    19  C   -0.058051
    20  C    0.020706
    21  C    0.227825
    22  C   -0.228185
    23  C    0.193250
    24  C   -0.190276
    25  C   -0.017291
    26  C   -0.309948
    27  C   -0.281029
    28  C   -0.308077
    29  C   -0.136248
    30  C    0.149453
    31  C    0.111384
    32  C   -0.302240
    33  C   -0.392101
    34  C   -0.131657
    35  C    0.090460
    36  C   -0.361470
    37  C   -0.097204
    38  C   -0.079208
    39  C   -0.103644
    40  C   -0.089073
    41  C   -0.101929
    42  C   -0.122913
    43  C    0.139788
    44  C   -0.337658
    45  H    0.113205
    46  H    0.111624
    47  H    0.105824
    48  H    0.091829
    49  H    0.100580
    50  H    0.107402
    51  H    0.110997
    52  H    0.105116
    53  H    0.110001
    54  H    0.091515
    55  H    0.093854
    56  H    0.104045
    57  H    0.121414
    58  H    0.086626
    59  H    0.104627
    60  H    0.297336
    61  H    0.087797
    62  H    0.117479
    63  H    0.131522
    64  H    0.109994
    65  H    0.093307
    66  H    0.096013
    67  H    0.075810
    68  H    0.084982
    69  H    0.066251
    70  H    0.118199
    71  H    0.104594
    72  H    0.102316
    73  H    0.111924
    74  H    0.102465
    75  H    0.091435
    76  H    0.113219
    77  H    0.073753
    78  H    0.114052
    79  H    0.090571
    80  H    0.117297
    81  H    0.085408
    82  H    0.278186
    83  H    0.309800
    84  H    0.109538
    85  H    0.136449
    86  H    0.110389
    87  H    0.113695
    88  H    0.094029
    89  H    0.114679
    90  H    0.146244
    91  H    0.091514
    92  H    0.065787
    93  H    0.088074
    94  H    0.093565
    95  H    0.071805
    96  H    0.081185
    97  H    0.083516
    98  H    0.087659
    99  H    0.070784
   100  H    0.107505
 Sum of Mulliken charges =  -0.00000

 Dipole moment (field-independent basis, Debye):
    X=              1.7126    Y=              1.5173    Z=              0.9819  Tot=              2.4898
 Quadrupole moment (field-independent basis, Debye-Ang):
   XX=           -265.7790   YY=           -261.3344   ZZ=           -279.4218
   XY=             10.4203   XZ=             35.9890   YZ=             -2.0395

 Normal termination of Gaussian 16 at Mon Jul 29 19:04:44 2019.
