 Gaussian 16, Revision A.03,
 Gaussian 16:  ES64L-G16RevA.03 25-Dec-2016

 -------------------------------------
 # td=(NStates=1) CAM-B3LYP/6-31G(d,p)
 -------------------------------------

 --
 TD
 --
 Symbolic Z-matrix:
 Charge =  0 Multiplicity = 1

                         Standard orientation:
 ---------------------------------------------------------------------
 Center     Atomic      Atomic             Coordinates (Angstroms)
 Number     Number       Type             X           Y           Z
 ---------------------------------------------------------------------
      1          8           0      -11.571465    0.167817   -1.663185
      2          8           0      -12.856239   -2.413549    1.299324
      3          8           0       10.455018   -0.971896   -1.994760
      4          8           0       14.440941   -0.917986   -0.304687
      5          6           0      -11.021046   -0.195210   -0.269283
      6          6           0      -11.476000   -1.249848   -1.278309
      7          6           0      -11.741703    0.385930    0.916350
      8          6           0      -12.914547   -1.831968   -0.918906
      9          6           0      -13.211660   -0.085224    0.790584
     10          6           0      -13.471239   -1.543795    0.464923
     11          6           0      -10.697472   -1.997246   -2.152583
     12          6           0       -9.461892    0.057617   -0.318031
     13          6           0      -11.021755    0.064741    2.200835
     14          6           0      -11.847689    1.890261    0.747291
     15          6           0       -8.602709   -0.818566    0.109612
     16          6           0       -7.120771   -0.619447    0.301103
     17          6           0       -6.313877   -1.737788    0.743306
     18          6           0       -6.558742    0.605673   -0.051196
     19          6           0       -5.238719    0.944602    0.044314
     20          6           0       11.944253   -0.098222    1.353153
     21          6           0       11.520742   -0.472449   -1.223318
     22          6           0       12.825119   -1.353096    1.378759
     23          6           0       13.343913   -1.784044   -0.035771
     24          6           0       12.390992   -1.804119   -1.157974
     25          6           0       10.993585   -0.042846    0.175128
     26          6           0       11.170809   -0.027018    2.647792
     27          6           0       12.862190    1.181256    1.422708
     28          6           0       12.357326    0.542222   -2.073042
     29          6           0       -4.737835    2.145489   -0.259040
     30          6           0        9.827212    0.547550    0.196572
     31          6           0       -3.447564    2.551862   -0.382537
     32          6           0        8.608049    1.002702    0.032282
     33          6           0       -3.126438    4.051703   -0.741918
     34          6           0       -2.358767    1.651326   -0.215206
     35          6           0        7.384388    0.228442    0.038202
     36          6           0        7.635343   -1.281087    0.339254
     37          6           0        6.206416    0.706298   -0.146469
     38          6           0       -1.056976    1.829025   -0.322335
     39          6           0        4.874839    0.122456   -0.072666
     40          6           0       -0.043834    0.825220   -0.305291
     41          6           0        3.758296    0.869414   -0.200565
     42          6           0        1.319468    1.188969   -0.223761
     43          6           0        2.452131    0.304643    0.054236
     44          6           0        2.202803   -1.143565    0.261413
     45          1           0      -12.903091   -2.944770   -0.914187
     46          1           0      -13.603412   -1.335969   -1.623574
     47          1           0      -13.778087    0.085940    1.877695
     48          1           0      -13.669863    0.422377    0.166472
     49          1           0      -14.574550   -1.684684    0.482961
     50          1           0      -10.594838   -3.078799   -1.745962
     51          1           0      -11.295718   -2.011152   -3.120439
     52          1           0       -9.619435   -1.592659   -2.219224
     53          1           0       -9.152440    1.047934   -0.745605
     54          1           0      -10.237813    0.631872    2.214628
     55          1           0      -11.641944    0.706811    3.041026
     56          1           0      -11.058077   -1.037991    2.570749
     57          1           0      -12.125001    2.251895   -0.258435
     58          1           0      -12.476742    2.293316    1.495083
     59          1           0      -10.780514    2.294280    1.135421
     60          1           0      -11.874276   -2.343806    1.229844
     61          1           0       -8.834970   -1.785866    0.482661
     62          1           0       -5.745962   -1.907097   -0.174794
     63          1           0       -5.694438   -1.423581    1.411431
     64          1           0       -6.821480   -2.360417    1.135854
     65          1           0       -7.225716    1.360736   -0.312832
     66          1           0       -4.547919    0.254714    0.280948
     67          1           0       13.788031   -1.433616    2.171412
     68          1           0       12.102129   -2.111903    1.717893
     69          1           0       13.847153   -2.912025    0.066725
     70          1           0       13.041696   -2.110419   -2.008442
     71          1           0       11.701826   -2.513365   -0.843496
     72          1           0       11.747056   -0.363786    3.536298
     73          1           0       10.714283    0.995491    2.718143
     74          1           0       10.586559   -0.766081    2.468804
     75          1           0       13.594310    1.187345    0.530148
     76          1           0       12.230425    2.218327    1.427178
     77          1           0       13.466336    1.364842    2.380840
     78          1           0       12.636408    0.199259   -3.006187
     79          1           0       11.717808    1.367668   -2.185836
     80          1           0       13.195975    1.070249   -1.494539
     81          1           0       -5.553865    3.025872   -0.304400
     82          1           0        9.694528   -0.216825   -1.865029
     83          1           0       14.984101   -0.898206    0.551314
     84          1           0        8.397492    2.078336   -0.148258
     85          1           0       -2.375029    4.547758    0.091560
     86          1           0       -2.726916    4.197984   -1.721091
     87          1           0       -4.083119    4.451320   -0.825258
     88          1           0       -2.887167    0.544858   -0.094784
     89          1           0        6.783510   -1.992744    0.148806
     90          1           0        8.729792   -1.730997   -0.247184
     91          1           0        7.843756   -1.530606    1.348816
     92          1           0        6.269533    1.912103   -0.054735
     93          1           0       -0.668424    2.739934   -0.429633
     94          1           0        4.658751   -0.901432   -0.032740
     95          1           0       -0.230033   -0.148851   -0.407373
     96          1           0        3.819256    1.815539   -0.138272
     97          1           0        1.650465    2.061236   -0.422674
     98          1           0        1.208101   -1.372356    0.736782
     99          1           0        2.209445   -1.675697   -0.877107
    100          1           0        3.176241   -1.528561    0.891367
 ---------------------------------------------------------------------

 SCF Done:  E(RCAM-B3LYP) =  -1857.18723671     A.U. after   15 cycles

 Excitation energies and oscillator strengths:

 Excited State   1:      Singlet-A      1.9605 eV  632.41 nm  f=2.6932  <S**2>=0.000
     163 ->166        -0.10896
     164 ->165         0.70793
     164 <-165        -0.13306
 This state for optimization and/or second-order correction.
 Total Energy, E(TD-HF/TD-DFT) =  -1857.11519003
 Copying the excited state density for this state as the 1-particle RhoCI density.

 The electronic state is 1-A.
 Alpha  occ. eigenvalues --  -19.21733 -19.21552 -19.21153 -19.21056 -10.32825
 Alpha  occ. eigenvalues --  -10.32387 -10.32052 -10.31243 -10.30205 -10.28554
 Alpha  occ. eigenvalues --  -10.28290 -10.28195 -10.28186 -10.28151 -10.27900
 Alpha  occ. eigenvalues --  -10.27876 -10.27793 -10.27704 -10.27498 -10.27343
 Alpha  occ. eigenvalues --  -10.27213 -10.27040 -10.26808 -10.26747 -10.26632
 Alpha  occ. eigenvalues --  -10.26574 -10.26510 -10.26462 -10.26303 -10.26214
 Alpha  occ. eigenvalues --  -10.26163 -10.26061 -10.25778 -10.25767 -10.25336
 Alpha  occ. eigenvalues --  -10.25326 -10.25232 -10.25055 -10.25051 -10.24243
 Alpha  occ. eigenvalues --  -10.24169 -10.23288 -10.23095 -10.23034  -1.12156
 Alpha  occ. eigenvalues --   -1.10959  -1.08932  -1.08328  -0.93769  -0.93502
 Alpha  occ. eigenvalues --   -0.92591  -0.92361  -0.91733  -0.90766  -0.88542
 Alpha  occ. eigenvalues --   -0.86683  -0.86364  -0.85760  -0.85507  -0.84499
 Alpha  occ. eigenvalues --   -0.83123  -0.82542  -0.80225  -0.78593  -0.77962
 Alpha  occ. eigenvalues --   -0.77474  -0.77161  -0.76370  -0.75761  -0.75535
 Alpha  occ. eigenvalues --   -0.75255  -0.74828  -0.73540  -0.71490  -0.69705
 Alpha  occ. eigenvalues --   -0.68583  -0.67316  -0.66207  -0.65341  -0.64550
 Alpha  occ. eigenvalues --   -0.64127  -0.62512  -0.62016  -0.61381  -0.60356
 Alpha  occ. eigenvalues --   -0.59868  -0.58510  -0.57336  -0.56957  -0.56700
 Alpha  occ. eigenvalues --   -0.56197  -0.55689  -0.55629  -0.55445  -0.54412
 Alpha  occ. eigenvalues --   -0.53979  -0.53723  -0.53628  -0.52651  -0.52349
 Alpha  occ. eigenvalues --   -0.52062  -0.51869  -0.51054  -0.50839  -0.50732
 Alpha  occ. eigenvalues --   -0.49920  -0.49853  -0.49444  -0.48877  -0.48713
 Alpha  occ. eigenvalues --   -0.48014  -0.47823  -0.47716  -0.47515  -0.47082
 Alpha  occ. eigenvalues --   -0.46900  -0.46487  -0.46373  -0.46169  -0.45998
 Alpha  occ. eigenvalues --   -0.45507  -0.45264  -0.45067  -0.44686  -0.44123
 Alpha  occ. eigenvalues --   -0.44057  -0.43929  -0.43346  -0.43146  -0.42656
 Alpha  occ. eigenvalues --   -0.42270  -0.42022  -0.41915  -0.41633  -0.41614
 Alpha  occ. eigenvalues --   -0.41213  -0.41047  -0.40900  -0.40409  -0.39758
 Alpha  occ. eigenvalues --   -0.39632  -0.39594  -0.38937  -0.38720  -0.38708
 Alpha  occ. eigenvalues --   -0.38567  -0.38022  -0.37894  -0.37000  -0.36658
 Alpha  occ. eigenvalues --   -0.36511  -0.35900  -0.35779  -0.35351  -0.33636
 Alpha  occ. eigenvalues --   -0.32495  -0.32003  -0.31659  -0.31028  -0.30953
 Alpha  occ. eigenvalues --   -0.29918  -0.28813  -0.25444  -0.19161
 Alpha virt. eigenvalues --   -0.07103  -0.00357   0.02805   0.04712   0.06706
 Alpha virt. eigenvalues --    0.09233   0.09735   0.10129   0.10889   0.11644
 Alpha virt. eigenvalues --    0.12253   0.12536   0.12748   0.12999   0.14068

 Mulliken charges:
               1
     1  O   -0.533188
     2  O   -0.534400
     3  O   -0.563146
     4  O   -0.546513
     5  C    0.171928
     6  C    0.276584
     7  C   -0.004937
     8  C   -0.214373
     9  C   -0.142923
    10  C    0.146459
    11  C   -0.337736
    12  C   -0.127033
    13  C   -0.292068
    14  C   -0.310195
    15  C   -0.041975
    16  C    0.010581
    17  C   -0.314369
    18  C   -0.093686
    19  C   -0.034886
    20  C    0.014080
    21  C    0.238775
    22  C   -0.196782
    23  C    0.162230
    24  C   -0.167536
    25  C   -0.060010
    26  C   -0.285821
    27  C   -0.299948
    28  C   -0.291093
    29  C   -0.139619
    30  C    0.153117
    31  C    0.094208
    32  C   -0.307810
    33  C   -0.359391
    34  C   -0.099544
    35  C    0.189835
    36  C   -0.385600
    37  C   -0.152213
    38  C   -0.071542
    39  C   -0.093055
    40  C   -0.078859
    41  C   -0.050857
    42  C   -0.086783
    43  C    0.063357
    44  C   -0.360356
    45  H    0.100204
    46  H    0.107695
    47  H    0.060988
    48  H    0.105898
    49  H    0.098551
    50  H    0.091695
    51  H    0.127366
    52  H    0.123570
    53  H    0.117184
    54  H    0.128615
    55  H    0.077485
    56  H    0.102512
    57  H    0.138759
    58  H    0.118890
    59  H    0.067379
    60  H    0.307174
    61  H    0.064658
    62  H    0.139389
    63  H    0.134723
    64  H    0.092886
    65  H    0.066455
    66  H    0.071584
    67  H    0.067816
    68  H    0.090933
    69  H    0.035612
    70  H    0.123013
    71  H    0.117579
    72  H    0.095413
    73  H    0.106092
    74  H    0.109468
    75  H    0.113277
    76  H    0.071603
    77  H    0.092002
    78  H    0.122546
    79  H    0.087374
    80  H    0.113637
    81  H    0.067882
    82  H    0.303160
    83  H    0.306555
    84  H    0.110245
    85  H    0.105080
    86  H    0.132061
    87  H    0.113538
    88  H    0.050482
    89  H    0.102709
    90  H    0.090887
    91  H    0.131115
    92  H    0.060827
    93  H    0.077995
    94  H    0.085871
    95  H    0.078058
    96  H    0.071943
    97  H    0.058003
    98  H    0.121520
    99  H    0.103313
   100  H    0.095829
 Sum of Mulliken charges =  -0.00000

 Dipole moment (field-independent basis, Debye):
    X=             -1.2524    Y=              0.2605    Z=              2.8280  Tot=              3.1038
 Quadrupole moment (field-independent basis, Debye-Ang):
   XX=           -294.5253   YY=           -261.2825   ZZ=           -279.2434
   XY=              2.5629   XZ=             26.7207   YZ=             -2.6420

 Normal termination of Gaussian 16 at Tue Jul 30 02:00:26 2019.
