 Gaussian 16, Revision A.03,
 Gaussian 16:  ES64L-G16RevA.03 25-Dec-2016

 -------------------------------------
 # td=(NStates=1) CAM-B3LYP/6-31G(d,p)
 -------------------------------------

 --
 TD
 --
 Symbolic Z-matrix:
 Charge =  0 Multiplicity = 1

                         Standard orientation:
 ---------------------------------------------------------------------
 Center     Atomic      Atomic             Coordinates (Angstroms)
 Number     Number       Type             X           Y           Z
 ---------------------------------------------------------------------
      1          8           0      -11.659807   -0.085714   -1.717917
      2          8           0      -13.000403   -2.244733    1.631878
      3          8           0       10.482425   -1.191219   -2.033565
      4          8           0       14.430223   -0.995504   -0.247123
      5          6           0      -11.020568   -0.170691   -0.388358
      6          6           0      -11.618029   -1.306967   -1.199827
      7          6           0      -11.867572    0.551614    0.710301
      8          6           0      -12.989068   -1.819162   -0.858203
      9          6           0      -13.364126    0.048167    0.711944
     10          6           0      -13.576917   -1.451880    0.496568
     11          6           0      -10.624808   -2.228780   -1.900910
     12          6           0       -9.607218    0.133648   -0.391989
     13          6           0      -11.271933    0.251517    2.167700
     14          6           0      -11.744978    2.037294    0.521602
     15          6           0       -8.756523   -0.690173    0.232484
     16          6           0       -7.304471   -0.559177    0.283768
     17          6           0       -6.431404   -1.583071    0.716648
     18          6           0       -6.674683    0.562013   -0.016306
     19          6           0       -5.274724    0.922048   -0.035921
     20          6           0       12.051195    0.237840    1.275382
     21          6           0       11.606261   -0.752576   -1.287658
     22          6           0       12.813689   -1.112426    1.564443
     23          6           0       13.402551   -1.756148    0.302534
     24          6           0       12.366358   -2.028349   -0.792499
     25          6           0       11.158971   -0.003205    0.026888
     26          6           0       11.096435    0.510674    2.491270
     27          6           0       12.983511    1.322984    1.009259
     28          6           0       12.459838    0.228939   -2.141607
     29          6           0       -4.686947    2.142766   -0.321193
     30          6           0        9.873054    0.414180   -0.022441
     31          6           0       -3.342012    2.458080   -0.497016
     32          6           0        8.615602    0.938008   -0.177764
     33          6           0       -2.922106    3.843057   -0.778818
     34          6           0       -2.350818    1.416793   -0.330989
     35          6           0        7.464316    0.135862    0.101943
     36          6           0        7.737778   -1.233074    0.604350
     37          6           0        6.215664    0.726430   -0.125021
     38          6           0       -0.994787    1.828452   -0.302419
     39          6           0        4.973718    0.099519    0.085552
     40          6           0       -0.061354    0.890732   -0.105366
     41          6           0        3.749948    0.862226   -0.092332
     42          6           0        1.419742    1.096019   -0.230585
     43          6           0        2.488798    0.230301   -0.068436
     44          6           0        2.427682   -1.177924    0.428982
     45          1           0      -12.921704   -2.952392   -0.927983
     46          1           0      -13.639821   -1.736367   -1.718278
     47          1           0      -13.888722    0.275237    1.632408
     48          1           0      -13.946651    0.628145   -0.024200
     49          1           0      -14.596591   -1.647913    0.375632
     50          1           0      -10.456037   -3.154366   -1.225194
     51          1           0      -11.015996   -2.351858   -3.005678
     52          1           0       -9.614342   -1.861304   -2.099202
     53          1           0       -9.375849    1.169921   -0.818358
     54          1           0      -10.136592    0.488802    2.284116
     55          1           0      -12.008753    0.669450    2.859670
     56          1           0      -11.324084   -0.715063    2.328092
     57          1           0      -11.998048    2.467889   -0.434523
     58          1           0      -12.390043    2.629214    1.274466
     59          1           0      -10.652930    2.355921    0.557330
     60          1           0      -12.192030   -2.599979    1.273604
     61          1           0       -9.107136   -1.719857    0.562317
     62          1           0       -5.653332   -1.944971    0.011658
     63          1           0       -6.004453   -1.297664    1.657476
     64          1           0       -7.062176   -2.524781    0.938068
     65          1           0       -7.397951    1.295348   -0.337938
     66          1           0       -4.659500   -0.043123    0.139480
     67          1           0       13.646099   -0.757547    2.321144
     68          1           0       12.059568   -1.689537    2.079361
     69          1           0       13.799004   -2.685640    0.786637
     70          1           0       12.850747   -2.666784   -1.469296
     71          1           0       11.400910   -2.384124   -0.268318
     72          1           0       11.719974    0.617139    3.494674
     73          1           0       10.684842    1.354088    2.200552
     74          1           0       10.519127   -0.299269    2.688779
     75          1           0       13.648180    1.136137    0.249299
     76          1           0       12.442577    2.244995    0.596778
     77          1           0       13.573340    1.472215    2.062616
     78          1           0       12.653574   -0.006562   -3.034564
     79          1           0       12.040966    1.070472   -2.589756
     80          1           0       13.201415    0.835536   -1.659300
     81          1           0       -5.323376    2.928073   -0.396359
     82          1           0        9.846894   -0.269398   -2.133599
     83          1           0       15.130806   -0.949269    0.379646
     84          1           0        8.337343    1.950049   -0.668835
     85          1           0       -2.529863    4.336012    0.093035
     86          1           0       -2.143388    3.975323   -1.506438
     87          1           0       -3.758615    4.396474   -1.215816
     88          1           0       -2.472444    0.440612    0.043130
     89          1           0        6.859366   -1.950145    0.768547
     90          1           0        8.364250   -1.685080   -0.135855
     91          1           0        8.349753   -1.188417    1.551591
     92          1           0        6.182335    1.740080   -0.469074
     93          1           0       -0.677351    2.860546   -0.424871
     94          1           0        4.688073   -0.975368    0.390569
     95          1           0       -0.413814   -0.092494    0.020979
     96          1           0        3.758157    1.692072   -0.731757
     97          1           0        1.790860    1.888302   -0.646975
     98          1           0        1.536264   -1.513012    0.365185
     99          1           0        2.811268   -1.844657   -0.415484
    100          1           0        2.926013   -1.367079    1.308851
 ---------------------------------------------------------------------

 SCF Done:  E(RCAM-B3LYP) =  -1857.33754346     A.U. after   15 cycles

 Excitation energies and oscillator strengths:

 Excited State   1:      Singlet-A      2.2132 eV  560.20 nm  f=3.1007  <S**2>=0.000
     163 ->166        -0.15581
     164 ->165         0.68732
 This state for optimization and/or second-order correction.
 Total Energy, E(TD-HF/TD-DFT) =  -1857.25620881
 Copying the excited state density for this state as the 1-particle RhoCI density.

 The electronic state is 1-A.
 Alpha  occ. eigenvalues --  -19.22134 -19.22116 -19.21541 -19.21458 -10.33141
 Alpha  occ. eigenvalues --  -10.31798 -10.31407 -10.31211 -10.30963 -10.28402
 Alpha  occ. eigenvalues --  -10.28003 -10.27918 -10.27754 -10.27688 -10.27576
 Alpha  occ. eigenvalues --  -10.27527 -10.27485 -10.27159 -10.27142 -10.26835
 Alpha  occ. eigenvalues --  -10.26761 -10.26309 -10.26247 -10.26242 -10.26166
 Alpha  occ. eigenvalues --  -10.26094 -10.25938 -10.25809 -10.25794 -10.25752
 Alpha  occ. eigenvalues --  -10.25692 -10.25427 -10.25371 -10.25356 -10.25248
 Alpha  occ. eigenvalues --  -10.25160 -10.25086 -10.24944 -10.24731 -10.24676
 Alpha  occ. eigenvalues --  -10.23907 -10.23821 -10.23072 -10.21539  -1.17093
 Alpha  occ. eigenvalues --   -1.12093  -1.08112  -1.07941  -0.93074  -0.92925
 Alpha  occ. eigenvalues --   -0.92215  -0.91546  -0.90666  -0.90006  -0.87636
 Alpha  occ. eigenvalues --   -0.87018  -0.85865  -0.85110  -0.84682  -0.82863
 Alpha  occ. eigenvalues --   -0.82357  -0.80652  -0.80581  -0.79820  -0.77531
 Alpha  occ. eigenvalues --   -0.77397  -0.77091  -0.76650  -0.76400  -0.75962
 Alpha  occ. eigenvalues --   -0.75510  -0.74806  -0.73288  -0.70332  -0.69959
 Alpha  occ. eigenvalues --   -0.68678  -0.66894  -0.65360  -0.64252  -0.63835
 Alpha  occ. eigenvalues --   -0.63614  -0.62764  -0.61133  -0.60673  -0.59362
 Alpha  occ. eigenvalues --   -0.59225  -0.58343  -0.57936  -0.57634  -0.56731
 Alpha  occ. eigenvalues --   -0.56322  -0.55684  -0.55215  -0.55021  -0.54437
 Alpha  occ. eigenvalues --   -0.53876  -0.53674  -0.53275  -0.52691  -0.52511
 Alpha  occ. eigenvalues --   -0.52048  -0.51677  -0.50854  -0.50782  -0.50238
 Alpha  occ. eigenvalues --   -0.49985  -0.49497  -0.49365  -0.49154  -0.48972
 Alpha  occ. eigenvalues --   -0.48312  -0.48251  -0.47420  -0.47375  -0.47039
 Alpha  occ. eigenvalues --   -0.46539  -0.46392  -0.45858  -0.45813  -0.45099
 Alpha  occ. eigenvalues --   -0.44996  -0.44717  -0.44512  -0.44477  -0.44050
 Alpha  occ. eigenvalues --   -0.43561  -0.43485  -0.42854  -0.42706  -0.42504
 Alpha  occ. eigenvalues --   -0.42220  -0.42071  -0.42001  -0.41772  -0.41205
 Alpha  occ. eigenvalues --   -0.40897  -0.40789  -0.40666  -0.40270  -0.39960
 Alpha  occ. eigenvalues --   -0.39785  -0.39595  -0.39367  -0.38878  -0.38563
 Alpha  occ. eigenvalues --   -0.38198  -0.38026  -0.37859  -0.37372  -0.37214
 Alpha  occ. eigenvalues --   -0.36543  -0.36327  -0.35494  -0.34318  -0.33832
 Alpha  occ. eigenvalues --   -0.32621  -0.31935  -0.31604  -0.31440  -0.30892
 Alpha  occ. eigenvalues --   -0.29780  -0.28289  -0.23586  -0.19639
 Alpha virt. eigenvalues --   -0.05601  -0.01371   0.03240   0.05457   0.06603
 Alpha virt. eigenvalues --    0.09764   0.10046   0.10399   0.11455   0.12212
 Alpha virt. eigenvalues --    0.12602   0.13571   0.13731   0.14139   0.14279

 Mulliken charges:
               1
     1  O   -0.490340
     2  O   -0.549754
     3  O   -0.582089
     4  O   -0.519214
     5  C    0.154540
     6  C    0.274098
     7  C    0.036927
     8  C   -0.251789
     9  C   -0.195786
    10  C    0.159409
    11  C   -0.328880
    12  C   -0.104148
    13  C   -0.294646
    14  C   -0.308948
    15  C   -0.075438
    16  C    0.113778
    17  C   -0.405011
    18  C   -0.102299
    19  C   -0.072690
    20  C    0.009974
    21  C    0.284745
    22  C   -0.196523
    23  C    0.152524
    24  C   -0.174970
    25  C   -0.091783
    26  C   -0.280615
    27  C   -0.290330
    28  C   -0.297013
    29  C   -0.101978
    30  C    0.081181
    31  C    0.081038
    32  C   -0.257063
    33  C   -0.389184
    34  C   -0.115581
    35  C    0.138509
    36  C   -0.379299
    37  C   -0.124658
    38  C   -0.041475
    39  C   -0.092902
    40  C   -0.108097
    41  C   -0.138255
    42  C   -0.107231
    43  C    0.088865
    44  C   -0.365549
    45  H    0.088414
    46  H    0.126180
    47  H    0.103397
    48  H    0.103584
    49  H    0.107402
    50  H    0.082757
    51  H    0.098919
    52  H    0.130420
    53  H    0.118354
    54  H    0.091494
    55  H    0.100228
    56  H    0.108186
    57  H    0.113598
    58  H    0.092280
    59  H    0.091754
    60  H    0.307647
    61  H    0.079177
    62  H    0.127527
    63  H    0.138862
    64  H    0.078041
    65  H    0.052774
    66  H    0.069876
    67  H    0.064086
    68  H    0.099381
    69  H    0.075582
    70  H    0.117821
    71  H    0.111929
    72  H    0.071237
    73  H    0.121295
    74  H    0.114194
    75  H    0.140449
    76  H    0.089008
    77  H    0.070355
    78  H    0.107385
    79  H    0.080017
    80  H    0.111612
    81  H    0.072816
    82  H    0.309455
    83  H    0.305182
    84  H    0.108835
    85  H    0.135964
    86  H    0.129884
    87  H    0.109803
    88  H    0.094906
    89  H    0.101143
    90  H    0.145907
    91  H    0.118799
    92  H    0.082227
    93  H    0.086629
    94  H    0.092709
    95  H    0.076914
    96  H    0.085675
    97  H    0.060306
    98  H    0.107765
    99  H    0.109167
   100  H    0.138641
 Sum of Mulliken charges =  -0.00000

 Dipole moment (field-independent basis, Debye):
    X=              3.4630    Y=              0.0746    Z=              0.6704  Tot=              3.5281
 Quadrupole moment (field-independent basis, Debye-Ang):
   XX=           -257.6395   YY=           -257.9887   ZZ=           -280.1149
   XY=              5.1640   XZ=             30.9601   YZ=             -7.0233

 Normal termination of Gaussian 16 at Wed Jul 31 08:12:38 2019.
