 Gaussian 16, Revision A.03,
 Gaussian 16:  ES64L-G16RevA.03 25-Dec-2016

 -------------------------------------
 # td=(NStates=1) CAM-B3LYP/6-31G(d,p)
 -------------------------------------

 --
 TD
 --
 Symbolic Z-matrix:
 Charge =  0 Multiplicity = 1

                         Standard orientation:
 ---------------------------------------------------------------------
 Center     Atomic      Atomic             Coordinates (Angstroms)
 Number     Number       Type             X           Y           Z
 ---------------------------------------------------------------------
      1          8           0      -11.624370    0.182124   -1.636303
      2          8           0      -12.850385   -2.489324    1.314641
      3          8           0       10.762059   -1.117937   -2.166670
      4          8           0       14.592590   -1.059010    0.017462
      5          6           0      -11.074109   -0.174387   -0.350462
      6          6           0      -11.710500   -1.146394   -1.276915
      7          6           0      -11.939692    0.477080    0.846815
      8          6           0      -13.024621   -1.873728   -0.979218
      9          6           0      -13.280593   -0.111198    0.823835
     10          6           0      -13.494638   -1.589223    0.400074
     11          6           0      -10.754060   -2.079824   -2.128758
     12          6           0       -9.623166    0.031756   -0.507038
     13          6           0      -11.157857    0.149573    2.170831
     14          6           0      -11.788678    2.001437    0.698861
     15          6           0       -8.758329   -0.680824    0.237999
     16          6           0       -7.328344   -0.502038    0.311476
     17          6           0       -6.550104   -1.601379    0.986985
     18          6           0       -6.704245    0.620647   -0.050509
     19          6           0       -5.272112    0.909383   -0.025139
     20          6           0       11.906359    0.112226    1.253834
     21          6           0       11.728634   -0.672010   -1.277377
     22          6           0       12.614897   -1.138839    1.594390
     23          6           0       13.393323   -1.763762    0.373696
     24          6           0       12.419148   -1.982188   -0.734111
     25          6           0       11.119625    0.007177   -0.100457
     26          6           0       10.914405    0.552603    2.434375
     27          6           0       12.852745    1.305116    1.145263
     28          6           0       12.570172    0.232993   -2.137166
     29          6           0       -4.707931    2.139741   -0.416817
     30          6           0        9.881444    0.366079   -0.193703
     31          6           0       -3.412165    2.475165   -0.436986
     32          6           0        8.664333    0.886405   -0.292310
     33          6           0       -3.050085    3.788923   -0.865738
     34          6           0       -2.306866    1.553278   -0.036024
     35          6           0        7.462653    0.157071   -0.108461
     36          6           0        7.599863   -1.275349    0.164433
     37          6           0        6.250265    0.773705   -0.144328
     38          6           0       -0.966593    1.815333   -0.269849
     39          6           0        5.067131    0.190910    0.104587
     40          6           0        0.064119    0.951441    0.022020
     41          6           0        3.808606    0.766008   -0.163546
     42          6           0        1.470565    1.213050   -0.091027
     43          6           0        2.544187    0.309722    0.054239
     44          6           0        2.353964   -1.140761    0.511910
     45          1           0      -13.021840   -2.890330   -1.401960
     46          1           0      -13.629617   -1.146131   -1.693933
     47          1           0      -13.602990   -0.047623    1.875228
     48          1           0      -13.866567    0.588165    0.219091
     49          1           0      -14.541496   -1.771486    0.580074
     50          1           0      -10.388717   -3.043102   -1.672740
     51          1           0      -11.145281   -2.432941   -3.262621
     52          1           0       -9.876332   -1.630892   -2.206852
     53          1           0       -9.206478    0.956609   -0.847283
     54          1           0      -10.020507    0.150029    2.183373
     55          1           0      -11.462980    0.675251    3.052472
     56          1           0      -11.266206   -0.811587    2.417235
     57          1           0      -12.187606    2.335217   -0.327072
     58          1           0      -12.521146    2.512855    1.289509
     59          1           0      -10.781313    2.368947    0.760615
     60          1           0      -11.913915   -2.716247    1.184038
     61          1           0       -9.074719   -1.676726    0.656622
     62          1           0       -5.682527   -2.262515    0.489495
     63          1           0       -6.140330   -1.311922    2.007757
     64          1           0       -7.342999   -2.323192    1.363569
     65          1           0       -7.417167    1.582855   -0.542309
     66          1           0       -4.769439    0.040547    0.353692
     67          1           0       13.317643   -1.099003    2.438462
     68          1           0       12.077362   -1.761251    2.000369
     69          1           0       13.569825   -2.731138    0.825372
     70          1           0       13.099483   -2.248419   -1.600640
     71          1           0       11.875588   -2.881334   -0.453261
     72          1           0       11.418661    0.692800    3.436252
     73          1           0       10.467568    1.530650    2.414521
     74          1           0       10.164314   -0.170343    2.744753
     75          1           0       13.688053    1.002419    0.446828
     76          1           0       12.270868    1.968720    0.723155
     77          1           0       13.397870    1.721000    2.047054
     78          1           0       12.891458   -0.316642   -3.031176
     79          1           0       11.928027    1.004209   -2.332837
     80          1           0       13.289011    0.628106   -1.518289
     81          1           0       -5.385162    2.821022   -0.998614
     82          1           0        9.920870   -0.597807   -2.332485
     83          1           0       15.223603   -1.038671    0.862009
     84          1           0        8.402239    1.845395   -0.745502
     85          1           0       -2.598709    4.585379   -0.045679
     86          1           0       -2.533897    3.759993   -1.820396
     87          1           0       -3.937335    4.490019   -1.015583
     88          1           0       -2.640362    0.561520    0.291891
     89          1           0        6.698811   -1.733544    0.085500
     90          1           0        8.396856   -1.766236   -0.466432
     91          1           0        7.808522   -1.262238    1.295744
     92          1           0        6.338140    1.926741   -0.378572
     93          1           0       -0.575673    2.786091   -0.602523
     94          1           0        4.983299   -0.888748    0.443403
     95          1           0       -0.124909    0.025616    0.304236
     96          1           0        3.569777    1.823736   -0.676637
     97          1           0        1.656638    2.155117   -0.212466
     98          1           0        1.549534   -1.270857    0.904886
     99          1           0        2.656855   -1.682613   -0.348632
    100          1           0        3.265706   -1.481810    1.306153
 ---------------------------------------------------------------------

 SCF Done:  E(RCAM-B3LYP) =  -1857.26936790     A.U. after   15 cycles

 Excitation energies and oscillator strengths:

 Excited State   1:      Singlet-A      1.8392 eV  674.11 nm  f=3.0808  <S**2>=0.000
     163 ->166        -0.12258
     164 ->165         0.70438
     164 <-165        -0.12789
 This state for optimization and/or second-order correction.
 Total Energy, E(TD-HF/TD-DFT) =  -1857.20177726
 Copying the excited state density for this state as the 1-particle RhoCI density.

 The electronic state is 1-A.
 Alpha  occ. eigenvalues --  -19.23274 -19.21957 -19.20696 -19.19934 -10.32445
 Alpha  occ. eigenvalues --  -10.31608 -10.31294 -10.31148 -10.30962 -10.28521
 Alpha  occ. eigenvalues --  -10.27893 -10.27666 -10.27425 -10.27423 -10.27159
 Alpha  occ. eigenvalues --  -10.27156 -10.27089 -10.27085 -10.27073 -10.27019
 Alpha  occ. eigenvalues --  -10.27012 -10.26971 -10.26819 -10.26668 -10.26659
 Alpha  occ. eigenvalues --  -10.26590 -10.26472 -10.26460 -10.26330 -10.26069
 Alpha  occ. eigenvalues --  -10.25528 -10.25480 -10.25449 -10.25395 -10.25276
 Alpha  occ. eigenvalues --  -10.25216 -10.25001 -10.24962 -10.24696 -10.24298
 Alpha  occ. eigenvalues --  -10.23649 -10.23265 -10.22713 -10.22262  -1.16626
 Alpha  occ. eigenvalues --   -1.09620  -1.08662  -1.08506  -0.93738  -0.92906
 Alpha  occ. eigenvalues --   -0.92437  -0.91737  -0.91187  -0.90508  -0.87920
 Alpha  occ. eigenvalues --   -0.86594  -0.86369  -0.86054  -0.84896  -0.84056
 Alpha  occ. eigenvalues --   -0.81857  -0.81273  -0.80017  -0.79478  -0.78119
 Alpha  occ. eigenvalues --   -0.77602  -0.77459  -0.76444  -0.76190  -0.75910
 Alpha  occ. eigenvalues --   -0.75896  -0.73816  -0.73327  -0.71410  -0.70454
 Alpha  occ. eigenvalues --   -0.68989  -0.67800  -0.65819  -0.65624  -0.64340
 Alpha  occ. eigenvalues --   -0.63946  -0.63254  -0.61281  -0.60003  -0.59716
 Alpha  occ. eigenvalues --   -0.59121  -0.58969  -0.58042  -0.57857  -0.57180
 Alpha  occ. eigenvalues --   -0.56686  -0.56009  -0.55222  -0.54582  -0.54092
 Alpha  occ. eigenvalues --   -0.53946  -0.53842  -0.53373  -0.52909  -0.52211
 Alpha  occ. eigenvalues --   -0.51670  -0.51485  -0.50487  -0.50297  -0.49673
 Alpha  occ. eigenvalues --   -0.49660  -0.49476  -0.49375  -0.49121  -0.48764
 Alpha  occ. eigenvalues --   -0.48583  -0.48007  -0.47728  -0.47473  -0.47230
 Alpha  occ. eigenvalues --   -0.46656  -0.46584  -0.46085  -0.45565  -0.45408
 Alpha  occ. eigenvalues --   -0.45207  -0.44885  -0.44432  -0.43876  -0.43782
 Alpha  occ. eigenvalues --   -0.43389  -0.43311  -0.43141  -0.42625  -0.42425
 Alpha  occ. eigenvalues --   -0.42289  -0.42062  -0.41996  -0.41591  -0.41061
 Alpha  occ. eigenvalues --   -0.40930  -0.40653  -0.40551  -0.40145  -0.39743
 Alpha  occ. eigenvalues --   -0.39473  -0.39160  -0.38804  -0.38569  -0.38445
 Alpha  occ. eigenvalues --   -0.38212  -0.37970  -0.37587  -0.37550  -0.36936
 Alpha  occ. eigenvalues --   -0.36634  -0.36113  -0.35357  -0.34670  -0.34256
 Alpha  occ. eigenvalues --   -0.32385  -0.31981  -0.31888  -0.31342  -0.30973
 Alpha  occ. eigenvalues --   -0.30280  -0.28238  -0.24116  -0.18702
 Alpha virt. eigenvalues --   -0.07237  -0.01296   0.03141   0.05979   0.06647
 Alpha virt. eigenvalues --    0.09399   0.09733   0.10617   0.11327   0.11956
 Alpha virt. eigenvalues --    0.12328   0.12966   0.13394   0.14132   0.14537

 Mulliken charges:
               1
     1  O   -0.490517
     2  O   -0.569118
     3  O   -0.598558
     4  O   -0.552385
     5  C    0.152926
     6  C    0.257198
     7  C    0.063924
     8  C   -0.213517
     9  C   -0.215452
    10  C    0.178669
    11  C   -0.330529
    12  C   -0.087522
    13  C   -0.331360
    14  C   -0.317672
    15  C   -0.082727
    16  C    0.106578
    17  C   -0.391582
    18  C   -0.106104
    19  C   -0.079856
    20  C    0.031089
    21  C    0.271187
    22  C   -0.170837
    23  C    0.146448
    24  C   -0.189630
    25  C   -0.122335
    26  C   -0.331474
    27  C   -0.304006
    28  C   -0.269219
    29  C   -0.136870
    30  C    0.173004
    31  C    0.125429
    32  C   -0.269001
    33  C   -0.392556
    34  C   -0.110126
    35  C    0.110462
    36  C   -0.358975
    37  C   -0.080873
    38  C   -0.076992
    39  C   -0.131727
    40  C   -0.061579
    41  C   -0.112173
    42  C   -0.131220
    43  C    0.110126
    44  C   -0.326639
    45  H    0.119041
    46  H    0.108356
    47  H    0.111679
    48  H    0.105912
    49  H    0.108763
    50  H    0.088253
    51  H    0.081182
    52  H    0.129515
    53  H    0.096897
    54  H    0.099961
    55  H    0.099779
    56  H    0.102206
    57  H    0.101826
    58  H    0.105668
    59  H    0.117872
    60  H    0.308897
    61  H    0.067552
    62  H    0.112820
    63  H    0.123247
    64  H    0.097587
    65  H    0.049104
    66  H    0.090928
    67  H    0.072468
    68  H    0.095358
    69  H    0.080607
    70  H    0.108061
    71  H    0.118358
    72  H    0.084595
    73  H    0.114263
    74  H    0.099296
    75  H    0.117629
    76  H    0.110703
    77  H    0.090295
    78  H    0.116669
    79  H    0.097530
    80  H    0.113435
    81  H    0.093685
    82  H    0.310394
    83  H    0.317651
    84  H    0.104797
    85  H    0.103273
    86  H    0.132993
    87  H    0.102297
    88  H    0.084516
    89  H    0.111384
    90  H    0.121913
    91  H    0.119275
    92  H    0.074926
    93  H    0.088303
    94  H    0.087140
    95  H    0.057489
    96  H    0.067501
    97  H    0.064899
    98  H    0.106465
    99  H    0.138623
   100  H    0.082252
 Sum of Mulliken charges =  -0.00000

 Dipole moment (field-independent basis, Debye):
    X=              3.3745    Y=             -0.8392    Z=              2.4934  Tot=              4.2788
 Quadrupole moment (field-independent basis, Debye-Ang):
   XX=           -273.8193   YY=           -259.3139   ZZ=           -276.0668
   XY=             -4.1186   XZ=             30.5599   YZ=             -5.6858

 Normal termination of Gaussian 16 at Mon Jul 29 10:38:23 2019.
