 Gaussian 16, Revision A.03,
 Gaussian 16:  ES64L-G16RevA.03 25-Dec-2016

 -------------------------------------
 # td=(NStates=1) CAM-B3LYP/6-31G(d,p)
 -------------------------------------

 --
 TD
 --
 Symbolic Z-matrix:
 Charge =  0 Multiplicity = 1

                         Standard orientation:
 ---------------------------------------------------------------------
 Center     Atomic      Atomic             Coordinates (Angstroms)
 Number     Number       Type             X           Y           Z
 ---------------------------------------------------------------------
      1          8           0      -11.730706    0.488407   -1.422346
      2          8           0      -12.761743   -2.676346    1.152553
      3          8           0       10.697201   -0.867260   -2.111857
      4          8           0       14.477606   -0.977564    0.007675
      5          6           0      -11.075040    0.058598   -0.320143
      6          6           0      -11.626843   -0.931177   -1.205451
      7          6           0      -11.806808    0.386123    1.095432
      8          6           0      -13.035082   -1.619125   -1.055413
      9          6           0      -13.218751   -0.238988    0.996558
     10          6           0      -13.371308   -1.667896    0.449433
     11          6           0      -10.818771   -1.576198   -2.368916
     12          6           0       -9.556420    0.182736   -0.365869
     13          6           0      -11.002882   -0.408645    2.211856
     14          6           0      -11.863590    1.845436    1.166773
     15          6           0       -8.717939   -0.755828   -0.014191
     16          6           0       -7.223175   -0.517290    0.081857
     17          6           0       -6.428045   -1.843708    0.210021
     18          6           0       -6.616048    0.677928    0.025453
     19          6           0       -5.335180    0.998284   -0.023425
     20          6           0       11.777495   -0.069998    1.363933
     21          6           0       11.704897   -0.409782   -1.264089
     22          6           0       12.499791   -1.409847    1.331248
     23          6           0       13.342076   -1.793162    0.254916
     24          6           0       12.452781   -1.701080   -1.011343
     25          6           0       11.019389    0.035332   -0.006983
     26          6           0       10.755655   -0.171764    2.539505
     27          6           0       12.753127    1.058544    1.609003
     28          6           0       12.586615    0.672538   -1.880938
     29          6           0       -4.692951    2.247823   -0.231467
     30          6           0        9.810740    0.557692   -0.055282
     31          6           0       -3.281807    2.442393   -0.277453
     32          6           0        8.651811    1.030147   -0.186104
     33          6           0       -2.912680    3.893032   -0.489354
     34          6           0       -2.297891    1.460796   -0.245899
     35          6           0        7.469806    0.190422   -0.078131
     36          6           0        7.743908   -1.303053    0.034824
     37          6           0        6.243723    0.747896   -0.179066
     38          6           0       -0.903387    1.749960   -0.154509
     39          6           0        5.022194    0.132671   -0.084945
     40          6           0        0.070547    0.829616    0.022157
     41          6           0        3.764872    0.807031   -0.065582
     42          6           0        1.417941    1.198382   -0.049850
     43          6           0        2.521892    0.211783    0.022951
     44          6           0        2.306596   -1.270634    0.070061
     45          1           0      -13.075268   -2.691396   -1.579606
     46          1           0      -13.650307   -0.818078   -1.675495
     47          1           0      -13.675526   -0.290321    1.961266
     48          1           0      -13.889526    0.475516    0.299993
     49          1           0      -14.548719   -1.676935    0.483138
     50          1           0      -10.753273   -2.759351   -2.333379
     51          1           0      -11.440369   -1.291737   -3.237279
     52          1           0       -9.778777   -1.232341   -2.530150
     53          1           0       -9.310218    1.208653   -0.813693
     54          1           0       -9.866806   -0.255448    2.360458
     55          1           0      -11.237193    0.061370    3.196959
     56          1           0      -11.066366   -1.427583    2.272356
     57          1           0      -12.192250    2.292475    0.261864
     58          1           0      -12.596591    2.019665    2.040004
     59          1           0      -10.781617    2.332367    1.177968
     60          1           0      -11.866059   -2.932487    0.881322
     61          1           0       -8.888279   -1.761653    0.189351
     62          1           0       -6.261672   -2.286426   -0.784043
     63          1           0       -5.540261   -1.635497    0.802755
     64          1           0       -7.161369   -2.599460    0.748437
     65          1           0       -7.134445    1.645606   -0.034383
     66          1           0       -4.362943    0.245984   -0.134086
     67          1           0       12.991903   -1.518686    2.388642
     68          1           0       11.605934   -2.188384    1.306839
     69          1           0       13.638450   -2.972014    0.284399
     70          1           0       13.071491   -1.907892   -1.949960
     71          1           0       11.759748   -2.443483   -1.162667
     72          1           0       11.462511   -0.486649    3.362769
     73          1           0       10.371753    0.843321    2.591099
     74          1           0       10.013948   -0.801865    2.478459
     75          1           0       13.515526    1.178180    0.891121
     76          1           0       12.398284    1.985898    1.566688
     77          1           0       13.367238    0.994884    2.339773
     78          1           0       13.041634    0.453883   -2.829944
     79          1           0       11.787469    1.595947   -2.190457
     80          1           0       13.353659    1.278165   -1.479996
     81          1           0       -5.360818    3.118693   -0.387725
     82          1           0       10.072015   -0.072007   -1.991802
     83          1           0       15.054457   -0.752721    0.816561
     84          1           0        8.448949    2.203921   -0.331217
     85          1           0       -2.363508    4.323018    0.365962
     86          1           0       -2.232738    3.917227   -1.377571
     87          1           0       -3.855681    4.589897   -0.634772
     88          1           0       -2.448517    0.454803   -0.035515
     89          1           0        6.732723   -1.790759    0.039907
     90          1           0        8.411846   -1.765738   -0.744849
     91          1           0        7.852900   -1.551410    1.105673
     92          1           0        6.192933    1.839230   -0.070603
     93          1           0       -0.682563    2.753561   -0.234673
     94          1           0        4.825427   -1.016824    0.075987
     95          1           0       -0.212693   -0.157806    0.203612
     96          1           0        3.755734    1.823505   -0.315280
     97          1           0        1.615102    2.170880   -0.201952
     98          1           0        1.208306   -1.491674    0.218036
     99          1           0        2.635908   -1.839998   -0.867183
    100          1           0        2.802080   -1.489840    0.979221
 ---------------------------------------------------------------------

 SCF Done:  E(RCAM-B3LYP) =  -1857.33197471     A.U. after   15 cycles

 Excitation energies and oscillator strengths:

 Excited State   1:      Singlet-A      2.0480 eV  605.41 nm  f=3.1585  <S**2>=0.000
     163 ->166         0.12816
     164 ->165         0.69824
     164 <-165        -0.10421
 This state for optimization and/or second-order correction.
 Total Energy, E(TD-HF/TD-DFT) =  -1857.25671384
 Copying the excited state density for this state as the 1-particle RhoCI density.

 The electronic state is 1-A.
 Alpha  occ. eigenvalues --  -19.22975 -19.22643 -19.21960 -19.20852 -10.32106
 Alpha  occ. eigenvalues --  -10.31984 -10.31610 -10.31388 -10.31154 -10.28194
 Alpha  occ. eigenvalues --  -10.28037 -10.27976 -10.27924 -10.27716 -10.27632
 Alpha  occ. eigenvalues --  -10.27375 -10.27201 -10.27107 -10.27087 -10.27003
 Alpha  occ. eigenvalues --  -10.26773 -10.26632 -10.26616 -10.26598 -10.26587
 Alpha  occ. eigenvalues --  -10.26455 -10.26434 -10.26089 -10.26075 -10.25798
 Alpha  occ. eigenvalues --  -10.25658 -10.25564 -10.25564 -10.25516 -10.25511
 Alpha  occ. eigenvalues --  -10.25511 -10.25418 -10.25360 -10.25275 -10.24752
 Alpha  occ. eigenvalues --  -10.24573 -10.23590 -10.23451 -10.21550  -1.18426
 Alpha  occ. eigenvalues --   -1.11863  -1.10661  -1.08753  -0.93249  -0.92530
 Alpha  occ. eigenvalues --   -0.92051  -0.91402  -0.90512  -0.90099  -0.87871
 Alpha  occ. eigenvalues --   -0.86512  -0.85895  -0.85702  -0.85327  -0.82842
 Alpha  occ. eigenvalues --   -0.82088  -0.80668  -0.80391  -0.78952  -0.78751
 Alpha  occ. eigenvalues --   -0.76881  -0.76844  -0.76740  -0.76417  -0.75802
 Alpha  occ. eigenvalues --   -0.75009  -0.73733  -0.73023  -0.70433  -0.70030
 Alpha  occ. eigenvalues --   -0.68743  -0.67157  -0.65970  -0.64887  -0.64358
 Alpha  occ. eigenvalues --   -0.64007  -0.62985  -0.61075  -0.60832  -0.59860
 Alpha  occ. eigenvalues --   -0.59736  -0.58791  -0.57929  -0.56879  -0.56849
 Alpha  occ. eigenvalues --   -0.56134  -0.55441  -0.55244  -0.54985  -0.54658
 Alpha  occ. eigenvalues --   -0.54118  -0.53199  -0.53068  -0.52633  -0.52273
 Alpha  occ. eigenvalues --   -0.51512  -0.50626  -0.49950  -0.49872  -0.49858
 Alpha  occ. eigenvalues --   -0.49712  -0.49543  -0.49411  -0.49210  -0.48871
 Alpha  occ. eigenvalues --   -0.48463  -0.48395  -0.47468  -0.47301  -0.46940
 Alpha  occ. eigenvalues --   -0.46596  -0.46111  -0.45949  -0.45684  -0.45217
 Alpha  occ. eigenvalues --   -0.45191  -0.44879  -0.44490  -0.44130  -0.43968
 Alpha  occ. eigenvalues --   -0.43653  -0.43393  -0.43044  -0.42618  -0.42425
 Alpha  occ. eigenvalues --   -0.42375  -0.42195  -0.41754  -0.41558  -0.41326
 Alpha  occ. eigenvalues --   -0.40847  -0.40523  -0.40428  -0.40283  -0.39771
 Alpha  occ. eigenvalues --   -0.39577  -0.39355  -0.39151  -0.39081  -0.38728
 Alpha  occ. eigenvalues --   -0.38032  -0.37556  -0.37504  -0.37272  -0.36668
 Alpha  occ. eigenvalues --   -0.36439  -0.35946  -0.35311  -0.34757  -0.33836
 Alpha  occ. eigenvalues --   -0.32900  -0.32446  -0.32018  -0.31501  -0.31232
 Alpha  occ. eigenvalues --   -0.29444  -0.28808  -0.24256  -0.18863
 Alpha virt. eigenvalues --   -0.06242  -0.01065   0.04230   0.06019   0.07122
 Alpha virt. eigenvalues --    0.09001   0.10042   0.10818   0.12315   0.12610
 Alpha virt. eigenvalues --    0.12797   0.13235   0.13640   0.13776   0.14302

 Mulliken charges:
               1
     1  O   -0.492029
     2  O   -0.535954
     3  O   -0.564428
     4  O   -0.557012
     5  C    0.227163
     6  C    0.171485
     7  C    0.061099
     8  C   -0.218270
     9  C   -0.201552
    10  C    0.188180
    11  C   -0.321345
    12  C   -0.107881
    13  C   -0.331301
    14  C   -0.315254
    15  C   -0.034752
    16  C    0.048005
    17  C   -0.363719
    18  C   -0.095502
    19  C   -0.055758
    20  C    0.006116
    21  C    0.269663
    22  C   -0.183629
    23  C    0.185813
    24  C   -0.202980
    25  C   -0.070159
    26  C   -0.277954
    27  C   -0.306601
    28  C   -0.283316
    29  C   -0.142858
    30  C    0.182437
    31  C    0.105122
    32  C   -0.333075
    33  C   -0.382599
    34  C   -0.121811
    35  C    0.103378
    36  C   -0.381071
    37  C   -0.093557
    38  C   -0.079059
    39  C   -0.113506
    40  C   -0.068997
    41  C   -0.103808
    42  C   -0.111255
    43  C    0.079915
    44  C   -0.368017
    45  H    0.090844
    46  H    0.123041
    47  H    0.106400
    48  H    0.088722
    49  H    0.086957
    50  H    0.077719
    51  H    0.122945
    52  H    0.119326
    53  H    0.108102
    54  H    0.095792
    55  H    0.095271
    56  H    0.109579
    57  H    0.135198
    58  H    0.096473
    59  H    0.088246
    60  H    0.318393
    61  H    0.068992
    62  H    0.134381
    63  H    0.129597
    64  H    0.088534
    65  H    0.079219
    66  H    0.058439
    67  H    0.063715
    68  H    0.094190
    69  H    0.060524
    70  H    0.098176
    71  H    0.126107
    72  H    0.085058
    73  H    0.106005
    74  H    0.115296
    75  H    0.111118
    76  H    0.108865
    77  H    0.096523
    78  H    0.117348
    79  H    0.037443
    80  H    0.130679
    81  H    0.076494
    82  H    0.302984
    83  H    0.308610
    84  H    0.101569
    85  H    0.126542
    86  H    0.126820
    87  H    0.100409
    88  H    0.078381
    89  H    0.097477
    90  H    0.143987
    91  H    0.125167
    92  H    0.081830
    93  H    0.070940
    94  H    0.076592
    95  H    0.074279
    96  H    0.077779
    97  H    0.077436
    98  H    0.104980
    99  H    0.129544
   100  H    0.135593
 Sum of Mulliken charges =  -0.00000

 Dipole moment (field-independent basis, Debye):
    X=              0.0870    Y=             -0.0665    Z=              2.0716  Tot=              2.0744
 Quadrupole moment (field-independent basis, Debye-Ang):
   XX=           -274.3283   YY=           -257.7955   ZZ=           -280.6814
   XY=             14.0171   XZ=             35.6971   YZ=             -1.3454

 Normal termination of Gaussian 16 at Thu Aug  1 14:33:51 2019.
