 Gaussian 16, Revision A.03,
 Gaussian 16:  ES64L-G16RevA.03 25-Dec-2016

 -------------------------------------
 # td=(NStates=1) CAM-B3LYP/6-31G(d,p)
 -------------------------------------

 --
 TD
 --
 Symbolic Z-matrix:
 Charge =  0 Multiplicity = 1

                         Standard orientation:
 ---------------------------------------------------------------------
 Center     Atomic      Atomic             Coordinates (Angstroms)
 Number     Number       Type             X           Y           Z
 ---------------------------------------------------------------------
      1          8           0      -11.767356    0.418946   -1.462296
      2          8           0      -12.695985   -2.763201    1.137727
      3          8           0       10.576478   -1.052969   -2.095640
      4          8           0       14.483118   -1.265819    0.109601
      5          6           0      -11.078949   -0.151545   -0.267146
      6          6           0      -11.699518   -0.962506   -1.388231
      7          6           0      -11.837544    0.158660    1.071416
      8          6           0      -12.954751   -1.723712   -1.027854
      9          6           0      -13.341619   -0.310191    0.998187
     10          6           0      -13.384138   -1.782695    0.366862
     11          6           0      -10.710190   -1.501221   -2.377469
     12          6           0       -9.554406    0.128624   -0.219808
     13          6           0      -11.103608   -0.449941    2.237534
     14          6           0      -11.962788    1.685318    1.183159
     15          6           0       -8.629496   -0.914337    0.042074
     16          6           0       -7.241435   -0.684014    0.080632
     17          6           0       -6.330577   -1.910586    0.530335
     18          6           0       -6.592646    0.650699   -0.079190
     19          6           0       -5.229669    0.884027   -0.014087
     20          6           0       11.895726   -0.078430    1.384589
     21          6           0       11.649949   -0.626946   -1.257667
     22          6           0       12.444889   -1.471850    1.543801
     23          6           0       13.238524   -2.039387    0.321878
     24          6           0       12.379974   -1.914280   -0.972606
     25          6           0       11.119501    0.061760    0.074073
     26          6           0       11.034486    0.218523    2.548180
     27          6           0       13.052984    1.079641    1.305388
     28          6           0       12.594699    0.317025   -2.000652
     29          6           0       -4.740540    2.254315   -0.253463
     30          6           0        9.908045    0.595680    0.012005
     31          6           0       -3.394378    2.655208   -0.212505
     32          6           0        8.622594    0.933500   -0.228266
     33          6           0       -3.129062    4.138851   -0.409716
     34          6           0       -2.249277    1.687124   -0.131020
     35          6           0        7.464534    0.150405   -0.106971
     36          6           0        7.545043   -1.250652    0.101507
     37          6           0        6.256477    0.907278   -0.164689
     38          6           0       -0.963626    2.180008   -0.255146
     39          6           0        4.941732    0.334738   -0.078766
     40          6           0        0.067004    1.200700   -0.100807
     41          6           0        3.796320    1.030846   -0.300046
     42          6           0        1.460020    1.478861   -0.358333
     43          6           0        2.499689    0.538258   -0.145506
     44          6           0        2.264350   -0.858381    0.058455
     45          1           0      -12.807157   -2.819400   -1.429854
     46          1           0      -13.758138   -1.197390   -1.638716
     47          1           0      -13.958064   -0.341679    1.964066
     48          1           0      -13.884295    0.363425    0.389477
     49          1           0      -14.605283   -1.907771    0.361555
     50          1           0      -10.318780   -2.391932   -2.195251
     51          1           0      -11.063140   -1.844375   -3.385261
     52          1           0       -9.938476   -0.760849   -2.755577
     53          1           0       -9.369206    1.196260   -0.422067
     54          1           0      -10.155608   -0.098378    2.209973
     55          1           0      -11.808557   -0.361545    3.215468
     56          1           0      -11.142155   -1.579102    2.182076
     57          1           0      -12.402123    2.213981    0.303552
     58          1           0      -12.416994    2.019707    2.019926
     59          1           0      -10.972560    2.166636    1.410748
     60          1           0      -11.763428   -2.969094    0.797694
     61          1           0       -8.704423   -1.966457    0.329546
     62          1           0       -5.508306   -1.892957   -0.306767
     63          1           0       -5.715856   -1.522735    1.302263
     64          1           0       -6.956081   -2.649932    0.508609
     65          1           0       -7.252339    1.455133   -0.205595
     66          1           0       -4.604303    0.068516    0.255786
     67          1           0       13.171619   -1.551022    2.257901
     68          1           0       11.594497   -1.956125    2.012249
     69          1           0       13.448819   -3.103404    0.506642
     70          1           0       13.010453   -2.092072   -1.783842
     71          1           0       11.700785   -2.834798   -0.859954
     72          1           0       11.782684    0.343216    3.461534
     73          1           0       10.769746    1.288107    2.682199
     74          1           0       10.109608   -0.412971    2.631813
     75          1           0       13.522087    0.873498    0.383933
     76          1           0       12.648232    2.065293    1.084927
     77          1           0       13.689853    0.855153    2.197730
     78          1           0       12.712474   -0.150632   -2.984798
     79          1           0       12.117366    1.212279   -2.170746
     80          1           0       13.398559    0.340482   -1.623973
     81          1           0       -5.332851    3.078207   -0.494185
     82          1           0        9.829513   -0.523356   -2.110017
     83          1           0       15.079217   -1.360139    0.871482
     84          1           0        8.540503    2.038707   -0.217598
     85          1           0       -2.465484    4.305722    0.374881
     86          1           0       -2.572942    4.188944   -1.285808
     87          1           0       -4.058156    4.740835   -0.244810
     88          1           0       -2.536970    0.590577    0.034027
     89          1           0        6.646168   -1.882802   -0.251848
     90          1           0        8.526025   -1.694820   -0.396503
     91          1           0        7.728383   -1.507167    1.276455
     92          1           0        6.356518    1.994673   -0.376264
     93          1           0       -0.458791    3.092424   -0.362173
     94          1           0        4.673928   -0.590949    0.125847
     95          1           0       -0.053829    0.252405    0.263081
     96          1           0        3.911099    2.077184   -0.355207
     97          1           0        1.529288    2.610068   -0.627233
     98          1           0        1.143335   -1.194921    0.142695
     99          1           0        2.727859   -1.582207   -0.635662
    100          1           0        2.795692   -1.222358    0.985644
 ---------------------------------------------------------------------

 SCF Done:  E(RCAM-B3LYP) =  -1857.28589097     A.U. after   19 cycles

 Excitation energies and oscillator strengths:

 Excited State   1:      Singlet-A      1.5786 eV  785.39 nm  f=2.7351  <S**2>=0.000
     163 ->166        -0.11148
     164 ->165         0.71737
     164 <-165        -0.17463
 This state for optimization and/or second-order correction.
 Total Energy, E(TD-HF/TD-DFT) =  -1857.22787742
 Copying the excited state density for this state as the 1-particle RhoCI density.

 The electronic state is 1-A.
 Alpha  occ. eigenvalues --  -19.22452 -19.22190 -19.21836 -19.19888 -10.32050
 Alpha  occ. eigenvalues --  -10.32011 -10.31970 -10.31936 -10.31567 -10.28072
 Alpha  occ. eigenvalues --  -10.27953 -10.27931 -10.27875 -10.27703 -10.27664
 Alpha  occ. eigenvalues --  -10.27643 -10.27610 -10.27489 -10.27457 -10.27316
 Alpha  occ. eigenvalues --  -10.27152 -10.27050 -10.27033 -10.27030 -10.27009
 Alpha  occ. eigenvalues --  -10.26996 -10.26859 -10.26725 -10.26707 -10.26146
 Alpha  occ. eigenvalues --  -10.25888 -10.25855 -10.25441 -10.24968 -10.24957
 Alpha  occ. eigenvalues --  -10.24944 -10.24942 -10.24871 -10.24703 -10.24263
 Alpha  occ. eigenvalues --  -10.24247 -10.24006 -10.23189 -10.21009  -1.14639
 Alpha  occ. eigenvalues --   -1.09659  -1.09093  -1.08474  -0.93137  -0.92772
 Alpha  occ. eigenvalues --   -0.91468  -0.91099  -0.90399  -0.89613  -0.87509
 Alpha  occ. eigenvalues --   -0.86874  -0.86424  -0.85267  -0.84367  -0.83310
 Alpha  occ. eigenvalues --   -0.82168  -0.81069  -0.80544  -0.78813  -0.77320
 Alpha  occ. eigenvalues --   -0.76607  -0.76492  -0.76263  -0.76064  -0.75767
 Alpha  occ. eigenvalues --   -0.75589  -0.74556  -0.72687  -0.70514  -0.69881
 Alpha  occ. eigenvalues --   -0.68184  -0.67031  -0.65747  -0.65307  -0.64304
 Alpha  occ. eigenvalues --   -0.64106  -0.62765  -0.61607  -0.61021  -0.59726
 Alpha  occ. eigenvalues --   -0.59374  -0.58759  -0.57586  -0.57371  -0.56393
 Alpha  occ. eigenvalues --   -0.55969  -0.55314  -0.54736  -0.54536  -0.54259
 Alpha  occ. eigenvalues --   -0.53970  -0.53603  -0.53377  -0.52872  -0.52122
 Alpha  occ. eigenvalues --   -0.51849  -0.51219  -0.50952  -0.50750  -0.50281
 Alpha  occ. eigenvalues --   -0.50015  -0.49601  -0.49400  -0.48909  -0.48655
 Alpha  occ. eigenvalues --   -0.48215  -0.47802  -0.47711  -0.47334  -0.46820
 Alpha  occ. eigenvalues --   -0.46472  -0.46303  -0.45981  -0.45841  -0.45327
 Alpha  occ. eigenvalues --   -0.45019  -0.44728  -0.44668  -0.44388  -0.44104
 Alpha  occ. eigenvalues --   -0.43676  -0.43531  -0.43157  -0.42797  -0.42714
 Alpha  occ. eigenvalues --   -0.42301  -0.42140  -0.41794  -0.41345  -0.41023
 Alpha  occ. eigenvalues --   -0.40639  -0.40593  -0.40385  -0.39996  -0.39503
 Alpha  occ. eigenvalues --   -0.39352  -0.38997  -0.38835  -0.38544  -0.38483
 Alpha  occ. eigenvalues --   -0.38310  -0.38190  -0.38100  -0.37776  -0.37183
 Alpha  occ. eigenvalues --   -0.36542  -0.36260  -0.35154  -0.34309  -0.33280
 Alpha  occ. eigenvalues --   -0.33145  -0.32395  -0.32223  -0.31193  -0.29528
 Alpha  occ. eigenvalues --   -0.29136  -0.27107  -0.23349  -0.17593
 Alpha virt. eigenvalues --   -0.07838  -0.01677   0.02502   0.06132   0.07142
 Alpha virt. eigenvalues --    0.09325   0.10240   0.10506   0.11661   0.11919
 Alpha virt. eigenvalues --    0.12225   0.12831   0.13055   0.13886   0.14035

 Mulliken charges:
               1
     1  O   -0.512259
     2  O   -0.552272
     3  O   -0.566590
     4  O   -0.556844
     5  C    0.148279
     6  C    0.301780
     7  C    0.036519
     8  C   -0.219555
     9  C   -0.195902
    10  C    0.178084
    11  C   -0.345732
    12  C   -0.139807
    13  C   -0.293729
    14  C   -0.315733
    15  C   -0.048933
    16  C    0.010288
    17  C   -0.348068
    18  C   -0.077584
    19  C   -0.076726
    20  C    0.020854
    21  C    0.255692
    22  C   -0.169849
    23  C    0.124810
    24  C   -0.172546
    25  C   -0.077866
    26  C   -0.310762
    27  C   -0.313158
    28  C   -0.285468
    29  C   -0.115393
    30  C    0.079434
    31  C    0.035230
    32  C   -0.278317
    33  C   -0.366039
    34  C   -0.107759
    35  C    0.195556
    36  C   -0.395734
    37  C   -0.132831
    38  C   -0.079438
    39  C   -0.063379
    40  C   -0.074706
    41  C   -0.097355
    42  C   -0.138444
    43  C    0.130552
    44  C   -0.408175
    45  H    0.087715
    46  H    0.117511
    47  H    0.093531
    48  H    0.108317
    49  H    0.074407
    50  H    0.109340
    51  H    0.091978
    52  H    0.127268
    53  H    0.127555
    54  H    0.115613
    55  H    0.084924
    56  H    0.091209
    57  H    0.120964
    58  H    0.111023
    59  H    0.074465
    60  H    0.316311
    61  H    0.076647
    62  H    0.111343
    63  H    0.145827
    64  H    0.102315
    65  H    0.077647
    66  H    0.077864
    67  H    0.085120
    68  H    0.103937
    69  H    0.090745
    70  H    0.115687
    71  H    0.104148
    72  H    0.075911
    73  H    0.108753
    74  H    0.107248
    75  H    0.138024
    76  H    0.103607
    77  H    0.086177
    78  H    0.105035
    79  H    0.099693
    80  H    0.129089
    81  H    0.081289
    82  H    0.296583
    83  H    0.307113
    84  H    0.106452
    85  H    0.134852
    86  H    0.139540
    87  H    0.109055
    88  H    0.096365
    89  H    0.114018
    90  H    0.118610
    91  H    0.104583
    92  H    0.087674
    93  H    0.097901
    94  H    0.053485
    95  H    0.065280
    96  H    0.071781
    97  H    0.074286
    98  H    0.108457
    99  H    0.134985
   100  H    0.120618
 Sum of Mulliken charges =  -0.00000

 Dipole moment (field-independent basis, Debye):
    X=              2.7852    Y=             -0.9204    Z=              2.0455  Tot=              3.5761
 Quadrupole moment (field-independent basis, Debye-Ang):
   XX=           -287.2071   YY=           -256.1596   ZZ=           -280.0070
   XY=             -4.5467   XZ=             34.3138   YZ=             -1.5122

 Normal termination of Gaussian 16 at Mon Jul 29 19:52:48 2019.
