 Gaussian 16, Revision A.03,
 Gaussian 16:  ES64L-G16RevA.03 25-Dec-2016

 -------------------------------------
 # td=(NStates=1) CAM-B3LYP/6-31G(d,p)
 -------------------------------------

 --
 TD
 --
 Symbolic Z-matrix:
 Charge =  0 Multiplicity = 1

                         Standard orientation:
 ---------------------------------------------------------------------
 Center     Atomic      Atomic             Coordinates (Angstroms)
 Number     Number       Type             X           Y           Z
 ---------------------------------------------------------------------
      1          8           0      -11.640620   -0.021991   -1.628353
      2          8           0      -12.952404   -2.302677    1.566569
      3          8           0       10.610999   -1.273489   -2.037464
      4          8           0       14.534557   -1.198434   -0.180106
      5          6           0      -11.078498   -0.079864   -0.361796
      6          6           0      -11.622294   -1.370027   -1.089720
      7          6           0      -11.950485    0.451528    0.764460
      8          6           0      -13.048075   -2.022879   -0.831187
      9          6           0      -13.334516    0.037930    0.691874
     10          6           0      -13.541460   -1.598843    0.618950
     11          6           0      -10.757159   -2.289583   -1.977062
     12          6           0       -9.621701    0.168649   -0.255998
     13          6           0      -11.282698    0.302207    2.181314
     14          6           0      -11.974764    1.984327    0.468882
     15          6           0       -8.687600   -0.733580    0.083065
     16          6           0       -7.256569   -0.496073    0.189768
     17          6           0       -6.431055   -1.733294    0.551510
     18          6           0       -6.631352    0.704356   -0.122900
     19          6           0       -5.236465    0.922819   -0.196044
     20          6           0       12.050969    0.204862    1.152907
     21          6           0       11.702335   -0.844777   -1.226869
     22          6           0       12.736939   -1.101212    1.538311
     23          6           0       13.355102   -1.800382    0.317161
     24          6           0       12.345210   -2.107223   -0.789654
     25          6           0       11.110538    0.027951    0.022238
     26          6           0       11.137127    0.811636    2.466868
     27          6           0       12.926656    1.444209    0.851536
     28          6           0       12.585601    0.034591   -2.185187
     29          6           0       -4.617884    2.222603   -0.462940
     30          6           0        9.881692    0.521775   -0.176312
     31          6           0       -3.304438    2.487600   -0.604463
     32          6           0        8.612363    0.954129   -0.273363
     33          6           0       -2.952054    3.925390   -1.033872
     34          6           0       -2.376229    1.628768   -0.278072
     35          6           0        7.518502    0.184968    0.044399
     36          6           0        7.649647   -1.181278    0.683642
     37          6           0        6.219831    0.739107   -0.069940
     38          6           0       -0.951262    1.711091   -0.290512
     39          6           0        5.006480    0.161613    0.100331
     40          6           0        0.025865    0.812957    0.066442
     41          6           0        3.828910    0.906548    0.048681
     42          6           0        1.372160    1.072642    0.018566
     43          6           0        2.520235    0.219239    0.274495
     44          6           0        2.305811   -1.066525    0.717521
     45          1           0      -13.054574   -2.976285   -0.711554
     46          1           0      -13.777239   -1.617962   -1.635391
     47          1           0      -14.010081    0.524264    1.576693
     48          1           0      -13.948021    0.464346   -0.112675
     49          1           0      -14.527295   -1.800554    0.609349
     50          1           0      -10.376819   -3.196073   -1.343785
     51          1           0      -11.220111   -2.459707   -2.922162
     52          1           0       -9.751109   -1.798856   -2.098532
     53          1           0       -9.542460    1.151824   -0.636746
     54          1           0      -10.297779    0.573940    2.007931
     55          1           0      -11.878313    0.789709    2.824992
     56          1           0      -11.217685   -0.659005    2.601749
     57          1           0      -12.484041    2.185768   -0.581954
     58          1           0      -12.415342    2.593622    1.198408
     59          1           0      -10.952172    2.459959    0.214873
     60          1           0      -12.030328   -2.234448    1.639864
     61          1           0       -8.920695   -1.879515    0.346914
     62          1           0       -6.029728   -2.035976   -0.385964
     63          1           0       -5.678653   -1.342368    1.304626
     64          1           0       -6.965351   -2.516830    0.946149
     65          1           0       -7.310065    1.549432   -0.529827
     66          1           0       -4.663918    0.010949    0.209984
     67          1           0       13.568734   -0.700573    2.185660
     68          1           0       12.120684   -1.783386    1.954791
     69          1           0       13.676631   -2.830761    0.521981
     70          1           0       12.681256   -2.801082   -1.749760
     71          1           0       11.523452   -2.712851   -0.356672
     72          1           0       11.914022    1.046195    3.365635
     73          1           0       10.564184    1.694566    2.142795
     74          1           0       10.339960   -0.085528    2.747340
     75          1           0       13.729662    1.205241    0.058177
     76          1           0       12.343103    2.377924    0.607777
     77          1           0       13.685432    1.599601    1.653649
     78          1           0       12.648122   -0.454737   -2.970675
     79          1           0       12.314975    1.093203   -2.302184
     80          1           0       13.632332    0.220943   -1.686903
     81          1           0       -5.397909    2.827350   -0.758554
     82          1           0        9.740344   -0.602474   -1.752742
     83          1           0       15.379895   -1.428745    0.479066
     84          1           0        8.600683    2.000409   -0.587543
     85          1           0       -2.313552    4.519084   -0.491749
     86          1           0       -2.520293    3.829644   -1.928803
     87          1           0       -3.841846    4.764338   -1.011144
     88          1           0       -2.882658    0.618742   -0.269285
     89          1           0        6.624975   -1.652941    0.698239
     90          1           0        8.270505   -1.565207   -0.193614
     91          1           0        8.107966   -1.085780    1.649468
     92          1           0        6.236200    1.807018   -0.457156
     93          1           0       -0.669186    2.595092   -0.688213
     94          1           0        4.797981   -1.035108    0.418151
     95          1           0       -0.210053   -0.166366    0.298120
     96          1           0        3.942214    1.980628   -0.336405
     97          1           0        1.671932    2.186137   -0.237666
     98          1           0        1.283109   -1.233361    0.912925
     99          1           0        2.746164   -1.794484    0.249778
    100          1           0        2.910018   -1.153962    1.785227
 ---------------------------------------------------------------------

 SCF Done:  E(RCAM-B3LYP) =  -1857.23516725     A.U. after   15 cycles

 Excitation energies and oscillator strengths:

 Excited State   1:      Singlet-A      2.0078 eV  617.51 nm  f=3.3157  <S**2>=0.000
     163 ->166        -0.14458
     164 ->165         0.69389
 This state for optimization and/or second-order correction.
 Total Energy, E(TD-HF/TD-DFT) =  -1857.16138111
 Copying the excited state density for this state as the 1-particle RhoCI density.

 The electronic state is 1-A.
 Alpha  occ. eigenvalues --  -19.22452 -19.22292 -19.21490 -19.19175 -10.32197
 Alpha  occ. eigenvalues --  -10.31869 -10.30802 -10.30582 -10.29694 -10.28866
 Alpha  occ. eigenvalues --  -10.28699 -10.28588 -10.28142 -10.28122 -10.28077
 Alpha  occ. eigenvalues --  -10.27913 -10.27873 -10.27803 -10.27759 -10.27717
 Alpha  occ. eigenvalues --  -10.27485 -10.27209 -10.27185 -10.27097 -10.26831
 Alpha  occ. eigenvalues --  -10.26726 -10.26702 -10.26413 -10.26237 -10.26164
 Alpha  occ. eigenvalues --  -10.26027 -10.26006 -10.25836 -10.25687 -10.25651
 Alpha  occ. eigenvalues --  -10.25648 -10.25541 -10.25529 -10.25240 -10.25171
 Alpha  occ. eigenvalues --  -10.25092 -10.24568 -10.23206 -10.21496  -1.15438
 Alpha  occ. eigenvalues --   -1.13391  -1.08326  -1.05533  -0.93406  -0.93112
 Alpha  occ. eigenvalues --   -0.92256  -0.91813  -0.91474  -0.90687  -0.88065
 Alpha  occ. eigenvalues --   -0.86393  -0.85678  -0.84776  -0.84565  -0.82756
 Alpha  occ. eigenvalues --   -0.82432  -0.80313  -0.80115  -0.79472  -0.77608
 Alpha  occ. eigenvalues --   -0.77134  -0.77125  -0.76564  -0.75764  -0.75435
 Alpha  occ. eigenvalues --   -0.74464  -0.73385  -0.73196  -0.71890  -0.70356
 Alpha  occ. eigenvalues --   -0.68799  -0.67731  -0.66159  -0.65141  -0.63928
 Alpha  occ. eigenvalues --   -0.63402  -0.61438  -0.60946  -0.60404  -0.59746
 Alpha  occ. eigenvalues --   -0.59304  -0.58601  -0.57648  -0.57308  -0.57004
 Alpha  occ. eigenvalues --   -0.56353  -0.55832  -0.55011  -0.54494  -0.54461
 Alpha  occ. eigenvalues --   -0.53747  -0.53578  -0.53170  -0.52498  -0.52187
 Alpha  occ. eigenvalues --   -0.52050  -0.50808  -0.50631  -0.50454  -0.50354
 Alpha  occ. eigenvalues --   -0.49930  -0.49443  -0.49312  -0.49204  -0.48813
 Alpha  occ. eigenvalues --   -0.48724  -0.48310  -0.47931  -0.47836  -0.47595
 Alpha  occ. eigenvalues --   -0.47057  -0.46520  -0.46220  -0.46091  -0.45550
 Alpha  occ. eigenvalues --   -0.45419  -0.45181  -0.45139  -0.44353  -0.44226
 Alpha  occ. eigenvalues --   -0.44027  -0.43506  -0.42868  -0.42743  -0.42092
 Alpha  occ. eigenvalues --   -0.42046  -0.41810  -0.41654  -0.41489  -0.41076
 Alpha  occ. eigenvalues --   -0.41041  -0.40846  -0.40560  -0.40135  -0.40089
 Alpha  occ. eigenvalues --   -0.39644  -0.39462  -0.39160  -0.38874  -0.38683
 Alpha  occ. eigenvalues --   -0.38562  -0.37927  -0.37666  -0.37244  -0.36492
 Alpha  occ. eigenvalues --   -0.35398  -0.34803  -0.34516  -0.34214  -0.33125
 Alpha  occ. eigenvalues --   -0.32424  -0.31490  -0.31352  -0.30421  -0.29457
 Alpha  occ. eigenvalues --   -0.29190  -0.28060  -0.23954  -0.19545
 Alpha virt. eigenvalues --   -0.06897  -0.02255   0.02336   0.05915   0.06651
 Alpha virt. eigenvalues --    0.08184   0.09963   0.10319   0.10580   0.11495
 Alpha virt. eigenvalues --    0.12434   0.12587   0.13025   0.13924   0.14389

 Mulliken charges:
               1
     1  O   -0.495079
     2  O   -0.508332
     3  O   -0.605173
     4  O   -0.559138
     5  C    0.222521
     6  C    0.169345
     7  C    0.023689
     8  C   -0.197561
     9  C   -0.206413
    10  C    0.166464
    11  C   -0.320995
    12  C   -0.096284
    13  C   -0.294951
    14  C   -0.321985
    15  C   -0.088251
    16  C    0.060443
    17  C   -0.372334
    18  C   -0.106232
    19  C   -0.098871
    20  C    0.006823
    21  C    0.269783
    22  C   -0.161707
    23  C    0.145518
    24  C   -0.181332
    25  C   -0.052572
    26  C   -0.292455
    27  C   -0.298955
    28  C   -0.281627
    29  C   -0.122036
    30  C    0.026599
    31  C    0.132933
    32  C   -0.229450
    33  C   -0.380836
    34  C   -0.122802
    35  C    0.076746
    36  C   -0.329306
    37  C   -0.101749
    38  C   -0.091857
    39  C   -0.081620
    40  C   -0.058641
    41  C   -0.114894
    42  C   -0.129977
    43  C    0.121898
    44  C   -0.380109
    45  H    0.107015
    46  H    0.101563
    47  H    0.061425
    48  H    0.104980
    49  H    0.091811
    50  H    0.082590
    51  H    0.125946
    52  H    0.111455
    53  H    0.117710
    54  H    0.119184
    55  H    0.115885
    56  H    0.082775
    57  H    0.108977
    58  H    0.110383
    59  H    0.078641
    60  H    0.306275
    61  H    0.078904
    62  H    0.142524
    63  H    0.122312
    64  H    0.112270
    65  H    0.078252
    66  H    0.084185
    67  H    0.088329
    68  H    0.113163
    69  H    0.076185
    70  H    0.102276
    71  H    0.111533
    72  H    0.083511
    73  H    0.117041
    74  H    0.073580
    75  H    0.115324
    76  H    0.109918
    77  H    0.089574
    78  H    0.113630
    79  H    0.090034
    80  H    0.105956
    81  H    0.085655
    82  H    0.298539
    83  H    0.311544
    84  H    0.121928
    85  H    0.131824
    86  H    0.137158
    87  H    0.085624
    88  H    0.072954
    89  H    0.102808
    90  H    0.118356
    91  H    0.133679
    92  H    0.077839
    93  H    0.073733
    94  H    0.072908
    95  H    0.075310
    96  H    0.097350
    97  H    0.067433
    98  H    0.123487
    99  H    0.141014
   100  H    0.096503
 Sum of Mulliken charges =  -0.00000

 Dipole moment (field-independent basis, Debye):
    X=              1.9956    Y=             -0.1891    Z=              3.2032  Tot=              3.7787
 Quadrupole moment (field-independent basis, Debye-Ang):
   XX=           -277.3270   YY=           -257.2158   ZZ=           -283.4265
   XY=             -2.1500   XZ=             35.8330   YZ=             -7.0127

 Normal termination of Gaussian 16 at Fri Aug  2 03:33:15 2019.
