 Gaussian 16, Revision A.03,
 Gaussian 16:  ES64L-G16RevA.03 25-Dec-2016

 -------------------------------------
 # td=(NStates=1) CAM-B3LYP/6-31G(d,p)
 -------------------------------------

 --
 TD
 --
 Symbolic Z-matrix:
 Charge =  0 Multiplicity = 1

                         Standard orientation:
 ---------------------------------------------------------------------
 Center     Atomic      Atomic             Coordinates (Angstroms)
 Number     Number       Type             X           Y           Z
 ---------------------------------------------------------------------
      1          8           0      -11.797961    0.346485   -1.412998
      2          8           0      -12.986145   -2.602370    1.348140
      3          8           0       10.570957   -1.246509   -1.962767
      4          8           0       14.478729   -1.140011   -0.154276
      5          6           0      -10.985538   -0.191361   -0.236808
      6          6           0      -11.663230   -1.024974   -1.262230
      7          6           0      -11.816133    0.218221    1.013997
      8          6           0      -12.978321   -1.685921   -1.057330
      9          6           0      -13.294830   -0.194423    0.945229
     10          6           0      -13.565758   -1.494534    0.454855
     11          6           0      -10.828162   -1.889170   -2.341814
     12          6           0       -9.572592    0.039560   -0.347067
     13          6           0      -11.195614   -0.328728    2.344890
     14          6           0      -11.555124    1.808771    1.154044
     15          6           0       -8.668182   -0.802419    0.088888
     16          6           0       -7.176190   -0.621119    0.119786
     17          6           0       -6.346516   -1.760018    0.348228
     18          6           0       -6.559297    0.576303   -0.158490
     19          6           0       -5.229983    0.963525   -0.314993
     20          6           0       11.901705    0.067905    1.236493
     21          6           0       11.632104   -0.800436   -1.189082
     22          6           0       12.680348   -1.228445    1.574190
     23          6           0       13.392017   -1.857122    0.371630
     24          6           0       12.399013   -2.061230   -0.708496
     25          6           0       11.108732   -0.073568    0.040361
     26          6           0       11.063904    0.482455    2.492535
     27          6           0       12.874486    1.230361    1.097579
     28          6           0       12.480227    0.101963   -2.077563
     29          6           0       -4.749058    2.150658   -0.342686
     30          6           0        9.920756    0.453982   -0.110968
     31          6           0       -3.374092    2.571834   -0.517635
     32          6           0        8.698856    0.961326   -0.147792
     33          6           0       -2.997720    3.987829   -0.809840
     34          6           0       -2.341072    1.680466   -0.242221
     35          6           0        7.411867    0.221827    0.072507
     36          6           0        7.620391   -1.243729    0.458505
     37          6           0        6.274444    0.883539   -0.181967
     38          6           0       -1.022890    1.959742   -0.306428
     39          6           0        4.971797    0.345256   -0.046639
     40          6           0       -0.030056    0.928785   -0.094742
     41          6           0        3.680875    1.112295   -0.199996
     42          6           0        1.337794    1.272213   -0.186532
     43          6           0        2.479642    0.559702    0.042566
     44          6           0        2.382510   -1.006908    0.266302
     45          1           0      -12.749658   -2.832614   -1.245777
     46          1           0      -13.640078   -1.122758   -1.702716
     47          1           0      -13.698392    0.052393    1.857883
     48          1           0      -13.848023    0.658789    0.324466
     49          1           0      -14.600019   -1.766479    0.654917
     50          1           0      -10.421698   -2.841777   -1.962033
     51          1           0      -11.408285   -2.110781   -3.102501
     52          1           0      -10.056563   -1.186986   -2.889930
     53          1           0       -9.168279    0.992220   -0.780401
     54          1           0      -10.102008    0.137014    2.607296
     55          1           0      -11.862642   -0.140476    3.272326
     56          1           0      -11.104402   -1.559085    2.249311
     57          1           0      -11.984013    2.351384    0.256762
     58          1           0      -12.111543    2.326963    2.019682
     59          1           0      -10.376368    2.190965    1.467089
     60          1           0      -11.958416   -2.476569    1.385793
     61          1           0       -8.765583   -1.712451    0.528295
     62          1           0       -5.656397   -2.156195   -0.543231
     63          1           0       -5.531131   -1.502875    1.152616
     64          1           0       -7.010097   -2.542224    0.638967
     65          1           0       -7.309052    1.378547   -0.441231
     66          1           0       -4.554484    0.063935   -0.097138
     67          1           0       13.463353   -0.904663    2.389618
     68          1           0       11.961905   -2.004934    1.796228
     69          1           0       13.708216   -2.999027    0.717290
     70          1           0       12.780467   -2.536401   -1.632396
     71          1           0       11.769538   -3.018156   -0.373174
     72          1           0       11.342236    0.719416    3.557315
     73          1           0       10.409838    1.343620    2.272938
     74          1           0       10.170740   -0.306553    2.871980
     75          1           0       13.907586    1.099960    0.560121
     76          1           0       12.159034    1.884060    0.623709
     77          1           0       13.192117    1.633147    2.103540
     78          1           0       13.027458   -0.391625   -3.050748
     79          1           0       11.937440    1.005113   -2.534496
     80          1           0       13.231663    0.552599   -1.495932
     81          1           0       -5.503030    3.038366   -0.260150
     82          1           0       10.180443   -0.441160   -2.273091
     83          1           0       15.094757   -0.671478    0.557942
     84          1           0        8.454229    2.110630   -0.455283
     85          1           0       -2.322935    4.382702   -0.037362
     86          1           0       -2.366528    4.058942   -1.701885
     87          1           0       -3.849134    4.793884   -0.673956
     88          1           0       -2.583832    0.555306   -0.094091
     89          1           0        6.735014   -1.848815    0.337285
     90          1           0        8.517249   -1.729707   -0.143244
     91          1           0        7.963637   -1.182427    1.502659
     92          1           0        6.390706    1.684935   -0.260989
     93          1           0       -0.774110    3.087863   -0.454249
     94          1           0        4.768911   -0.798222    0.156227
     95          1           0       -0.299918   -0.102142    0.070545
     96          1           0        3.795479    2.013023   -0.420546
     97          1           0        1.331687    2.360845   -0.498416
     98          1           0        1.280460   -1.573469    0.357568
     99          1           0        2.877698   -1.706267   -0.543053
    100          1           0        2.873466   -1.057524    1.385267
 ---------------------------------------------------------------------

 SCF Done:  E(RCAM-B3LYP) =  -1857.18590092     A.U. after   15 cycles

 Excitation energies and oscillator strengths:

 Excited State   1:      Singlet-A      2.0732 eV  598.03 nm  f=3.1108  <S**2>=0.000
     163 ->166        -0.12827
     164 ->165         0.69893
     164 <-165        -0.11012
 This state for optimization and/or second-order correction.
 Total Energy, E(TD-HF/TD-DFT) =  -1857.10971150
 Copying the excited state density for this state as the 1-particle RhoCI density.

 The electronic state is 1-A.
 Alpha  occ. eigenvalues --  -19.22975 -19.21810 -19.20998 -19.20346 -10.32330
 Alpha  occ. eigenvalues --  -10.32271 -10.32130 -10.32068 -10.30927 -10.29430
 Alpha  occ. eigenvalues --  -10.29378 -10.28881 -10.28659 -10.28261 -10.28093
 Alpha  occ. eigenvalues --  -10.27983 -10.27606 -10.27479 -10.27474 -10.27304
 Alpha  occ. eigenvalues --  -10.27282 -10.27262 -10.27047 -10.26808 -10.26804
 Alpha  occ. eigenvalues --  -10.26699 -10.26658 -10.26608 -10.26429 -10.26425
 Alpha  occ. eigenvalues --  -10.26386 -10.26270 -10.26145 -10.26117 -10.25973
 Alpha  occ. eigenvalues --  -10.25954 -10.25706 -10.25549 -10.25504 -10.25478
 Alpha  occ. eigenvalues --  -10.25469 -10.25218 -10.25150 -10.23519  -1.14349
 Alpha  occ. eigenvalues --   -1.12054  -1.09568  -1.04591  -0.94756  -0.92841
 Alpha  occ. eigenvalues --   -0.92236  -0.91616  -0.90773  -0.90216  -0.87938
 Alpha  occ. eigenvalues --   -0.86680  -0.86245  -0.85794  -0.84883  -0.83761
 Alpha  occ. eigenvalues --   -0.82457  -0.80927  -0.80081  -0.78508  -0.76838
 Alpha  occ. eigenvalues --   -0.76561  -0.76085  -0.76045  -0.75692  -0.75284
 Alpha  occ. eigenvalues --   -0.74884  -0.73648  -0.72966  -0.70424  -0.69608
 Alpha  occ. eigenvalues --   -0.69027  -0.66878  -0.66158  -0.65650  -0.64533
 Alpha  occ. eigenvalues --   -0.63459  -0.62844  -0.61875  -0.60901  -0.59394
 Alpha  occ. eigenvalues --   -0.58922  -0.58468  -0.58236  -0.57526  -0.57238
 Alpha  occ. eigenvalues --   -0.56397  -0.55038  -0.54785  -0.54524  -0.53968
 Alpha  occ. eigenvalues --   -0.52972  -0.52873  -0.52593  -0.52321  -0.52311
 Alpha  occ. eigenvalues --   -0.52031  -0.50906  -0.50017  -0.49742  -0.49508
 Alpha  occ. eigenvalues --   -0.49160  -0.48771  -0.48400  -0.48239  -0.48023
 Alpha  occ. eigenvalues --   -0.47898  -0.47629  -0.47277  -0.47040  -0.46902
 Alpha  occ. eigenvalues --   -0.46648  -0.46411  -0.46197  -0.45307  -0.45026
 Alpha  occ. eigenvalues --   -0.44859  -0.44540  -0.44109  -0.43687  -0.43627
 Alpha  occ. eigenvalues --   -0.43288  -0.43034  -0.42887  -0.42522  -0.42209
 Alpha  occ. eigenvalues --   -0.42184  -0.41304  -0.41148  -0.40973  -0.40856
 Alpha  occ. eigenvalues --   -0.40716  -0.40518  -0.39861  -0.39813  -0.39699
 Alpha  occ. eigenvalues --   -0.39678  -0.39181  -0.39042  -0.38619  -0.38487
 Alpha  occ. eigenvalues --   -0.38000  -0.37903  -0.37778  -0.37641  -0.37186
 Alpha  occ. eigenvalues --   -0.36585  -0.36192  -0.35367  -0.34746  -0.33838
 Alpha  occ. eigenvalues --   -0.33330  -0.32467  -0.32065  -0.31695  -0.31009
 Alpha  occ. eigenvalues --   -0.30001  -0.28290  -0.24659  -0.19159
 Alpha virt. eigenvalues --   -0.06507  -0.00651   0.03186   0.04952   0.07634
 Alpha virt. eigenvalues --    0.08653   0.09074   0.09941   0.11095   0.11725
 Alpha virt. eigenvalues --    0.12233   0.12435   0.12814   0.13063   0.13140

 Mulliken charges:
               1
     1  O   -0.512455
     2  O   -0.582503
     3  O   -0.544685
     4  O   -0.548760
     5  C    0.174205
     6  C    0.271432
     7  C    0.024215
     8  C   -0.200572
     9  C   -0.164800
    10  C    0.132701
    11  C   -0.347322
    12  C   -0.123701
    13  C   -0.273606
    14  C   -0.315290
    15  C   -0.006027
    16  C    0.069019
    17  C   -0.380574
    18  C   -0.117792
    19  C   -0.040350
    20  C    0.014220
    21  C    0.261099
    22  C   -0.176842
    23  C    0.181098
    24  C   -0.197234
    25  C   -0.049401
    26  C   -0.320584
    27  C   -0.295114
    28  C   -0.302097
    29  C   -0.112662
    30  C    0.170465
    31  C    0.089238
    32  C   -0.327631
    33  C   -0.401146
    34  C   -0.092973
    35  C    0.125851
    36  C   -0.379939
    37  C    0.030332
    38  C   -0.095458
    39  C   -0.137574
    40  C   -0.081674
    41  C   -0.072272
    42  C   -0.129129
    43  C    0.119350
    44  C   -0.356061
    45  H    0.102330
    46  H    0.124950
    47  H    0.114739
    48  H    0.101166
    49  H    0.112556
    50  H    0.112126
    51  H    0.128759
    52  H    0.103835
    53  H    0.117191
    54  H    0.097841
    55  H    0.112858
    56  H    0.042271
    57  H    0.122709
    58  H    0.092947
    59  H    0.083845
    60  H    0.295863
    61  H    0.062074
    62  H    0.112537
    63  H    0.114320
    64  H    0.101276
    65  H    0.053974
    66  H    0.068296
    67  H    0.076558
    68  H    0.108601
    69  H    0.049273
    70  H    0.119521
    71  H    0.099637
    72  H    0.112704
    73  H    0.115209
    74  H    0.064203
    75  H    0.090881
    76  H    0.113151
    77  H    0.100179
    78  H    0.096071
    79  H    0.081311
    80  H    0.129195
    81  H    0.077711
    82  H    0.301919
    83  H    0.311304
    84  H    0.094217
    85  H    0.129321
    86  H    0.134931
    87  H    0.103293
    88  H    0.078015
    89  H    0.111984
    90  H    0.131697
    91  H    0.127850
    92  H   -0.019220
    93  H    0.084669
    94  H    0.083627
    95  H    0.085363
    96  H    0.057251
    97  H    0.074357
    98  H    0.086967
    99  H    0.123654
   100  H    0.109132
 Sum of Mulliken charges =  -0.00000

 Dipole moment (field-independent basis, Debye):
    X=              4.2789    Y=              1.8564    Z=              1.8966  Tot=              5.0351
 Quadrupole moment (field-independent basis, Debye-Ang):
   XX=           -269.4308   YY=           -264.8539   ZZ=           -275.6678
   XY=              2.4726   XZ=             24.6004   YZ=              1.0766

 Normal termination of Gaussian 16 at Wed Jul 31 11:38:22 2019.
