 Gaussian 16, Revision A.03,
 Gaussian 16:  ES64L-G16RevA.03 25-Dec-2016

 -------------------------------------
 # td=(NStates=1) CAM-B3LYP/6-31G(d,p)
 -------------------------------------

 --
 TD
 --
 Symbolic Z-matrix:
 Charge =  0 Multiplicity = 1

                         Standard orientation:
 ---------------------------------------------------------------------
 Center     Atomic      Atomic             Coordinates (Angstroms)
 Number     Number       Type             X           Y           Z
 ---------------------------------------------------------------------
      1          8           0      -11.706034    0.176846   -1.638816
      2          8           0      -12.907084   -2.310471    1.635323
      3          8           0       10.589275   -0.837944   -2.116146
      4          8           0       14.425960   -0.976845   -0.277931
      5          6           0      -11.032756   -0.147253   -0.343001
      6          6           0      -11.710911   -1.121591   -1.248393
      7          6           0      -11.757101    0.515117    0.835406
      8          6           0      -13.006856   -1.848709   -0.909323
      9          6           0      -13.172775   -0.085231    0.831287
     10          6           0      -13.492788   -1.474500    0.537451
     11          6           0      -10.876665   -1.960119   -2.169038
     12          6           0       -9.587691    0.045810   -0.432059
     13          6           0      -11.073817    0.098226    2.161288
     14          6           0      -11.907578    2.049971    0.706520
     15          6           0       -8.660064   -0.825641    0.063795
     16          6           0       -7.267028   -0.635442   -0.025370
     17          6           0       -6.452383   -1.807342    0.474765
     18          6           0       -6.672884    0.578440   -0.095885
     19          6           0       -5.304136    0.818582   -0.066000
     20          6           0       11.967855   -0.051901    1.381679
     21          6           0       11.629116   -0.521409   -1.319559
     22          6           0       12.669263   -1.380269    1.386875
     23          6           0       13.409611   -1.728186    0.121539
     24          6           0       12.368881   -1.818343   -1.023310
     25          6           0       11.070756    0.082125   -0.016825
     26          6           0       11.025952    0.092118    2.677524
     27          6           0       12.851528    1.218298    1.472854
     28          6           0       12.515511    0.521860   -2.017303
     29          6           0       -4.724634    2.110114   -0.148021
     30          6           0        9.870746    0.517088    0.012876
     31          6           0       -3.363646    2.510347   -0.245083
     32          6           0        8.652444    0.877855   -0.103010
     33          6           0       -3.045937    3.907377   -0.641393
     34          6           0       -2.226216    1.618260   -0.113780
     35          6           0        7.444954    0.033788    0.017583
     36          6           0        7.691208   -1.396876    0.402080
     37          6           0        6.284028    0.679343   -0.232260
     38          6           0       -0.875712    1.883872   -0.370255
     39          6           0        4.954507    0.048235   -0.043769
     40          6           0        0.088650    0.958534   -0.083376
     41          6           0        3.837207    0.784482   -0.094369
     42          6           0        1.432427    1.181400   -0.211329
     43          6           0        2.502997    0.260167   -0.032085
     44          6           0        2.207955   -1.231115    0.249563
     45          1           0      -12.868900   -2.967276   -0.949736
     46          1           0      -13.861589   -1.445717   -1.466129
     47          1           0      -13.525766    0.228136    1.848362
     48          1           0      -13.834264    0.483322    0.036295
     49          1           0      -14.557141   -1.760060    0.469646
     50          1           0      -10.985541   -3.033728   -1.781163
     51          1           0      -11.337915   -2.352395   -3.166837
     52          1           0       -9.724858   -1.632753   -2.185562
     53          1           0       -9.102358    0.778416   -0.963209
     54          1           0      -10.124269    0.671641    2.217631
     55          1           0      -11.842647    0.404769    2.945487
     56          1           0      -10.986550   -1.020843    2.351925
     57          1           0      -12.311895    2.365523   -0.291552
     58          1           0      -12.390396    2.630709    1.591692
     59          1           0      -10.878609    2.397690    0.640751
     60          1           0      -11.998765   -2.311023    1.357310
     61          1           0       -9.223564   -1.710286    0.500133
     62          1           0       -5.742971   -2.180889   -0.353428
     63          1           0       -5.731736   -1.830847    1.250595
     64          1           0       -7.163023   -2.554001    1.033135
     65          1           0       -7.277007    1.413283   -0.202577
     66          1           0       -4.511569    0.115728    0.172824
     67          1           0       13.412120   -1.153393    2.178899
     68          1           0       11.976406   -2.050630    1.798162
     69          1           0       13.700065   -2.800188    0.302989
     70          1           0       12.957461   -1.868227   -1.915213
     71          1           0       11.700592   -2.641474   -0.760406
     72          1           0       11.769250    0.273013    3.416502
     73          1           0       10.443707    0.896343    2.534778
     74          1           0       10.450694   -0.677072    2.884963
     75          1           0       13.526597    1.132806    0.629553
     76          1           0       12.240301    2.147183    1.276911
     77          1           0       13.462490    1.220508    2.339323
     78          1           0       12.967038    0.252706   -3.052420
     79          1           0       12.062421    1.548441   -2.122197
     80          1           0       13.173917    0.708405   -1.318913
     81          1           0       -5.491251    2.987355   -0.324253
     82          1           0       10.074152    0.075553   -2.366174
     83          1           0       14.931531   -0.840567    0.560450
     84          1           0        8.600421    2.126514   -0.300164
     85          1           0       -2.221282    4.301661    0.090459
     86          1           0       -2.458347    4.159713   -1.592320
     87          1           0       -3.898357    4.655445   -0.905989
     88          1           0       -2.405187    0.637698    0.278424
     89          1           0        6.758976   -1.893339    0.486284
     90          1           0        8.358029   -1.797180   -0.364631
     91          1           0        8.118477   -1.345651    1.608611
     92          1           0        6.419697    1.693501   -0.152069
     93          1           0       -0.587640    2.874703   -0.506457
     94          1           0        5.171302   -0.960839    0.264369
     95          1           0       -0.274280   -0.108039    0.253035
     96          1           0        3.952719    1.925081   -0.452627
     97          1           0        1.724722    2.215425   -0.270233
     98          1           0        1.193487   -1.596156    0.062586
     99          1           0        2.879448   -1.945371   -0.045363
    100          1           0        2.490620   -1.400923    1.518359
 ---------------------------------------------------------------------

 SCF Done:  E(RCAM-B3LYP) =  -1857.33153493     A.U. after   15 cycles

 Excitation energies and oscillator strengths:

 Excited State   1:      Singlet-A      2.0783 eV  596.56 nm  f=2.8261  <S**2>=0.000
     163 ->166        -0.12118
     164 ->165         0.70080
     164 <-165        -0.10670
 This state for optimization and/or second-order correction.
 Total Energy, E(TD-HF/TD-DFT) =  -1857.25515832
 Copying the excited state density for this state as the 1-particle RhoCI density.

 The electronic state is 1-A.
 Alpha  occ. eigenvalues --  -19.24115 -19.21817 -19.21092 -19.20454 -10.32210
 Alpha  occ. eigenvalues --  -10.31891 -10.31208 -10.31166 -10.30539 -10.29100
 Alpha  occ. eigenvalues --  -10.28579 -10.28195 -10.28072 -10.27929 -10.27755
 Alpha  occ. eigenvalues --  -10.27749 -10.27593 -10.27571 -10.27357 -10.27212
 Alpha  occ. eigenvalues --  -10.27097 -10.27056 -10.26850 -10.26724 -10.26513
 Alpha  occ. eigenvalues --  -10.26489 -10.26437 -10.26119 -10.26094 -10.25969
 Alpha  occ. eigenvalues --  -10.25855 -10.25796 -10.25720 -10.25667 -10.25656
 Alpha  occ. eigenvalues --  -10.25636 -10.25299 -10.25189 -10.25125 -10.25020
 Alpha  occ. eigenvalues --  -10.24871 -10.24609 -10.23458 -10.22619  -1.16149
 Alpha  occ. eigenvalues --   -1.15090  -1.10578  -1.07848  -0.92682  -0.92609
 Alpha  occ. eigenvalues --   -0.92072  -0.91403  -0.90977  -0.89917  -0.87826
 Alpha  occ. eigenvalues --   -0.86931  -0.86123  -0.85966  -0.85121  -0.83061
 Alpha  occ. eigenvalues --   -0.81984  -0.81120  -0.80482  -0.78539  -0.77656
 Alpha  occ. eigenvalues --   -0.77217  -0.76784  -0.76380  -0.76229  -0.75837
 Alpha  occ. eigenvalues --   -0.75078  -0.74764  -0.73204  -0.70611  -0.70162
 Alpha  occ. eigenvalues --   -0.68798  -0.66828  -0.65089  -0.64418  -0.64291
 Alpha  occ. eigenvalues --   -0.63551  -0.62527  -0.61542  -0.60413  -0.60335
 Alpha  occ. eigenvalues --   -0.59223  -0.58575  -0.58167  -0.57875  -0.57120
 Alpha  occ. eigenvalues --   -0.56507  -0.55761  -0.55181  -0.54732  -0.54582
 Alpha  occ. eigenvalues --   -0.54134  -0.53736  -0.53250  -0.52822  -0.52467
 Alpha  occ. eigenvalues --   -0.51816  -0.51017  -0.50454  -0.50058  -0.49824
 Alpha  occ. eigenvalues --   -0.49751  -0.49443  -0.49067  -0.48755  -0.48443
 Alpha  occ. eigenvalues --   -0.48111  -0.47631  -0.47310  -0.47091  -0.46742
 Alpha  occ. eigenvalues --   -0.46503  -0.46165  -0.46127  -0.45810  -0.45484
 Alpha  occ. eigenvalues --   -0.45377  -0.45299  -0.44895  -0.44314  -0.43902
 Alpha  occ. eigenvalues --   -0.43703  -0.43446  -0.43251  -0.42428  -0.42214
 Alpha  occ. eigenvalues --   -0.42129  -0.42108  -0.41973  -0.41739  -0.41446
 Alpha  occ. eigenvalues --   -0.41284  -0.40959  -0.40809  -0.40409  -0.39991
 Alpha  occ. eigenvalues --   -0.39986  -0.39672  -0.39423  -0.39199  -0.39169
 Alpha  occ. eigenvalues --   -0.38989  -0.37958  -0.37736  -0.37429  -0.37212
 Alpha  occ. eigenvalues --   -0.36956  -0.36014  -0.34720  -0.34326  -0.34051
 Alpha  occ. eigenvalues --   -0.32640  -0.32082  -0.31585  -0.31385  -0.30642
 Alpha  occ. eigenvalues --   -0.29783  -0.27854  -0.24770  -0.19510
 Alpha virt. eigenvalues --   -0.06473  -0.00575   0.03228   0.06723   0.07063
 Alpha virt. eigenvalues --    0.09544   0.09852   0.10581   0.11246   0.11447
 Alpha virt. eigenvalues --    0.11642   0.12062   0.12564   0.13391   0.13525

 Mulliken charges:
               1
     1  O   -0.499627
     2  O   -0.551687
     3  O   -0.568016
     4  O   -0.504215
     5  C    0.139020
     6  C    0.333309
     7  C    0.014758
     8  C   -0.242241
     9  C   -0.150868
    10  C    0.108647
    11  C   -0.344527
    12  C   -0.110947
    13  C   -0.298142
    14  C   -0.309208
    15  C   -0.085594
    16  C    0.081062
    17  C   -0.377876
    18  C   -0.084780
    19  C   -0.056783
    20  C   -0.004532
    21  C    0.280274
    22  C   -0.203053
    23  C    0.166407
    24  C   -0.189433
    25  C   -0.162646
    26  C   -0.292320
    27  C   -0.315691
    28  C   -0.315814
    29  C   -0.142540
    30  C    0.244911
    31  C    0.114625
    32  C   -0.328368
    33  C   -0.390940
    34  C   -0.128370
    35  C    0.099525
    36  C   -0.350064
    37  C   -0.102351
    38  C   -0.060206
    39  C   -0.074950
    40  C   -0.068427
    41  C   -0.132652
    42  C   -0.139803
    43  C    0.126104
    44  C   -0.355264
    45  H    0.114350
    46  H    0.125226
    47  H    0.094607
    48  H    0.082372
    49  H    0.105468
    50  H    0.076327
    51  H    0.112308
    52  H    0.115450
    53  H    0.097143
    54  H    0.112112
    55  H    0.101674
    56  H    0.093905
    57  H    0.130806
    58  H    0.104311
    59  H    0.100216
    60  H    0.296642
    61  H    0.077170
    62  H    0.109298
    63  H    0.126564
    64  H    0.095361
    65  H    0.084046
    66  H    0.082673
    67  H    0.069747
    68  H    0.118663
    69  H    0.063184
    70  H    0.116418
    71  H    0.110353
    72  H    0.093637
    73  H    0.116604
    74  H    0.100681
    75  H    0.105392
    76  H    0.110975
    77  H    0.097484
    78  H    0.100829
    79  H    0.079005
    80  H    0.134264
    81  H    0.071985
    82  H    0.310358
    83  H    0.311336
    84  H    0.083897
    85  H    0.111593
    86  H    0.117598
    87  H    0.106495
    88  H    0.076551
    89  H    0.111670
    90  H    0.153632
    91  H    0.096025
    92  H    0.083228
    93  H    0.079533
    94  H    0.082737
    95  H    0.078512
    96  H    0.090369
    97  H    0.082226
    98  H    0.123012
    99  H    0.134557
   100  H    0.072715
 Sum of Mulliken charges =  -0.00000

 Dipole moment (field-independent basis, Debye):
    X=              5.5785    Y=              0.2676    Z=              2.0689  Tot=              5.9558
 Quadrupole moment (field-independent basis, Debye-Ang):
   XX=           -265.0708   YY=           -260.1654   ZZ=           -281.7014
   XY=             -0.5834   XZ=             35.1036   YZ=             -2.8930

 Normal termination of Gaussian 16 at Thu Aug  1 15:39:17 2019.
