 Gaussian 16, Revision A.03,
 Gaussian 16:  ES64L-G16RevA.03 25-Dec-2016

 -------------------------------------
 # td=(NStates=1) CAM-B3LYP/6-31G(d,p)
 -------------------------------------

 --
 TD
 --
 Symbolic Z-matrix:
 Charge =  0 Multiplicity = 1

                         Standard orientation:
 ---------------------------------------------------------------------
 Center     Atomic      Atomic             Coordinates (Angstroms)
 Number     Number       Type             X           Y           Z
 ---------------------------------------------------------------------
      1          8           0      -11.773222    0.202107   -1.447089
      2          8           0      -13.022442   -2.676028    1.293725
      3          8           0       10.700998   -1.051842   -2.156450
      4          8           0       14.461316   -1.089412   -0.034971
      5          6           0      -11.039205   -0.224304   -0.276851
      6          6           0      -11.573443   -1.145482   -1.232944
      7          6           0      -11.787420    0.233068    1.051429
      8          6           0      -12.959846   -1.732258   -1.034325
      9          6           0      -13.215884   -0.110603    0.931098
     10          6           0      -13.486605   -1.618885    0.418346
     11          6           0      -10.762815   -1.884469   -2.235760
     12          6           0       -9.607891    0.145360   -0.424305
     13          6           0      -11.042101   -0.393084    2.260826
     14          6           0      -11.673718    1.789897    1.171863
     15          6           0       -8.679562   -0.773495    0.049279
     16          6           0       -7.129273   -0.510719    0.090186
     17          6           0       -6.317409   -1.710875    0.332839
     18          6           0       -6.583075    0.790842   -0.029415
     19          6           0       -5.193671    1.022829   -0.128587
     20          6           0       11.956816    0.071396    1.323956
     21          6           0       11.717280   -0.659819   -1.238851
     22          6           0       12.652839   -1.370929    1.510666
     23          6           0       13.368333   -1.872155    0.330668
     24          6           0       12.439327   -2.013514   -0.798710
     25          6           0       11.078909   -0.010937    0.048835
     26          6           0       10.971384    0.167421    2.459985
     27          6           0       12.930717    1.183851    1.361580
     28          6           0       12.499302    0.298003   -1.985729
     29          6           0       -4.684706    2.297491   -0.368314
     30          6           0        9.858386    0.425210   -0.039580
     31          6           0       -3.377641    2.662926   -0.443155
     32          6           0        8.612880    0.949536   -0.121334
     33          6           0       -3.052980    4.142549   -0.640554
     34          6           0       -2.339347    1.755226   -0.251872
     35          6           0        7.378829    0.154628   -0.063621
     36          6           0        7.536376   -1.323239    0.074582
     37          6           0        6.179354    0.815337   -0.146139
     38          6           0       -0.958247    2.015604   -0.246639
     39          6           0        4.915807    0.185366   -0.107444
     40          6           0       -0.023224    1.076824   -0.019218
     41          6           0        3.769521    0.971607   -0.247176
     42          6           0        1.366902    1.232353   -0.217910
     43          6           0        2.442653    0.415296   -0.044649
     44          6           0        2.314545   -0.959837    0.414880
     45          1           0      -13.022304   -2.849023   -1.248239
     46          1           0      -13.698602   -1.382293   -1.750379
     47          1           0      -13.656027    0.043454    1.970615
     48          1           0      -13.724611    0.537505    0.340214
     49          1           0      -14.607579   -1.655646    0.497376
     50          1           0      -10.357121   -2.771964   -2.095641
     51          1           0      -11.377340   -2.196135   -3.266380
     52          1           0       -9.882434   -1.267092   -2.588047
     53          1           0       -9.316222    1.011918   -1.167276
     54          1           0      -10.046716    0.008495    2.362826
     55          1           0      -11.505061   -0.257324    3.324592
     56          1           0      -10.813962   -1.507559    2.212286
     57          1           0      -12.184500    2.356701    0.333978
     58          1           0      -12.090068    2.150856    2.101410
     59          1           0      -10.565195    2.013272    1.034500
     60          1           0      -12.135056   -2.895177    1.241380
     61          1           0       -8.999179   -1.780510    0.594753
     62          1           0       -5.660675   -1.934093   -0.485979
     63          1           0       -5.728912   -1.640744    1.200696
     64          1           0       -7.039290   -2.535958    0.628266
     65          1           0       -7.365895    1.674329   -0.106809
     66          1           0       -4.602947    0.089430    0.440282
     67          1           0       13.398976   -1.249928    2.279078
     68          1           0       11.851904   -2.117015    1.708591
     69          1           0       13.770026   -2.904948    0.482560
     70          1           0       12.918784   -2.290435   -1.521224
     71          1           0       11.803741   -3.006378   -0.474069
     72          1           0       11.519850   -0.387758    3.467985
     73          1           0       10.664889    1.231904    2.668014
     74          1           0       10.116509   -0.511536    2.382117
     75          1           0       13.494152    1.407733    0.469318
     76          1           0       12.530314    2.220032    1.537715
     77          1           0       13.324562    1.110163    2.369782
     78          1           0       13.118449   -0.236865   -2.952497
     79          1           0       11.922233    1.322358   -2.213276
     80          1           0       13.395912    0.640842   -1.302495
     81          1           0       -5.443806    3.074231   -1.003174
     82          1           0        9.939134   -0.329572   -2.232894
     83          1           0       15.279625   -1.085188    0.651641
     84          1           0        8.463929    2.037264   -0.431033
     85          1           0       -2.736892    4.709714    0.404985
     86          1           0       -2.448834    4.335418   -1.537748
     87          1           0       -4.119468    4.535348   -0.589706
     88          1           0       -2.814593    0.650353   -0.073426
     89          1           0        6.597821   -1.864518   -0.208567
     90          1           0        8.205921   -1.592756   -0.810420
     91          1           0        8.012141   -1.608194    0.957836
     92          1           0        6.162422    1.994709   -0.323480
     93          1           0       -0.632868    3.009857   -0.312167
     94          1           0        4.645235   -0.788366   -0.011860
     95          1           0       -0.334291    0.070550    0.128572
     96          1           0        3.811719    2.026113   -0.138636
     97          1           0        1.698075    2.311604   -0.496829
     98          1           0        1.154193   -1.137448    0.583594
     99          1           0        2.704404   -1.555444   -0.635914
    100          1           0        2.459735   -1.240994    1.433880
 ---------------------------------------------------------------------

 SCF Done:  E(RCAM-B3LYP) =  -1857.28361370     A.U. after   15 cycles

 Excitation energies and oscillator strengths:

 Excited State   1:      Singlet-A      2.2482 eV  551.49 nm  f=2.8733  <S**2>=0.000
     163 ->166         0.14306
     164 ->165         0.69150
 This state for optimization and/or second-order correction.
 Total Energy, E(TD-HF/TD-DFT) =  -1857.20099493
 Copying the excited state density for this state as the 1-particle RhoCI density.

 The electronic state is 1-A.
 Alpha  occ. eigenvalues --  -19.22108 -19.21646 -19.20468 -19.20016 -10.32007
 Alpha  occ. eigenvalues --  -10.31784 -10.31783 -10.31299 -10.29989 -10.29169
 Alpha  occ. eigenvalues --  -10.28422 -10.28266 -10.28202 -10.28035 -10.27899
 Alpha  occ. eigenvalues --  -10.27837 -10.27763 -10.27679 -10.27574 -10.27331
 Alpha  occ. eigenvalues --  -10.27029 -10.27026 -10.27025 -10.27002 -10.26911
 Alpha  occ. eigenvalues --  -10.26844 -10.26538 -10.26495 -10.26272 -10.26154
 Alpha  occ. eigenvalues --  -10.25936 -10.25812 -10.25744 -10.25677 -10.25581
 Alpha  occ. eigenvalues --  -10.25579 -10.25525 -10.25491 -10.25477 -10.25332
 Alpha  occ. eigenvalues --  -10.25099 -10.24690 -10.24446 -10.23964  -1.17345
 Alpha  occ. eigenvalues --   -1.09404  -1.08780  -1.07386  -0.93030  -0.92536
 Alpha  occ. eigenvalues --   -0.91887  -0.90719  -0.90485  -0.89614  -0.87636
 Alpha  occ. eigenvalues --   -0.86792  -0.85871  -0.85358  -0.84767  -0.83407
 Alpha  occ. eigenvalues --   -0.82232  -0.80778  -0.80474  -0.78108  -0.77360
 Alpha  occ. eigenvalues --   -0.76501  -0.76217  -0.76114  -0.75994  -0.75288
 Alpha  occ. eigenvalues --   -0.75090  -0.73802  -0.72917  -0.70393  -0.69036
 Alpha  occ. eigenvalues --   -0.67951  -0.66696  -0.65661  -0.64464  -0.63986
 Alpha  occ. eigenvalues --   -0.63140  -0.62343  -0.61421  -0.60128  -0.59864
 Alpha  occ. eigenvalues --   -0.58550  -0.57957  -0.57472  -0.57085  -0.56203
 Alpha  occ. eigenvalues --   -0.55519  -0.55198  -0.54839  -0.54635  -0.54207
 Alpha  occ. eigenvalues --   -0.53499  -0.52962  -0.52438  -0.52263  -0.51886
 Alpha  occ. eigenvalues --   -0.51223  -0.50942  -0.50391  -0.50319  -0.49910
 Alpha  occ. eigenvalues --   -0.49650  -0.49485  -0.49154  -0.48782  -0.48480
 Alpha  occ. eigenvalues --   -0.48176  -0.47942  -0.47745  -0.47086  -0.46653
 Alpha  occ. eigenvalues --   -0.46347  -0.45414  -0.45218  -0.44656  -0.44530
 Alpha  occ. eigenvalues --   -0.44280  -0.44186  -0.43882  -0.43643  -0.42963
 Alpha  occ. eigenvalues --   -0.42851  -0.42709  -0.42335  -0.42258  -0.41995
 Alpha  occ. eigenvalues --   -0.41775  -0.41549  -0.41338  -0.41080  -0.41021
 Alpha  occ. eigenvalues --   -0.40788  -0.40572  -0.40295  -0.39923  -0.39842
 Alpha  occ. eigenvalues --   -0.39433  -0.39261  -0.38985  -0.38867  -0.38448
 Alpha  occ. eigenvalues --   -0.38176  -0.37970  -0.37556  -0.37351  -0.36349
 Alpha  occ. eigenvalues --   -0.36077  -0.35344  -0.35119  -0.34425  -0.33485
 Alpha  occ. eigenvalues --   -0.32318  -0.32017  -0.31561  -0.31203  -0.30710
 Alpha  occ. eigenvalues --   -0.30088  -0.28126  -0.24151  -0.19955
 Alpha virt. eigenvalues --   -0.05699  -0.00925   0.02733   0.06036   0.06964
 Alpha virt. eigenvalues --    0.08527   0.09463   0.09905   0.10787   0.11693
 Alpha virt. eigenvalues --    0.12054   0.12294   0.12586   0.13428   0.13578

 Mulliken charges:
               1
     1  O   -0.497197
     2  O   -0.550611
     3  O   -0.588834
     4  O   -0.565878
     5  C    0.178993
     6  C    0.281589
     7  C    0.043374
     8  C   -0.214190
     9  C   -0.186203
    10  C    0.154668
    11  C   -0.340583
    12  C   -0.129308
    13  C   -0.307734
    14  C   -0.315060
    15  C   -0.089494
    16  C    0.062173
    17  C   -0.387719
    18  C   -0.103806
    19  C   -0.086939
    20  C    0.052056
    21  C    0.279929
    22  C   -0.163626
    23  C    0.156987
    24  C   -0.138320
    25  C   -0.124069
    26  C   -0.300738
    27  C   -0.308463
    28  C   -0.276844
    29  C   -0.136694
    30  C    0.152552
    31  C    0.104623
    32  C   -0.278034
    33  C   -0.365598
    34  C   -0.099567
    35  C    0.109025
    36  C   -0.369581
    37  C   -0.117460
    38  C   -0.079606
    39  C   -0.066940
    40  C   -0.072152
    41  C   -0.118940
    42  C   -0.130987
    43  C    0.112445
    44  C   -0.373156
    45  H    0.089670
    46  H    0.123968
    47  H    0.085479
    48  H    0.115038
    49  H    0.096518
    50  H    0.126156
    51  H    0.081223
    52  H    0.114862
    53  H    0.127903
    54  H    0.118041
    55  H    0.096336
    56  H    0.070079
    57  H    0.111630
    58  H    0.110982
    59  H    0.097005
    60  H    0.296596
    61  H    0.080488
    62  H    0.137892
    63  H    0.133194
    64  H    0.098138
    65  H    0.083738
    66  H    0.089339
    67  H    0.079068
    68  H    0.097096
    69  H    0.066388
    70  H    0.102198
    71  H    0.091475
    72  H    0.050569
    73  H    0.109078
    74  H    0.118554
    75  H    0.128048
    76  H    0.090973
    77  H    0.104127
    78  H    0.089345
    79  H    0.089185
    80  H    0.105545
    81  H    0.078981
    82  H    0.305699
    83  H    0.314215
    84  H    0.106751
    85  H    0.102803
    86  H    0.132330
    87  H    0.102907
    88  H    0.062473
    89  H    0.109209
    90  H    0.125349
    91  H    0.132790
    92  H    0.079393
    93  H    0.090030
    94  H    0.085586
    95  H    0.080047
    96  H    0.085075
    97  H    0.060087
    98  H    0.082366
    99  H    0.109674
   100  H    0.144227
 Sum of Mulliken charges =  -0.00000

 Dipole moment (field-independent basis, Debye):
    X=              3.8851    Y=             -0.4822    Z=              2.3384  Tot=              4.5601
 Quadrupole moment (field-independent basis, Debye-Ang):
   XX=           -273.2881   YY=           -260.1226   ZZ=           -279.1079
   XY=             -2.5068   XZ=             32.4759   YZ=             -2.8395

 Normal termination of Gaussian 16 at Mon Jul 29 01:37:10 2019.
