 Gaussian 16, Revision A.03,
 Gaussian 16:  ES64L-G16RevA.03 25-Dec-2016

 -------------------------------------
 # td=(NStates=1) CAM-B3LYP/6-31G(d,p)
 -------------------------------------

 --
 TD
 --
 Symbolic Z-matrix:
 Charge =  0 Multiplicity = 1

                         Standard orientation:
 ---------------------------------------------------------------------
 Center     Atomic      Atomic             Coordinates (Angstroms)
 Number     Number       Type             X           Y           Z
 ---------------------------------------------------------------------
      1          8           0       11.679595   -0.039439    1.737787
      2          8           0       12.917069   -2.385653   -1.542158
      3          8           0      -10.382425   -1.113956    2.059659
      4          8           0      -14.489180   -0.957739    0.460362
      5          6           0       11.039513   -0.216604    0.505523
      6          6           0       11.531915   -1.329574    1.347441
      7          6           0       11.713458    0.429487   -0.774272
      8          6           0       12.860155   -1.980549    0.936401
      9          6           0       13.232989   -0.051529   -0.784730
     10          6           0       13.433258   -1.504876   -0.466706
     11          6           0       10.626530   -2.296364    2.054288
     12          6           0        9.502342   -0.036861    0.445919
     13          6           0       11.158621    0.077729   -2.122096
     14          6           0       11.766211    1.930987   -0.535281
     15          6           0        8.582485   -0.741951   -0.142412
     16          6           0        7.216505   -0.413681   -0.329361
     17          6           0        6.316205   -1.566336   -0.835792
     18          6           0        6.641154    0.715066    0.078727
     19          6           0        5.238275    1.024808    0.057882
     20          6           0      -12.073737    0.011869   -1.216492
     21          6           0      -11.520060   -0.643887    1.373707
     22          6           0      -12.843326   -1.318855   -1.403392
     23          6           0      -13.403106   -1.864792   -0.097978
     24          6           0      -12.354210   -1.855374    1.142588
     25          6           0      -11.085092   -0.087407   -0.002794
     26          6           0      -11.228076    0.314517   -2.615252
     27          6           0      -13.032321    1.138866   -1.065051
     28          6           0      -12.261626    0.352174    2.331755
     29          6           0        4.696348    2.283498    0.364503
     30          6           0       -9.872496    0.312237   -0.034683
     31          6           0        3.389790    2.566130    0.441921
     32          6           0       -8.538200    0.897215    0.000779
     33          6           0        2.988595    4.094478    0.793686
     34          6           0        2.353380    1.584759    0.191683
     35          6           0       -7.358971    0.089850   -0.374430
     36          6           0       -7.603624   -1.313080   -0.749463
     37          6           0       -6.178993    0.771208   -0.154365
     38          6           0        1.032923    1.894087    0.281222
     39          6           0       -4.873040    0.240593   -0.219207
     40          6           0        0.105301    0.968258   -0.083673
     41          6           0       -3.715525    0.921492   -0.005714
     42          6           0       -1.286644    1.232174    0.080467
     43          6           0       -2.416698    0.394628   -0.125360
     44          6           0       -2.259235   -1.065052   -0.408937
     45          1           0       12.808280   -3.236326    0.862174
     46          1           0       13.748009   -1.651977    1.452102
     47          1           0       13.785487   -0.019837   -1.765456
     48          1           0       13.694332    0.698418    0.092358
     49          1           0       14.570273   -1.856300   -0.541753
     50          1           0       10.169907   -3.265560    1.622921
     51          1           0       11.096592   -2.423222    3.111149
     52          1           0        9.973109   -1.450488    2.565037
     53          1           0        9.177259    1.005448    0.997346
     54          1           0       10.145965    0.402259   -2.078092
     55          1           0       11.774901    0.628441   -2.878541
     56          1           0       11.269654   -1.050316   -2.469352
     57          1           0       12.462107    2.127570    0.463328
     58          1           0       12.360660    2.454115   -1.450892
     59          1           0       10.679719    2.386390   -0.345418
     60          1           0       11.915677   -2.483696   -1.471313
     61          1           0        9.044242   -1.589046   -0.662939
     62          1           0        5.741475   -2.100245   -0.180485
     63          1           0        5.765133   -1.150216   -1.620474
     64          1           0        6.915160   -2.299176   -1.337894
     65          1           0        7.266726    1.529716    0.180042
     66          1           0        4.450154    0.206528    0.197026
     67          1           0      -13.782119   -1.282783   -2.205384
     68          1           0      -12.027941   -2.033175   -1.671752
     69          1           0      -13.902357   -2.658173   -0.212476
     70          1           0      -12.962410   -2.253677    1.971087
     71          1           0      -11.587180   -2.636793    0.703820
     72          1           0      -11.947311    0.228960   -3.343058
     73          1           0      -10.566883    1.265599   -2.642136
     74          1           0      -10.452901   -0.472885   -2.703768
     75          1           0      -13.511226    1.248423   -0.108883
     76          1           0      -12.594411    2.114713   -1.040563
     77          1           0      -13.547807    1.278583   -1.926065
     78          1           0      -12.189973   -0.168966    3.370181
     79          1           0      -11.642855    1.422718    2.304575
     80          1           0      -13.366961    0.624522    1.879298
     81          1           0        5.402801    3.154552    0.717579
     82          1           0       -9.971830   -0.317040    2.407510
     83          1           0      -15.316986   -0.859484   -0.238412
     84          1           0       -8.520634    1.915562    0.376242
     85          1           0        2.291965    4.555824    0.045034
     86          1           0        2.459347    4.137619    1.932903
     87          1           0        3.875376    4.704950    0.818038
     88          1           0        2.785556    0.614218    0.032171
     89          1           0       -6.672051   -1.830247   -0.959133
     90          1           0       -8.192123   -1.870467   -0.106257
     91          1           0       -8.075190   -1.319839   -1.782380
     92          1           0       -6.239083    1.897188   -0.011931
     93          1           0        0.797150    2.969514    0.885702
     94          1           0       -4.476138   -0.758135   -0.590109
     95          1           0        0.410180   -0.095972   -0.278003
     96          1           0       -3.865207    1.975371    0.141918
     97          1           0       -1.500860    2.259384    0.193112
     98          1           0       -1.196111   -1.471172   -0.322822
     99          1           0       -2.962197   -1.856265    0.137851
    100          1           0       -2.692756   -1.126845   -1.526271
 ---------------------------------------------------------------------

 SCF Done:  E(RCAM-B3LYP) =  -1857.26196548     A.U. after   15 cycles

 Excitation energies and oscillator strengths:

 Excited State   1:      Singlet-A      1.9748 eV  627.83 nm  f=2.9513  <S**2>=0.000
     163 ->166         0.12785
     164 ->165         0.69999
     164 <-165        -0.11075
 This state for optimization and/or second-order correction.
 Total Energy, E(TD-HF/TD-DFT) =  -1857.18939231
 Copying the excited state density for this state as the 1-particle RhoCI density.

 The electronic state is 1-A.
 Alpha  occ. eigenvalues --  -19.24394 -19.21330 -19.21221 -19.20536 -10.32679
 Alpha  occ. eigenvalues --  -10.32631 -10.32248 -10.31321 -10.30460 -10.29107
 Alpha  occ. eigenvalues --  -10.28372 -10.28196 -10.28186 -10.28105 -10.27959
 Alpha  occ. eigenvalues --  -10.27901 -10.27809 -10.27784 -10.27722 -10.27699
 Alpha  occ. eigenvalues --  -10.27378 -10.27376 -10.27330 -10.26946 -10.26944
 Alpha  occ. eigenvalues --  -10.26921 -10.26808 -10.26801 -10.26704 -10.26660
 Alpha  occ. eigenvalues --  -10.26512 -10.26461 -10.26386 -10.26062 -10.25970
 Alpha  occ. eigenvalues --  -10.25945 -10.25874 -10.25323 -10.25241 -10.25104
 Alpha  occ. eigenvalues --  -10.25091 -10.25034 -10.23728 -10.22543  -1.20084
 Alpha  occ. eigenvalues --   -1.11032  -1.06332  -1.04876  -0.92524  -0.92305
 Alpha  occ. eigenvalues --   -0.91962  -0.91275  -0.90425  -0.89878  -0.87714
 Alpha  occ. eigenvalues --   -0.85596  -0.85336  -0.85006  -0.84529  -0.83039
 Alpha  occ. eigenvalues --   -0.81344  -0.80604  -0.80276  -0.78437  -0.77319
 Alpha  occ. eigenvalues --   -0.76633  -0.76144  -0.75622  -0.75468  -0.75065
 Alpha  occ. eigenvalues --   -0.74853  -0.74182  -0.72733  -0.70475  -0.69704
 Alpha  occ. eigenvalues --   -0.67849  -0.66460  -0.65148  -0.64371  -0.63994
 Alpha  occ. eigenvalues --   -0.62843  -0.61333  -0.60415  -0.59618  -0.59407
 Alpha  occ. eigenvalues --   -0.58421  -0.58351  -0.57495  -0.56224  -0.55975
 Alpha  occ. eigenvalues --   -0.55503  -0.55360  -0.55058  -0.54408  -0.53959
 Alpha  occ. eigenvalues --   -0.53489  -0.53029  -0.52097  -0.51775  -0.51548
 Alpha  occ. eigenvalues --   -0.50778  -0.50603  -0.50336  -0.49812  -0.49655
 Alpha  occ. eigenvalues --   -0.49501  -0.49201  -0.48966  -0.48702  -0.48070
 Alpha  occ. eigenvalues --   -0.47442  -0.47244  -0.47063  -0.46763  -0.46724
 Alpha  occ. eigenvalues --   -0.46535  -0.46166  -0.45569  -0.44892  -0.44559
 Alpha  occ. eigenvalues --   -0.44499  -0.44448  -0.44205  -0.43917  -0.43633
 Alpha  occ. eigenvalues --   -0.43527  -0.43354  -0.43191  -0.42741  -0.42533
 Alpha  occ. eigenvalues --   -0.42004  -0.41797  -0.41612  -0.41168  -0.40771
 Alpha  occ. eigenvalues --   -0.40567  -0.40440  -0.40225  -0.39935  -0.39625
 Alpha  occ. eigenvalues --   -0.39409  -0.39235  -0.38816  -0.38752  -0.38673
 Alpha  occ. eigenvalues --   -0.37720  -0.37679  -0.37308  -0.36973  -0.36596
 Alpha  occ. eigenvalues --   -0.36477  -0.35747  -0.34533  -0.33767  -0.33346
 Alpha  occ. eigenvalues --   -0.33224  -0.32814  -0.31910  -0.31274  -0.31057
 Alpha  occ. eigenvalues --   -0.30470  -0.27971  -0.23902  -0.18956
 Alpha virt. eigenvalues --   -0.06479  -0.00740   0.03313   0.06230   0.07595
 Alpha virt. eigenvalues --    0.08935   0.09547   0.09607   0.11102   0.12091
 Alpha virt. eigenvalues --    0.12496   0.12559   0.13015   0.13269   0.13757

 Mulliken charges:
               1
     1  O   -0.476039
     2  O   -0.567510
     3  O   -0.544797
     4  O   -0.584212
     5  C    0.205831
     6  C    0.265325
     7  C    0.015301
     8  C   -0.200835
     9  C   -0.162746
    10  C    0.133596
    11  C   -0.352698
    12  C   -0.133519
    13  C   -0.296486
    14  C   -0.286371
    15  C   -0.042530
    16  C    0.065990
    17  C   -0.373759
    18  C   -0.102669
    19  C   -0.101913
    20  C    0.021189
    21  C    0.263537
    22  C   -0.184046
    23  C    0.173920
    24  C   -0.180935
    25  C   -0.117006
    26  C   -0.315526
    27  C   -0.291254
    28  C   -0.318950
    29  C   -0.119982
    30  C    0.118202
    31  C    0.079111
    32  C   -0.233134
    33  C   -0.364633
    34  C   -0.085403
    35  C    0.126981
    36  C   -0.377140
    37  C   -0.132289
    38  C   -0.071903
    39  C   -0.070465
    40  C   -0.094902
    41  C   -0.105798
    42  C   -0.134292
    43  C    0.124275
    44  C   -0.388835
    45  H    0.080882
    46  H    0.118400
    47  H    0.108652
    48  H    0.077412
    49  H    0.088730
    50  H    0.130412
    51  H    0.109335
    52  H    0.113549
    53  H    0.074689
    54  H    0.112145
    55  H    0.107594
    56  H    0.085638
    57  H    0.102220
    58  H    0.093282
    59  H    0.092105
    60  H    0.296612
    61  H    0.066936
    62  H    0.130541
    63  H    0.127301
    64  H    0.098826
    65  H    0.078223
    66  H    0.089869
    67  H    0.069189
    68  H    0.103273
    69  H    0.091731
    70  H    0.118104
    71  H    0.095540
    72  H    0.107561
    73  H    0.108442
    74  H    0.100375
    75  H    0.120466
    76  H    0.093487
    77  H    0.097009
    78  H    0.117779
    79  H    0.066251
    80  H    0.135438
    81  H    0.080654
    82  H    0.304932
    83  H    0.291124
    84  H    0.114935
    85  H    0.126766
    86  H    0.092287
    87  H    0.113506
    88  H    0.079018
    89  H    0.112639
    90  H    0.152527
    91  H    0.118498
    92  H    0.087264
    93  H    0.094219
    94  H    0.067066
    95  H    0.087500
    96  H    0.068035
    97  H    0.078917
    98  H    0.109125
    99  H    0.119773
   100  H    0.112534
 Sum of Mulliken charges =  -0.00000

 Dipole moment (field-independent basis, Debye):
    X=             -4.6659    Y=             -0.0686    Z=             -1.4322  Tot=              4.8813
 Quadrupole moment (field-independent basis, Debye-Ang):
   XX=           -265.7653   YY=           -259.6472   ZZ=           -278.5088
   XY=              6.0172   XZ=             28.2346   YZ=              3.9303

 Normal termination of Gaussian 16 at Wed Jul 31 15:52:48 2019.
