 Gaussian 16, Revision A.03,
 Gaussian 16:  ES64L-G16RevA.03 25-Dec-2016

 -------------------------------------
 # td=(NStates=1) CAM-B3LYP/6-31G(d,p)
 -------------------------------------

 --
 TD
 --
 Symbolic Z-matrix:
 Charge =  0 Multiplicity = 1

                         Standard orientation:
 ---------------------------------------------------------------------
 Center     Atomic      Atomic             Coordinates (Angstroms)
 Number     Number       Type             X           Y           Z
 ---------------------------------------------------------------------
      1          8           0      -11.722066    0.140356   -1.543785
      2          8           0      -12.940459   -2.476643    1.550984
      3          8           0       10.649412   -1.065679   -2.034218
      4          8           0       14.440156   -0.906963   -0.042896
      5          6           0      -11.016342   -0.294481   -0.306797
      6          6           0      -11.654337   -1.259966   -1.228939
      7          6           0      -11.774170    0.310573    0.816459
      8          6           0      -12.995817   -1.864995   -0.823234
      9          6           0      -13.291941   -0.126942    0.912581
     10          6           0      -13.388650   -1.528817    0.599372
     11          6           0      -10.827142   -2.150464   -2.212584
     12          6           0       -9.583212    0.006637   -0.388284
     13          6           0      -11.053900    0.047919    2.203238
     14          6           0      -11.738698    1.902163    0.628784
     15          6           0       -8.668612   -0.705822    0.185582
     16          6           0       -7.248596   -0.493712    0.303053
     17          6           0       -6.437832   -1.638819    0.802044
     18          6           0       -6.608153    0.761023    0.034103
     19          6           0       -5.182635    0.955042   -0.118273
     20          6           0       11.797963   -0.061100    1.387176
     21          6           0       11.677949   -0.665671   -1.129431
     22          6           0       12.645070   -1.317223    1.602689
     23          6           0       13.361970   -1.800979    0.343055
     24          6           0       12.370203   -1.993910   -0.794165
     25          6           0       11.040264    0.029884    0.011130
     26          6           0       10.886752    0.130338    2.589644
     27          6           0       12.717643    1.192292    1.438665
     28          6           0       12.438260    0.287892   -2.088625
     29          6           0       -4.661248    2.219093   -0.304686
     30          6           0        9.901623    0.580953   -0.037030
     31          6           0       -3.287090    2.540054   -0.466736
     32          6           0        8.654654    0.967356   -0.118227
     33          6           0       -3.041882    3.975534   -0.618429
     34          6           0       -2.240704    1.648350   -0.386733
     35          6           0        7.483169    0.246166   -0.073984
     36          6           0        7.815809   -1.277860    0.124680
     37          6           0        6.235259    0.744441   -0.093875
     38          6           0       -0.933455    1.952257   -0.306804
     39          6           0        4.922935    0.057481   -0.197832
     40          6           0        0.048383    0.982022   -0.139834
     41          6           0        3.904684    0.853050   -0.312362
     42          6           0        1.376658    1.327440   -0.222765
     43          6           0        2.544165    0.391314   -0.271595
     44          6           0        2.266976   -1.121037   -0.087262
     45          1           0      -13.026539   -3.018912   -0.818051
     46          1           0      -13.773760   -1.313042   -1.632763
     47          1           0      -13.491499   -0.067064    2.031288
     48          1           0      -13.965358    0.580512    0.131468
     49          1           0      -14.459339   -1.485476    0.606154
     50          1           0      -10.611454   -3.169358   -1.735462
     51          1           0      -11.279024   -2.338498   -3.129091
     52          1           0       -9.937808   -1.681067   -2.650590
     53          1           0       -9.425794    0.711456   -1.083709
     54          1           0       -9.846687    0.372677    2.075721
     55          1           0      -11.525495    0.835361    2.757404
     56          1           0      -11.091395   -0.974800    2.490970
     57          1           0      -12.316948    2.299539   -0.323226
     58          1           0      -12.268918    2.390292    1.554094
     59          1           0      -10.773341    2.449796    0.601968
     60          1           0      -11.839378   -2.183985    1.405879
     61          1           0       -9.116552   -1.601338    0.519233
     62          1           0       -5.449420   -1.853273    0.081385
     63          1           0       -5.862551   -1.426529    1.617213
     64          1           0       -6.942752   -2.584505    1.115090
     65          1           0       -7.471640    1.432419   -0.337740
     66          1           0       -4.669459    0.171766   -0.008587
     67          1           0       13.320622   -1.135560    2.469533
     68          1           0       11.976868   -2.181615    1.934306
     69          1           0       13.881904   -2.822623    0.485020
     70          1           0       12.633080   -2.519647   -1.646493
     71          1           0       11.512452   -2.650643   -0.511699
     72          1           0       11.446946    0.134583    3.485137
     73          1           0       10.104329    1.118973    2.612934
     74          1           0       10.046272   -0.712041    2.720964
     75          1           0       13.268138    1.366345    0.537148
     76          1           0       12.110599    2.079618    1.569995
     77          1           0       13.307895    1.237588    2.395329
     78          1           0       12.532904   -0.155949   -3.031668
     79          1           0       11.850865    1.106038   -2.165874
     80          1           0       13.455110    0.380074   -1.761272
     81          1           0       -5.170278    3.215104   -0.253863
     82          1           0       10.090662   -0.321573   -2.343264
     83          1           0       15.021303   -0.645063    0.609328
     84          1           0        8.593962    1.996261   -0.184562
     85          1           0       -2.522273    4.444434    0.189430
     86          1           0       -2.623730    4.206703   -1.358030
     87          1           0       -3.786469    4.642626   -0.520672
     88          1           0       -2.524828    0.511699   -0.088900
     89          1           0        6.899059   -1.772891    0.226866
     90          1           0        8.121316   -1.588996   -0.778607
     91          1           0        8.566559   -1.231299    0.976363
     92          1           0        6.353304    1.736495   -0.146504
     93          1           0       -0.778621    2.992817   -0.363057
     94          1           0        4.911752   -1.150868   -0.179522
     95          1           0       -0.364629   -0.037464   -0.263630
     96          1           0        4.131738    2.006556   -0.150001
     97          1           0        1.741489    2.194778   -0.435112
     98          1           0        1.280907   -1.334933   -0.058911
     99          1           0        2.645693   -1.709845   -1.018858
    100          1           0        2.958028   -1.319068    0.816191
 ---------------------------------------------------------------------

 SCF Done:  E(RCAM-B3LYP) =  -1857.21438444     A.U. after   15 cycles

 Excitation energies and oscillator strengths:

 Excited State   1:      Singlet-A      2.1113 eV  587.24 nm  f=2.9710  <S**2>=0.000
     163 ->166        -0.12900
     164 ->165         0.69872
     164 <-165        -0.10462
 This state for optimization and/or second-order correction.
 Total Energy, E(TD-HF/TD-DFT) =  -1857.13679611
 Copying the excited state density for this state as the 1-particle RhoCI density.

 The electronic state is 1-A.
 Alpha  occ. eigenvalues --  -19.23959 -19.21632 -19.20973 -19.19449 -10.32740
 Alpha  occ. eigenvalues --  -10.32453 -10.31098 -10.31089 -10.29195 -10.28535
 Alpha  occ. eigenvalues --  -10.28451 -10.27869 -10.27795 -10.27777 -10.27294
 Alpha  occ. eigenvalues --  -10.27137 -10.26960 -10.26875 -10.26836 -10.26829
 Alpha  occ. eigenvalues --  -10.26822 -10.26730 -10.26716 -10.26339 -10.26289
 Alpha  occ. eigenvalues --  -10.26227 -10.26152 -10.26139 -10.26137 -10.26106
 Alpha  occ. eigenvalues --  -10.25946 -10.25863 -10.25727 -10.25687 -10.25591
 Alpha  occ. eigenvalues --  -10.25586 -10.25567 -10.25264 -10.24991 -10.24581
 Alpha  occ. eigenvalues --  -10.24362 -10.23274 -10.22089 -10.21670  -1.13844
 Alpha  occ. eigenvalues --   -1.09861  -1.09003  -1.08815  -0.93542  -0.93129
 Alpha  occ. eigenvalues --   -0.92181  -0.91921  -0.90661  -0.90073  -0.88596
 Alpha  occ. eigenvalues --   -0.87017  -0.86327  -0.85739  -0.85357  -0.83668
 Alpha  occ. eigenvalues --   -0.83066  -0.81107  -0.80996  -0.79552  -0.77504
 Alpha  occ. eigenvalues --   -0.76998  -0.76753  -0.76576  -0.76307  -0.75286
 Alpha  occ. eigenvalues --   -0.75203  -0.74535  -0.73399  -0.71288  -0.70665
 Alpha  occ. eigenvalues --   -0.69139  -0.67627  -0.65459  -0.65159  -0.64679
 Alpha  occ. eigenvalues --   -0.64509  -0.63635  -0.61370  -0.60367  -0.60108
 Alpha  occ. eigenvalues --   -0.59399  -0.58882  -0.57324  -0.57096  -0.56816
 Alpha  occ. eigenvalues --   -0.56793  -0.55893  -0.55290  -0.55069  -0.54268
 Alpha  occ. eigenvalues --   -0.53891  -0.53465  -0.52555  -0.52383  -0.52125
 Alpha  occ. eigenvalues --   -0.51521  -0.51078  -0.50991  -0.50482  -0.50091
 Alpha  occ. eigenvalues --   -0.49824  -0.49801  -0.49426  -0.48995  -0.48902
 Alpha  occ. eigenvalues --   -0.48495  -0.48242  -0.47660  -0.46878  -0.46789
 Alpha  occ. eigenvalues --   -0.46359  -0.46014  -0.45924  -0.45300  -0.44789
 Alpha  occ. eigenvalues --   -0.44629  -0.44568  -0.44298  -0.44206  -0.43937
 Alpha  occ. eigenvalues --   -0.43856  -0.43781  -0.43661  -0.43425  -0.43078
 Alpha  occ. eigenvalues --   -0.42488  -0.41762  -0.41559  -0.41433  -0.41127
 Alpha  occ. eigenvalues --   -0.40638  -0.40548  -0.40387  -0.40358  -0.39910
 Alpha  occ. eigenvalues --   -0.39530  -0.39401  -0.39283  -0.38689  -0.38541
 Alpha  occ. eigenvalues --   -0.38473  -0.38363  -0.38030  -0.37686  -0.37170
 Alpha  occ. eigenvalues --   -0.36942  -0.35740  -0.35354  -0.34875  -0.34241
 Alpha  occ. eigenvalues --   -0.32753  -0.32386  -0.31840  -0.31177  -0.30881
 Alpha  occ. eigenvalues --   -0.30116  -0.27465  -0.24729  -0.19401
 Alpha virt. eigenvalues --   -0.06309  -0.00546   0.02936   0.06445   0.06676
 Alpha virt. eigenvalues --    0.07626   0.10451   0.10795   0.11114   0.11941
 Alpha virt. eigenvalues --    0.12083   0.12969   0.13555   0.13705   0.13977

 Mulliken charges:
               1
     1  O   -0.519377
     2  O   -0.524938
     3  O   -0.579238
     4  O   -0.556504
     5  C    0.134342
     6  C    0.274527
     7  C   -0.002947
     8  C   -0.199985
     9  C   -0.172684
    10  C    0.134716
    11  C   -0.343350
    12  C   -0.072186
    13  C   -0.310272
    14  C   -0.313168
    15  C   -0.072841
    16  C    0.092536
    17  C   -0.388749
    18  C   -0.120057
    19  C   -0.049529
    20  C    0.025715
    21  C    0.231678
    22  C   -0.188273
    23  C    0.162730
    24  C   -0.193801
    25  C   -0.084777
    26  C   -0.299913
    27  C   -0.308017
    28  C   -0.301995
    29  C   -0.095002
    30  C    0.165455
    31  C    0.076682
    32  C   -0.268413
    33  C   -0.377585
    34  C   -0.118724
    35  C    0.107531
    36  C   -0.344478
    37  C   -0.123357
    38  C   -0.053641
    39  C   -0.079206
    40  C   -0.099534
    41  C   -0.091265
    42  C   -0.083133
    43  C    0.031236
    44  C   -0.345044
    45  H    0.109686
    46  H    0.096278
    47  H    0.108466
    48  H    0.102806
    49  H    0.106117
    50  H    0.099848
    51  H    0.126936
    52  H    0.117917
    53  H    0.107054
    54  H    0.094900
    55  H    0.117151
    56  H    0.098186
    57  H    0.110954
    58  H    0.082771
    59  H    0.104902
    60  H    0.289261
    61  H    0.068698
    62  H    0.086136
    63  H    0.143878
    64  H    0.110050
    65  H    0.079351
    66  H    0.064678
    67  H    0.090809
    68  H    0.099141
    69  H    0.074937
    70  H    0.124900
    71  H    0.120056
    72  H    0.106425
    73  H    0.084617
    74  H    0.083478
    75  H    0.125633
    76  H    0.104934
    77  H    0.081212
    78  H    0.113997
    79  H    0.089148
    80  H    0.125504
    81  H    0.087269
    82  H    0.301593
    83  H    0.302375
    84  H    0.093028
    85  H    0.117564
    86  H    0.132439
    87  H    0.110118
    88  H    0.062018
    89  H    0.087443
    90  H    0.140416
    91  H    0.115636
    92  H    0.062360
    93  H    0.085265
    94  H    0.103604
    95  H    0.094305
    96  H    0.092589
    97  H    0.068079
    98  H    0.114053
    99  H    0.105117
   100  H    0.118749
 Sum of Mulliken charges =  -0.00000

 Dipole moment (field-independent basis, Debye):
    X=              3.4412    Y=              0.8909    Z=              1.5103  Tot=              3.8622
 Quadrupole moment (field-independent basis, Debye-Ang):
   XX=           -282.2295   YY=           -258.1201   ZZ=           -276.3218
   XY=             -4.0046   XZ=             30.1610   YZ=              0.3882

 Normal termination of Gaussian 16 at Wed Jul 31 00:15:43 2019.
