 Gaussian 16, Revision A.03,
 Gaussian 16:  ES64L-G16RevA.03 25-Dec-2016

 -------------------------------------
 # td=(NStates=1) CAM-B3LYP/6-31G(d,p)
 -------------------------------------

 --
 TD
 --
 Symbolic Z-matrix:
 Charge =  0 Multiplicity = 1

                         Standard orientation:
 ---------------------------------------------------------------------
 Center     Atomic      Atomic             Coordinates (Angstroms)
 Number     Number       Type             X           Y           Z
 ---------------------------------------------------------------------
      1          8           0      -11.688502    0.144077   -1.526266
      2          8           0      -12.749218   -2.514913    1.557348
      3          8           0       10.586188   -0.847969   -2.177653
      4          8           0       14.478717   -0.990524   -0.181822
      5          6           0      -11.040099   -0.192294   -0.415385
      6          6           0      -11.639368   -1.262932   -1.216101
      7          6           0      -11.766215    0.451205    0.939487
      8          6           0      -13.024543   -1.905879   -0.836644
      9          6           0      -13.108937   -0.078734    1.027628
     10          6           0      -13.431117   -1.579780    0.687297
     11          6           0      -10.896593   -2.146215   -2.158691
     12          6           0       -9.568064    0.104488   -0.500735
     13          6           0      -10.839275   -0.039027    2.117194
     14          6           0      -11.714424    1.943881    0.827283
     15          6           0       -8.669525   -0.666675    0.025984
     16          6           0       -7.160227   -0.574259    0.136514
     17          6           0       -6.405323   -1.737525    0.406254
     18          6           0       -6.611682    0.596042   -0.203399
     19          6           0       -5.176425    0.885805   -0.206561
     20          6           0       11.902553   -0.187631    1.434182
     21          6           0       11.625708   -0.544255   -1.231871
     22          6           0       12.682772   -1.549126    1.564456
     23          6           0       13.357894   -1.798133    0.145131
     24          6           0       12.296806   -1.807331   -1.013213
     25          6           0       11.023101   -0.053814    0.088424
     26          6           0       10.863897   -0.129816    2.570172
     27          6           0       12.753194    1.083126    1.743845
     28          6           0       12.567389    0.525556   -1.881033
     29          6           0       -4.751887    2.165028   -0.419046
     30          6           0        9.836391    0.559888    0.083488
     31          6           0       -3.416348    2.699041   -0.357730
     32          6           0        8.592768    1.004063   -0.077702
     33          6           0       -2.982026    4.107623   -0.507126
     34          6           0       -2.389010    1.606543   -0.134441
     35          6           0        7.396495    0.127670   -0.192207
     36          6           0        7.639896   -1.280898   -0.073714
     37          6           0        6.187198    0.819136   -0.192916
     38          6           0       -0.978945    1.932451   -0.337951
     39          6           0        4.926646    0.184874   -0.010619
     40          6           0        0.069768    0.988474   -0.129437
     41          6           0        3.771468    0.932583   -0.164501
     42          6           0        1.446024    1.354619   -0.157822
     43          6           0        2.429427    0.389075   -0.132597
     44          6           0        2.306497   -1.056783   -0.055765
     45          1           0      -13.093669   -2.982400   -0.663473
     46          1           0      -13.609305   -1.558897   -1.506181
     47          1           0      -13.485131    0.287680    2.058612
     48          1           0      -13.715693    0.444396    0.360815
     49          1           0      -14.605543   -1.739947    0.775764
     50          1           0      -10.562877   -3.016909   -1.858453
     51          1           0      -11.503087   -2.424421   -3.052638
     52          1           0      -10.040312   -1.623018   -2.482297
     53          1           0       -9.349723    1.164594   -0.756215
     54          1           0       -9.804789    0.336094    2.296242
     55          1           0      -11.277346    0.276962    3.031726
     56          1           0      -10.935038   -1.102481    2.317578
     57          1           0      -12.098583    2.226412   -0.117270
     58          1           0      -12.340808    2.520056    1.529617
     59          1           0      -10.798254    2.335619    0.915963
     60          1           0      -11.869759   -2.636581    1.145605
     61          1           0       -8.866252   -1.553442    0.488456
     62          1           0       -5.849209   -2.253519   -0.381593
     63          1           0       -5.888702   -1.458280    1.208864
     64          1           0       -7.210908   -2.441747    0.764272
     65          1           0       -7.343029    1.367154   -0.351043
     66          1           0       -4.448290    0.170013    0.203134
     67          1           0       13.322092   -1.675907    2.355422
     68          1           0       11.974994   -2.322980    1.847442
     69          1           0       13.878226   -2.872857    0.156358
     70          1           0       13.103532   -2.051879   -1.648296
     71          1           0       11.488922   -2.617181   -0.709927
     72          1           0       11.391279   -0.697353    3.533247
     73          1           0       10.684526    1.094820    2.805546
     74          1           0        9.807989   -0.772401    2.302996
     75          1           0       13.617837    1.324485    1.078551
     76          1           0       12.243652    1.919582    1.552510
     77          1           0       13.093963    1.117060    2.830339
     78          1           0       13.087027    0.361229   -2.869422
     79          1           0       12.109441    1.440186   -2.054369
     80          1           0       13.356301    0.660968   -1.160050
     81          1           0       -5.639240    3.005381   -0.358608
     82          1           0        9.884093   -0.001723   -1.999246
     83          1           0       14.971897   -1.068822    0.612410
     84          1           0        8.274604    2.103482   -0.460928
     85          1           0       -2.339322    4.213147    0.454194
     86          1           0       -2.538651    4.341685   -1.546008
     87          1           0       -3.830997    4.857927   -0.286403
     88          1           0       -2.946271    0.625489    0.201185
     89          1           0        6.619645   -1.895408   -0.342509
     90          1           0        8.658556   -1.457948   -0.560177
     91          1           0        7.805177   -1.500490    1.087811
     92          1           0        6.663497    1.807174   -0.361359
     93          1           0       -0.745858    2.889946   -0.563241
     94          1           0        4.968153   -0.862658    0.107068
     95          1           0       -0.402374   -0.001120   -0.067367
     96          1           0        3.731991    2.107421   -0.166251
     97          1           0        1.528059    2.555859   -0.184565
     98          1           0        1.203048   -1.506486   -0.032998
     99          1           0        3.090806   -1.648596   -0.778470
    100          1           0        2.927083   -1.355124    0.783985
 ---------------------------------------------------------------------

 SCF Done:  E(RCAM-B3LYP) =  -1857.22634029     A.U. after   15 cycles

 Excitation energies and oscillator strengths:

 Excited State   1:      Singlet-A      2.1229 eV  584.04 nm  f=2.5564  <S**2>=0.000
     163 ->166        -0.13205
     164 ->165         0.69482
 This state for optimization and/or second-order correction.
 Total Energy, E(TD-HF/TD-DFT) =  -1857.14832665
 Copying the excited state density for this state as the 1-particle RhoCI density.

 The electronic state is 1-A.
 Alpha  occ. eigenvalues --  -19.22659 -19.22470 -19.22023 -19.20692 -10.32622
 Alpha  occ. eigenvalues --  -10.32563 -10.32369 -10.31442 -10.31281 -10.29461
 Alpha  occ. eigenvalues --  -10.29270 -10.28776 -10.28727 -10.28621 -10.28299
 Alpha  occ. eigenvalues --  -10.28249 -10.28073 -10.28008 -10.27921 -10.27848
 Alpha  occ. eigenvalues --  -10.27739 -10.27590 -10.27296 -10.27036 -10.27022
 Alpha  occ. eigenvalues --  -10.26989 -10.26962 -10.26845 -10.26754 -10.26259
 Alpha  occ. eigenvalues --  -10.26109 -10.25846 -10.25407 -10.25351 -10.25163
 Alpha  occ. eigenvalues --  -10.25159 -10.25149 -10.24833 -10.24582 -10.24521
 Alpha  occ. eigenvalues --  -10.24004 -10.23354 -10.23024 -10.22759  -1.18909
 Alpha  occ. eigenvalues --   -1.11904  -1.09219  -1.06824  -0.92894  -0.92572
 Alpha  occ. eigenvalues --   -0.92145  -0.91190  -0.90678  -0.90056  -0.87052
 Alpha  occ. eigenvalues --   -0.86802  -0.86162  -0.85648  -0.84951  -0.83285
 Alpha  occ. eigenvalues --   -0.82313  -0.81524  -0.80071  -0.78326  -0.77449
 Alpha  occ. eigenvalues --   -0.77229  -0.77132  -0.76600  -0.76546  -0.75911
 Alpha  occ. eigenvalues --   -0.73855  -0.73401  -0.72529  -0.70378  -0.69673
 Alpha  occ. eigenvalues --   -0.68735  -0.66874  -0.66620  -0.64854  -0.64050
 Alpha  occ. eigenvalues --   -0.63199  -0.61705  -0.60615  -0.59899  -0.58935
 Alpha  occ. eigenvalues --   -0.58644  -0.57710  -0.57361  -0.57105  -0.56454
 Alpha  occ. eigenvalues --   -0.55827  -0.55613  -0.55502  -0.54389  -0.54203
 Alpha  occ. eigenvalues --   -0.54072  -0.53350  -0.52894  -0.52475  -0.52057
 Alpha  occ. eigenvalues --   -0.51976  -0.51470  -0.51105  -0.50780  -0.50256
 Alpha  occ. eigenvalues --   -0.50054  -0.50012  -0.49610  -0.48177  -0.47901
 Alpha  occ. eigenvalues --   -0.47648  -0.47523  -0.47447  -0.47250  -0.46939
 Alpha  occ. eigenvalues --   -0.46883  -0.46751  -0.46277  -0.45948  -0.45676
 Alpha  occ. eigenvalues --   -0.44904  -0.44612  -0.44117  -0.44070  -0.43886
 Alpha  occ. eigenvalues --   -0.43496  -0.43461  -0.43081  -0.43007  -0.42768
 Alpha  occ. eigenvalues --   -0.42235  -0.41994  -0.41727  -0.41617  -0.41066
 Alpha  occ. eigenvalues --   -0.40958  -0.40744  -0.40529  -0.40250  -0.40003
 Alpha  occ. eigenvalues --   -0.39900  -0.39586  -0.39275  -0.39137  -0.38653
 Alpha  occ. eigenvalues --   -0.38453  -0.38068  -0.37652  -0.37172  -0.36822
 Alpha  occ. eigenvalues --   -0.36391  -0.35673  -0.35111  -0.34422  -0.33842
 Alpha  occ. eigenvalues --   -0.32462  -0.31997  -0.31635  -0.30978  -0.30514
 Alpha  occ. eigenvalues --   -0.30282  -0.27815  -0.24409  -0.19761
 Alpha virt. eigenvalues --   -0.06039  -0.00638   0.03200   0.04134   0.06031
 Alpha virt. eigenvalues --    0.09090   0.09937   0.10680   0.10938   0.11634
 Alpha virt. eigenvalues --    0.11957   0.12076   0.13220   0.13359   0.13659

 Mulliken charges:
               1
     1  O   -0.485084
     2  O   -0.541019
     3  O   -0.577672
     4  O   -0.523680
     5  C    0.209194
     6  C    0.186456
     7  C    0.048730
     8  C   -0.222081
     9  C   -0.181381
    10  C    0.135645
    11  C   -0.335327
    12  C   -0.132344
    13  C   -0.330329
    14  C   -0.324807
    15  C   -0.019588
    16  C    0.039476
    17  C   -0.361346
    18  C   -0.087877
    19  C   -0.084438
    20  C    0.052433
    21  C    0.273176
    22  C   -0.205086
    23  C    0.107215
    24  C   -0.168056
    25  C   -0.066272
    26  C   -0.276936
    27  C   -0.317130
    28  C   -0.317249
    29  C   -0.114022
    30  C    0.081911
    31  C    0.066579
    32  C   -0.282266
    33  C   -0.372673
    34  C   -0.105275
    35  C    0.113713
    36  C   -0.373665
    37  C   -0.049258
    38  C   -0.102507
    39  C   -0.130742
    40  C   -0.076324
    41  C   -0.098952
    42  C   -0.147647
    43  C    0.164884
    44  C   -0.393063
    45  H    0.119876
    46  H    0.125707
    47  H    0.087871
    48  H    0.107720
    49  H    0.089363
    50  H    0.120825
    51  H    0.106859
    52  H    0.125209
    53  H    0.097631
    54  H    0.106534
    55  H    0.094375
    56  H    0.096203
    57  H    0.121898
    58  H    0.099782
    59  H    0.110346
    60  H    0.310634
    61  H    0.052070
    62  H    0.134255
    63  H    0.137552
    64  H    0.088709
    65  H    0.070000
    66  H    0.089420
    67  H    0.095956
    68  H    0.109314
    69  H    0.055420
    70  H    0.129026
    71  H    0.108288
    72  H    0.068933
    73  H    0.089937
    74  H    0.084186
    75  H    0.104013
    76  H    0.123190
    77  H    0.097357
    78  H    0.105944
    79  H    0.093903
    80  H    0.129791
    81  H    0.068266
    82  H    0.299697
    83  H    0.310423
    84  H    0.106657
    85  H    0.131098
    86  H    0.132956
    87  H    0.107594
    88  H    0.077905
    89  H    0.088795
    90  H    0.134035
    91  H    0.108858
    92  H    0.068857
    93  H    0.081571
    94  H    0.085415
    95  H    0.084299
    96  H    0.090465
    97  H    0.098449
    98  H    0.112514
    99  H    0.109735
   100  H    0.139000
 Sum of Mulliken charges =  -0.00000

 Dipole moment (field-independent basis, Debye):
    X=              1.1436    Y=              0.2105    Z=              2.7071  Tot=              2.9463
 Quadrupole moment (field-independent basis, Debye-Ang):
   XX=           -278.1503   YY=           -255.3981   ZZ=           -285.0899
   XY=              0.3814   XZ=             43.7473   YZ=             -1.3904

 Normal termination of Gaussian 16 at Fri Aug  2 12:44:51 2019.
