 Gaussian 16, Revision A.03,
 Gaussian 16:  ES64L-G16RevA.03 25-Dec-2016

 -------------------------------------
 # td=(NStates=1) CAM-B3LYP/6-31G(d,p)
 -------------------------------------

 --
 TD
 --
 Symbolic Z-matrix:
 Charge =  0 Multiplicity = 1

                         Standard orientation:
 ---------------------------------------------------------------------
 Center     Atomic      Atomic             Coordinates (Angstroms)
 Number     Number       Type             X           Y           Z
 ---------------------------------------------------------------------
      1          8           0      -11.710504    0.380455   -1.465212
      2          8           0      -12.971850   -2.452183    1.308499
      3          8           0       10.619538   -1.126226   -2.007344
      4          8           0       14.583957   -0.799479   -0.082380
      5          6           0      -11.147327   -0.033964   -0.316658
      6          6           0      -11.767682   -1.032309   -1.208421
      7          6           0      -11.876224    0.389041    0.927927
      8          6           0      -13.056862   -1.678786   -0.984619
      9          6           0      -13.288662   -0.099025    1.051266
     10          6           0      -13.496251   -1.448077    0.500842
     11          6           0      -10.823086   -1.881797   -2.221236
     12          6           0       -9.647326    0.118326   -0.421305
     13          6           0      -11.067069   -0.067993    2.264913
     14          6           0      -11.779335    1.926331    0.991666
     15          6           0       -8.711436   -0.737906    0.175050
     16          6           0       -7.316587   -0.626638    0.175947
     17          6           0       -6.464629   -1.933789    0.425266
     18          6           0       -6.693051    0.599008   -0.138574
     19          6           0       -5.332939    0.900700   -0.164571
     20          6           0       11.966155    0.157377    1.274290
     21          6           0       11.678560   -0.633263   -1.274668
     22          6           0       12.717367   -1.161397    1.553229
     23          6           0       13.475246   -1.615585    0.311656
     24          6           0       12.541481   -1.876512   -0.843515
     25          6           0       11.135423    0.047589    0.020623
     26          6           0       11.141135    0.477326    2.436722
     27          6           0       12.920143    1.297172    1.173242
     28          6           0       12.452823    0.299110   -2.161960
     29          6           0       -4.744403    2.109832   -0.391662
     30          6           0        9.910902    0.525083   -0.002339
     31          6           0       -3.393555    2.419320   -0.427301
     32          6           0        8.646359    0.757395   -0.131098
     33          6           0       -3.117395    3.865317   -0.720657
     34          6           0       -2.280481    1.476692   -0.295832
     35          6           0        7.463823   -0.003748    0.008162
     36          6           0        7.676086   -1.510820    0.304120
     37          6           0        6.354552    0.603685   -0.138605
     38          6           0       -0.934722    1.885677   -0.424176
     39          6           0        4.948706    0.072482    0.037287
     40          6           0        0.155170    0.943379   -0.201037
     41          6           0        3.799439    0.752700   -0.104256
     42          6           0        1.451878    1.231349   -0.137001
     43          6           0        2.470541    0.268844    0.075958
     44          6           0        2.284045   -1.150612    0.468401
     45          1           0      -13.294236   -2.547608   -1.251709
     46          1           0      -13.828738   -1.317578   -1.556193
     47          1           0      -13.753211    0.071304    2.087465
     48          1           0      -14.009632    0.535903    0.438158
     49          1           0      -14.580868   -1.712124    0.598394
     50          1           0      -10.537531   -2.674663   -1.516570
     51          1           0      -11.497338   -2.213634   -3.006324
     52          1           0       -9.932650   -1.135689   -2.668487
     53          1           0       -9.423879    1.049368   -0.929243
     54          1           0       -9.901279    0.284200    2.333935
     55          1           0      -11.649174    0.006443    3.232233
     56          1           0      -11.054657   -1.078286    2.284333
     57          1           0      -12.052403    2.351516   -0.045271
     58          1           0      -12.454764    2.214892    1.811131
     59          1           0      -10.681152    2.248411    1.104448
     60          1           0      -12.023386   -2.647022    0.941487
     61          1           0       -9.165649   -1.637767    0.620127
     62          1           0       -5.918952   -1.981258   -0.444072
     63          1           0       -5.644056   -1.938413    1.244945
     64          1           0       -7.063509   -2.939875    0.257749
     65          1           0       -7.329899    1.388491   -0.516313
     66          1           0       -4.681102    0.091743   -0.052140
     67          1           0       13.336257   -1.158070    2.361095
     68          1           0       11.946583   -1.925444    1.790548
     69          1           0       13.936337   -2.671567    0.396376
     70          1           0       13.224391   -2.297082   -1.683778
     71          1           0       11.940663   -2.707310   -0.557874
     72          1           0       11.904432    0.608074    3.431888
     73          1           0       10.532449    1.460856    2.557955
     74          1           0       10.592744   -0.324729    2.765578
     75          1           0       13.672177    1.222753    0.335141
     76          1           0       12.255955    2.192255    1.338074
     77          1           0       13.488653    1.387614    1.957670
     78          1           0       12.449452   -0.141604   -3.180487
     79          1           0       12.055434    1.387560   -2.261407
     80          1           0       13.589050    0.359272   -1.788588
     81          1           0       -5.464385    2.962827   -0.651689
     82          1           0        9.804768   -0.600293   -1.897578
     83          1           0       15.133536   -0.664896    0.495436
     84          1           0        8.399967    1.762726   -0.335965
     85          1           0       -2.838503    4.395391    0.354780
     86          1           0       -2.477974    3.944906   -1.629136
     87          1           0       -4.157427    4.391103   -1.340266
     88          1           0       -2.552632    0.408906   -0.276922
     89          1           0        6.612288   -2.191622    0.234841
     90          1           0        8.628125   -1.715177   -0.125235
     91          1           0        8.005878   -1.632207    1.268626
     92          1           0        6.518296    1.771058   -0.359984
     93          1           0       -0.807971    2.920288   -0.654975
     94          1           0        4.924080   -0.968492    0.315365
     95          1           0       -0.263220   -0.057551   -0.073754
     96          1           0        3.920756    1.784595   -0.107122
     97          1           0        1.631095    2.364425   -0.386386
     98          1           0        1.374011   -1.392266    0.749842
     99          1           0        2.528429   -1.980503   -0.283710
    100          1           0        2.960386   -1.123781    1.442589
 ---------------------------------------------------------------------

 SCF Done:  E(RCAM-B3LYP) =  -1857.25894959     A.U. after   15 cycles

 Excitation energies and oscillator strengths:

 Excited State   1:      Singlet-A      1.9361 eV  640.37 nm  f=2.8768  <S**2>=0.000
     163 ->166         0.11195
     164 ->165         0.70720
     164 <-165        -0.13277
 This state for optimization and/or second-order correction.
 Total Energy, E(TD-HF/TD-DFT) =  -1857.18779818
 Copying the excited state density for this state as the 1-particle RhoCI density.

 The electronic state is 1-A.
 Alpha  occ. eigenvalues --  -19.22332 -19.21490 -19.20721 -19.19906 -10.32264
 Alpha  occ. eigenvalues --  -10.31662 -10.31657 -10.31482 -10.30362 -10.28963
 Alpha  occ. eigenvalues --  -10.28495 -10.28255 -10.27866 -10.27315 -10.27273
 Alpha  occ. eigenvalues --  -10.27189 -10.27178 -10.27172 -10.27171 -10.27116
 Alpha  occ. eigenvalues --  -10.27114 -10.27097 -10.26727 -10.26707 -10.26637
 Alpha  occ. eigenvalues --  -10.26565 -10.26551 -10.26484 -10.26481 -10.26434
 Alpha  occ. eigenvalues --  -10.26325 -10.26212 -10.26138 -10.25698 -10.25674
 Alpha  occ. eigenvalues --  -10.25578 -10.25571 -10.25335 -10.25323 -10.24890
 Alpha  occ. eigenvalues --  -10.24657 -10.24302 -10.24261 -10.22829  -1.18520
 Alpha  occ. eigenvalues --   -1.13596  -1.10128  -1.09747  -0.94529  -0.92923
 Alpha  occ. eigenvalues --   -0.92210  -0.91753  -0.90740  -0.90066  -0.87996
 Alpha  occ. eigenvalues --   -0.87540  -0.87043  -0.85764  -0.84745  -0.82927
 Alpha  occ. eigenvalues --   -0.81900  -0.80956  -0.79833  -0.79261  -0.78006
 Alpha  occ. eigenvalues --   -0.77347  -0.77238  -0.76068  -0.76047  -0.75970
 Alpha  occ. eigenvalues --   -0.74946  -0.74084  -0.73285  -0.71132  -0.70106
 Alpha  occ. eigenvalues --   -0.68861  -0.66949  -0.66354  -0.65520  -0.64989
 Alpha  occ. eigenvalues --   -0.64213  -0.62961  -0.61471  -0.60621  -0.60413
 Alpha  occ. eigenvalues --   -0.59546  -0.59112  -0.58312  -0.58096  -0.57816
 Alpha  occ. eigenvalues --   -0.56375  -0.55681  -0.55006  -0.54832  -0.54647
 Alpha  occ. eigenvalues --   -0.54066  -0.53144  -0.53045  -0.52700  -0.51662
 Alpha  occ. eigenvalues --   -0.51519  -0.51194  -0.51017  -0.50201  -0.49922
 Alpha  occ. eigenvalues --   -0.49694  -0.49476  -0.49001  -0.48551  -0.48405
 Alpha  occ. eigenvalues --   -0.48191  -0.47867  -0.47788  -0.47205  -0.46835
 Alpha  occ. eigenvalues --   -0.46472  -0.45699  -0.45656  -0.45611  -0.45218
 Alpha  occ. eigenvalues --   -0.44825  -0.44656  -0.44626  -0.44398  -0.43702
 Alpha  occ. eigenvalues --   -0.43156  -0.43095  -0.42846  -0.42622  -0.42521
 Alpha  occ. eigenvalues --   -0.42325  -0.42181  -0.42129  -0.41970  -0.41826
 Alpha  occ. eigenvalues --   -0.41117  -0.40973  -0.40387  -0.40305  -0.39940
 Alpha  occ. eigenvalues --   -0.39817  -0.39412  -0.38992  -0.38891  -0.38546
 Alpha  occ. eigenvalues --   -0.38099  -0.38003  -0.37810  -0.36946  -0.36532
 Alpha  occ. eigenvalues --   -0.36373  -0.35861  -0.35531  -0.34922  -0.34212
 Alpha  occ. eigenvalues --   -0.32792  -0.32258  -0.31844  -0.31666  -0.31023
 Alpha  occ. eigenvalues --   -0.29759  -0.28007  -0.25097  -0.18936
 Alpha virt. eigenvalues --   -0.07095  -0.00720   0.03101   0.06136   0.06917
 Alpha virt. eigenvalues --    0.08421   0.10567   0.10967   0.11579   0.12378
 Alpha virt. eigenvalues --    0.12523   0.13408   0.13483   0.13794   0.14055

 Mulliken charges:
               1
     1  O   -0.490956
     2  O   -0.540003
     3  O   -0.572243
     4  O   -0.502960
     5  C    0.217602
     6  C    0.184199
     7  C    0.036765
     8  C   -0.201517
     9  C   -0.182419
    10  C    0.131584
    11  C   -0.309806
    12  C   -0.097898
    13  C   -0.311755
    14  C   -0.301334
    15  C   -0.100025
    16  C    0.077622
    17  C   -0.382023
    18  C   -0.106571
    19  C   -0.052732
    20  C    0.014852
    21  C    0.308281
    22  C   -0.182259
    23  C    0.138808
    24  C   -0.192419
    25  C   -0.055416
    26  C   -0.305935
    27  C   -0.290403
    28  C   -0.315288
    29  C   -0.117110
    30  C    0.090679
    31  C    0.078252
    32  C   -0.316178
    33  C   -0.360779
    34  C   -0.106364
    35  C    0.240250
    36  C   -0.367117
    37  C   -0.174102
    38  C   -0.097152
    39  C   -0.116716
    40  C   -0.081642
    41  C   -0.074802
    42  C   -0.109975
    43  C    0.076127
    44  C   -0.353173
    45  H    0.111820
    46  H    0.127452
    47  H    0.107176
    48  H    0.095460
    49  H    0.079498
    50  H    0.103080
    51  H    0.111491
    52  H    0.111779
    53  H    0.104885
    54  H    0.097207
    55  H    0.094274
    56  H    0.097755
    57  H    0.104787
    58  H    0.101433
    59  H    0.095373
    60  H    0.298380
    61  H    0.077736
    62  H    0.144960
    63  H    0.121283
    64  H    0.100568
    65  H    0.081030
    66  H    0.067567
    67  H    0.096819
    68  H    0.098196
    69  H    0.069546
    70  H    0.103794
    71  H    0.116561
    72  H    0.052379
    73  H    0.111488
    74  H    0.108048
    75  H    0.118184
    76  H    0.089122
    77  H    0.100416
    78  H    0.114461
    79  H    0.087496
    80  H    0.118229
    81  H    0.079126
    82  H    0.307130
    83  H    0.268493
    84  H    0.101151
    85  H    0.123271
    86  H    0.133473
    87  H    0.068973
    88  H    0.085305
    89  H    0.096235
    90  H    0.119568
    91  H    0.132467
    92  H    0.067024
    93  H    0.088795
    94  H    0.075182
    95  H    0.079053
    96  H    0.082524
    97  H    0.089130
    98  H    0.121025
    99  H    0.121853
   100  H    0.114537
 Sum of Mulliken charges =  -0.00000

 Dipole moment (field-independent basis, Debye):
    X=              1.1881    Y=             -1.2096    Z=              1.8574  Tot=              2.5149
 Quadrupole moment (field-independent basis, Debye-Ang):
   XX=           -269.5407   YY=           -262.2170   ZZ=           -279.4049
   XY=              5.6758   XZ=             47.6258   YZ=             -1.5477

 Normal termination of Gaussian 16 at Wed Jul 31 12:23:19 2019.
