 Gaussian 16, Revision A.03,
 Gaussian 16:  ES64L-G16RevA.03 25-Dec-2016

 -------------------------------------
 # td=(NStates=1) CAM-B3LYP/6-31G(d,p)
 -------------------------------------

 --
 TD
 --
 Symbolic Z-matrix:
 Charge =  0 Multiplicity = 1

                         Standard orientation:
 ---------------------------------------------------------------------
 Center     Atomic      Atomic             Coordinates (Angstroms)
 Number     Number       Type             X           Y           Z
 ---------------------------------------------------------------------
      1          8           0      -11.869104    0.478160   -1.419030
      2          8           0      -12.804647   -2.569476    1.518357
      3          8           0       10.594311   -0.979298   -2.064292
      4          8           0       14.454891   -1.026233   -0.070041
      5          6           0      -11.048194    0.026741   -0.320749
      6          6           0      -11.692102   -0.991655   -1.142180
      7          6           0      -11.704042    0.265526    1.049556
      8          6           0      -13.128544   -1.664055   -0.776664
      9          6           0      -13.128720   -0.138740    1.093906
     10          6           0      -13.463975   -1.547336    0.667784
     11          6           0      -11.018274   -1.834685   -2.232549
     12          6           0       -9.572914    0.089588   -0.401405
     13          6           0      -10.921272   -0.238925    2.281230
     14          6           0      -11.534475    1.888557    1.265221
     15          6           0       -8.577650   -0.818016   -0.080033
     16          6           0       -7.140912   -0.584161   -0.106209
     17          6           0       -6.388936   -1.852646   -0.121086
     18          6           0       -6.580214    0.685905   -0.342403
     19          6           0       -5.204497    0.868204   -0.341882
     20          6           0       11.904177    0.100205    1.424494
     21          6           0       11.603265   -0.543457   -1.204345
     22          6           0       12.601026   -1.301547    1.536538
     23          6           0       13.311241   -1.794849    0.339993
     24          6           0       12.437848   -1.879370   -0.949418
     25          6           0       11.006881    0.045156    0.058340
     26          6           0       10.941417    0.122698    2.654920
     27          6           0       12.815442    1.315183    1.325538
     28          6           0       12.527885    0.410410   -1.946304
     29          6           0       -4.701478    2.108722   -0.380289
     30          6           0        9.796899    0.535684    0.003234
     31          6           0       -3.396721    2.561649   -0.410887
     32          6           0        8.598800    0.931409   -0.154490
     33          6           0       -3.030345    3.995697   -0.549924
     34          6           0       -2.330097    1.638304   -0.326612
     35          6           0        7.402183    0.052597   -0.009541
     36          6           0        7.647649   -1.405849    0.170779
     37          6           0        6.226810    0.725548   -0.115947
     38          6           0       -0.915649    1.850274   -0.377180
     39          6           0        4.893778    0.137856   -0.003353
     40          6           0        0.103805    0.864578   -0.150675
     41          6           0        3.688457    0.830916   -0.110216
     42          6           0        1.382275    1.109492   -0.335969
     43          6           0        2.451861    0.263732   -0.092830
     44          6           0        2.288329   -1.233641    0.194917
     45          1           0      -13.023017   -2.748715   -1.005281
     46          1           0      -13.722953   -1.147171   -1.422610
     47          1           0      -13.508377    0.079938    2.009120
     48          1           0      -13.644428    0.696175    0.418202
     49          1           0      -14.603053   -1.409368    0.776320
     50          1           0      -10.598925   -2.751456   -2.131787
     51          1           0      -11.762989   -1.927411   -3.103365
     52          1           0      -10.220441   -1.290838   -2.627812
     53          1           0       -9.226235    0.966286   -1.048690
     54          1           0       -9.869166    0.345549    2.770371
     55          1           0      -11.648127   -0.245848    3.064972
     56          1           0      -10.762705   -1.295183    2.259022
     57          1           0      -12.108299    2.544807    0.498294
     58          1           0      -11.913216    2.122778    2.271172
     59          1           0      -10.451556    2.094058    1.243185
     60          1           0      -11.960165   -2.677839    1.064042
     61          1           0       -8.993339   -1.634055    0.459652
     62          1           0       -6.346363   -2.253890   -1.256184
     63          1           0       -5.315534   -1.604915    0.312295
     64          1           0       -7.007326   -2.618581    0.423434
     65          1           0       -7.184874    1.784017   -0.119488
     66          1           0       -4.619223    0.058836   -0.341651
     67          1           0       13.208164   -1.118771    2.513338
     68          1           0       12.004491   -2.064617    1.862014
     69          1           0       13.781102   -2.870405    0.638089
     70          1           0       12.913630   -2.052214   -2.043725
     71          1           0       11.744966   -2.758711   -0.795263
     72          1           0       11.703496    0.292227    3.528371
     73          1           0       10.388275    1.008795    2.677903
     74          1           0       10.195347   -0.830969    2.846387
     75          1           0       13.510259    1.216290    0.579327
     76          1           0       12.328080    2.347449    1.012060
     77          1           0       13.319267    1.550302    2.263356
     78          1           0       12.966500   -0.059846   -2.908258
     79          1           0       12.172092    1.187577   -2.212422
     80          1           0       13.460529    0.742674   -1.423681
     81          1           0       -5.484000    2.953544   -0.345061
     82          1           0        9.934279   -0.330747   -2.203239
     83          1           0       14.854418   -0.385823    0.747039
     84          1           0        8.652080    2.016899   -0.496467
     85          1           0       -2.373254    4.132469    0.407606
     86          1           0       -2.161224    4.006738   -1.431593
     87          1           0       -3.806883    4.482868   -0.642024
     88          1           0       -2.287054    0.718987   -0.269683
     89          1           0        6.546862   -1.929609    0.523532
     90          1           0        8.152958   -1.945913   -0.561227
     91          1           0        8.265659   -1.294576    1.143986
     92          1           0        6.068049    1.786512   -0.372478
     93          1           0       -0.422008    2.823588   -0.599347
     94          1           0        4.881478   -0.913785    0.153690
     95          1           0       -0.167529   -0.113887    0.155416
     96          1           0        3.745144    1.819168   -0.221825
     97          1           0        1.612126    2.085836   -0.356452
     98          1           0        1.258683   -1.467287    0.369782
     99          1           0        2.886933   -1.681141   -0.487868
    100          1           0        2.727679   -1.240208    1.215693
 ---------------------------------------------------------------------

 SCF Done:  E(RCAM-B3LYP) =  -1857.21406626     A.U. after   16 cycles

 Excitation energies and oscillator strengths:

 Excited State   1:      Singlet-A      1.9640 eV  631.29 nm  f=3.0052  <S**2>=0.000
     163 ->166        -0.11877
     164 ->165         0.70330
     164 <-165        -0.12121
 This state for optimization and/or second-order correction.
 Total Energy, E(TD-HF/TD-DFT) =  -1857.14189109
 Copying the excited state density for this state as the 1-particle RhoCI density.

 The electronic state is 1-A.
 Alpha  occ. eigenvalues --  -19.22810 -19.22679 -19.21844 -19.20335 -10.32590
 Alpha  occ. eigenvalues --  -10.32095 -10.32024 -10.31877 -10.31516 -10.29746
 Alpha  occ. eigenvalues --  -10.28694 -10.28049 -10.27876 -10.27802 -10.27673
 Alpha  occ. eigenvalues --  -10.27545 -10.27175 -10.27129 -10.27042 -10.26871
 Alpha  occ. eigenvalues --  -10.26820 -10.26791 -10.26771 -10.26734 -10.26524
 Alpha  occ. eigenvalues --  -10.26457 -10.26331 -10.26234 -10.26143 -10.26017
 Alpha  occ. eigenvalues --  -10.25953 -10.25848 -10.25817 -10.25757 -10.25569
 Alpha  occ. eigenvalues --  -10.25179 -10.25168 -10.24948 -10.24945 -10.24902
 Alpha  occ. eigenvalues --  -10.24536 -10.24306 -10.24058 -10.22222  -1.13511
 Alpha  occ. eigenvalues --   -1.10744  -1.09220  -1.06823  -0.93455  -0.92740
 Alpha  occ. eigenvalues --   -0.92465  -0.91235  -0.91048  -0.90504  -0.88135
 Alpha  occ. eigenvalues --   -0.86772  -0.86146  -0.85568  -0.84990  -0.83564
 Alpha  occ. eigenvalues --   -0.82843  -0.81556  -0.80995  -0.80226  -0.77614
 Alpha  occ. eigenvalues --   -0.77547  -0.76990  -0.76660  -0.76274  -0.75773
 Alpha  occ. eigenvalues --   -0.75004  -0.74402  -0.73391  -0.70449  -0.69514
 Alpha  occ. eigenvalues --   -0.68712  -0.67065  -0.65541  -0.64939  -0.64763
 Alpha  occ. eigenvalues --   -0.63720  -0.63028  -0.61956  -0.61443  -0.59997
 Alpha  occ. eigenvalues --   -0.59539  -0.58866  -0.58139  -0.57524  -0.56399
 Alpha  occ. eigenvalues --   -0.56069  -0.55555  -0.55258  -0.54987  -0.53923
 Alpha  occ. eigenvalues --   -0.53852  -0.53460  -0.52941  -0.52575  -0.52311
 Alpha  occ. eigenvalues --   -0.51518  -0.51018  -0.50754  -0.50679  -0.50002
 Alpha  occ. eigenvalues --   -0.49739  -0.49485  -0.49260  -0.48705  -0.48270
 Alpha  occ. eigenvalues --   -0.47897  -0.47524  -0.47297  -0.46993  -0.46725
 Alpha  occ. eigenvalues --   -0.46532  -0.46502  -0.46203  -0.46009  -0.45698
 Alpha  occ. eigenvalues --   -0.45610  -0.44381  -0.44145  -0.44027  -0.43672
 Alpha  occ. eigenvalues --   -0.43649  -0.43426  -0.43144  -0.42984  -0.42843
 Alpha  occ. eigenvalues --   -0.42610  -0.42222  -0.42043  -0.41428  -0.41116
 Alpha  occ. eigenvalues --   -0.40711  -0.40557  -0.40434  -0.40420  -0.39951
 Alpha  occ. eigenvalues --   -0.39897  -0.39718  -0.39447  -0.39347  -0.39154
 Alpha  occ. eigenvalues --   -0.38799  -0.38678  -0.37867  -0.37556  -0.37366
 Alpha  occ. eigenvalues --   -0.36450  -0.35854  -0.35381  -0.34948  -0.34200
 Alpha  occ. eigenvalues --   -0.33025  -0.32686  -0.31817  -0.31246  -0.30950
 Alpha  occ. eigenvalues --   -0.29374  -0.28195  -0.24656  -0.18738
 Alpha virt. eigenvalues --   -0.06649  -0.00579   0.03430   0.07098   0.07469
 Alpha virt. eigenvalues --    0.09054   0.09494   0.10349   0.11090   0.11372
 Alpha virt. eigenvalues --    0.12288   0.12737   0.13171   0.13443   0.13599

 Mulliken charges:
               1
     1  O   -0.516971
     2  O   -0.550135
     3  O   -0.563515
     4  O   -0.562997
     5  C    0.280113
     6  C    0.156641
     7  C    0.013405
     8  C   -0.205384
     9  C   -0.189537
    10  C    0.144750
    11  C   -0.341737
    12  C   -0.122324
    13  C   -0.296648
    14  C   -0.314718
    15  C   -0.091928
    16  C    0.062675
    17  C   -0.351087
    18  C   -0.104871
    19  C   -0.008505
    20  C    0.025111
    21  C    0.259231
    22  C   -0.194711
    23  C    0.182642
    24  C   -0.170508
    25  C   -0.118248
    26  C   -0.298683
    27  C   -0.320543
    28  C   -0.280425
    29  C   -0.136681
    30  C    0.181311
    31  C    0.079028
    32  C   -0.291502
    33  C   -0.319945
    34  C   -0.044210
    35  C    0.073050
    36  C   -0.343167
    37  C   -0.081553
    38  C   -0.146930
    39  C   -0.112165
    40  C   -0.080088
    41  C   -0.091401
    42  C   -0.100158
    43  C    0.083053
    44  C   -0.353447
    45  H    0.103826
    46  H    0.141158
    47  H    0.105606
    48  H    0.103049
    49  H    0.102616
    50  H    0.122500
    51  H    0.104380
    52  H    0.127439
    53  H    0.098849
    54  H    0.077961
    55  H    0.116372
    56  H    0.086500
    57  H    0.100350
    58  H    0.099189
    59  H    0.108660
    60  H    0.310763
    61  H    0.071840
    62  H    0.116753
    63  H    0.104719
    64  H    0.115665
    65  H    0.079524
    66  H    0.079158
    67  H    0.082463
    68  H    0.121685
    69  H    0.060313
    70  H    0.110898
    71  H    0.097120
    72  H    0.079299
    73  H    0.119730
    74  H    0.097705
    75  H    0.119984
    76  H    0.100770
    77  H    0.098618
    78  H    0.091397
    79  H    0.090558
    80  H    0.114470
    81  H    0.062531
    82  H    0.298014
    83  H    0.300266
    84  H    0.113621
    85  H    0.125037
    86  H    0.110431
    87  H    0.099757
    88  H    0.035048
    89  H    0.082781
    90  H    0.155201
    91  H    0.121135
    92  H    0.081955
    93  H    0.063050
    94  H    0.066425
    95  H    0.071442
    96  H    0.069026
    97  H    0.070352
    98  H    0.111871
    99  H    0.138909
   100  H    0.124972
 Sum of Mulliken charges =  -0.00000

 Dipole moment (field-independent basis, Debye):
    X=              2.2796    Y=              0.4870    Z=              1.9032  Tot=              3.0093
 Quadrupole moment (field-independent basis, Debye-Ang):
   XX=           -292.7301   YY=           -262.7338   ZZ=           -277.4911
   XY=             23.4963   XZ=             34.2976   YZ=              1.8072

 Normal termination of Gaussian 16 at Wed Jul 31 03:11:06 2019.
