 Gaussian 16, Revision A.03,
 Gaussian 16:  ES64L-G16RevA.03 25-Dec-2016

 -------------------------------------
 # td=(NStates=1) CAM-B3LYP/6-31G(d,p)
 -------------------------------------

 --
 TD
 --
 Symbolic Z-matrix:
 Charge =  0 Multiplicity = 1

                         Standard orientation:
 ---------------------------------------------------------------------
 Center     Atomic      Atomic             Coordinates (Angstroms)
 Number     Number       Type             X           Y           Z
 ---------------------------------------------------------------------
      1          8           0      -11.787149    0.651464   -1.326443
      2          8           0      -12.837870   -2.774473    0.922638
      3          8           0       10.752488   -0.536206   -2.227308
      4          8           0       14.432622   -1.031911   -0.027150
      5          6           0      -11.043038   -0.032181   -0.270083
      6          6           0      -11.657548   -0.929265   -1.362257
      7          6           0      -11.744650    0.091039    1.146744
      8          6           0      -12.912156   -1.533112   -1.214573
      9          6           0      -13.280101   -0.304784    1.078012
     10          6           0      -13.402233   -1.632021    0.241144
     11          6           0      -10.744128   -1.360996   -2.606341
     12          6           0       -9.579714    0.173480   -0.250803
     13          6           0      -11.068114   -0.709331    2.422970
     14          6           0      -11.783611    1.565319    1.522270
     15          6           0       -8.634931   -0.639754    0.156949
     16          6           0       -7.170075   -0.476641    0.138352
     17          6           0       -6.446342   -1.781152    0.211391
     18          6           0       -6.575045    0.698033   -0.171755
     19          6           0       -5.195808    0.912859   -0.179721
     20          6           0       11.851185   -0.116451    1.452455
     21          6           0       11.681726   -0.368761   -1.187374
     22          6           0       12.472250   -1.523274    1.391195
     23          6           0       13.292834   -1.916852    0.121146
     24          6           0       12.352020   -1.720357   -1.044053
     25          6           0       11.051903    0.063919    0.068683
     26          6           0       10.859509   -0.227362    2.649586
     27          6           0       12.843528    0.995146    1.647295
     28          6           0       12.685645    0.629555   -1.879388
     29          6           0       -4.673526    2.133772   -0.373215
     30          6           0        9.802445    0.542131    0.137890
     31          6           0       -3.350436    2.484895   -0.310058
     32          6           0        8.571763    1.042178   -0.017606
     33          6           0       -3.078382    3.959961   -0.367097
     34          6           0       -2.270390    1.638350   -0.173895
     35          6           0        7.459068    0.188707   -0.119838
     36          6           0        7.722656   -1.377766   -0.335331
     37          6           0        6.256242    0.664180   -0.091346
     38          6           0       -0.905646    1.954031   -0.206111
     39          6           0        4.921044    0.055174   -0.046273
     40          6           0        0.152037    1.014845   -0.172914
     41          6           0        3.786216    0.852232   -0.022304
     42          6           0        1.423823    1.257407    0.012448
     43          6           0        2.471675    0.324360   -0.013258
     44          6           0        2.222738   -1.175117    0.103221
     45          1           0      -13.033632   -2.564326   -1.807176
     46          1           0      -13.722573   -0.791120   -1.613855
     47          1           0      -13.939178   -0.349268    2.001360
     48          1           0      -13.745572    0.232765    0.552686
     49          1           0      -14.446882   -1.865720    0.190916
     50          1           0      -10.360654   -2.411799   -2.560800
     51          1           0      -11.395025   -1.354863   -3.544104
     52          1           0      -10.090287   -0.579240   -2.623320
     53          1           0       -9.414106    1.145467   -0.782006
     54          1           0      -10.072462   -0.423775    2.394007
     55          1           0      -11.251137   -0.179637    3.423680
     56          1           0      -11.327980   -1.779451    2.497949
     57          1           0      -12.284104    2.131978    0.778787
     58          1           0      -12.419639    1.742281    2.498232
     59          1           0      -10.828888    2.111298    1.687408
     60          1           0      -11.842586   -2.942466    0.953694
     61          1           0       -8.915351   -1.520082    0.682145
     62          1           0       -5.750306   -1.882593   -0.638406
     63          1           0       -5.811291   -1.689115    1.066309
     64          1           0       -7.382309   -2.626763    0.300379
     65          1           0       -7.319980    1.469452   -0.317112
     66          1           0       -4.612577    0.044034   -0.007831
     67          1           0       13.107720   -1.603754    2.145920
     68          1           0       11.611060   -2.299801    1.355199
     69          1           0       13.655145   -2.890516    0.130803
     70          1           0       12.845863   -1.913716   -2.177230
     71          1           0       11.593188   -2.418567   -0.889089
     72          1           0       11.383856   -0.467483    3.577617
     73          1           0       10.203621    0.595964    2.569578
     74          1           0       10.145535   -1.066382    2.393885
     75          1           0       13.723003    0.712434    0.983595
     76          1           0       12.301993    2.095277    1.466933
     77          1           0       13.207898    1.109342    2.701192
     78          1           0       12.878069    0.331410   -2.998160
     79          1           0       12.246261    1.672698   -1.679416
     80          1           0       13.612843    0.641367   -1.295221
     81          1           0       -5.518950    3.027410   -0.462202
     82          1           0       10.341297    0.255612   -2.344445
     83          1           0       15.180659   -1.527470    0.615694
     84          1           0        8.431642    2.060640    0.028005
     85          1           0       -2.566472    4.223186    0.464082
     86          1           0       -2.412488    4.413337   -1.321510
     87          1           0       -3.812068    4.777296   -0.236064
     88          1           0       -2.619418    0.681795   -0.192559
     89          1           0        6.826632   -1.803879   -0.605828
     90          1           0        8.512213   -1.603310   -1.068709
     91          1           0        8.217374   -1.882227    0.664931
     92          1           0        6.101374    1.900531    0.165772
     93          1           0       -0.707103    3.172544   -0.245975
     94          1           0        4.741739   -0.856882   -0.136860
     95          1           0       -0.302630   -0.084149   -0.205923
     96          1           0        4.065624    1.971306   -0.039291
     97          1           0        1.546753    2.422081    0.076851
     98          1           0        1.256478   -1.456048    0.303501
     99          1           0        2.334477   -1.648297   -1.036778
    100          1           0        3.165986   -1.428176    0.907904
 ---------------------------------------------------------------------

 SCF Done:  E(RCAM-B3LYP) =  -1857.23654786     A.U. after   15 cycles

 Excitation energies and oscillator strengths:

 Excited State   1:      Singlet-A      2.1147 eV  586.31 nm  f=3.1121  <S**2>=0.000
     163 ->166        -0.11980
     164 ->165         0.70103
     164 <-165        -0.10883
 This state for optimization and/or second-order correction.
 Total Energy, E(TD-HF/TD-DFT) =  -1857.15883543
 Copying the excited state density for this state as the 1-particle RhoCI density.

 The electronic state is 1-A.
 Alpha  occ. eigenvalues --  -19.23411 -19.22052 -19.20329 -19.19807 -10.33011
 Alpha  occ. eigenvalues --  -10.32593 -10.31203 -10.30786 -10.30583 -10.28737
 Alpha  occ. eigenvalues --  -10.28594 -10.28218 -10.28156 -10.27868 -10.27240
 Alpha  occ. eigenvalues --  -10.27231 -10.27170 -10.27145 -10.27035 -10.27007
 Alpha  occ. eigenvalues --  -10.27002 -10.26998 -10.26967 -10.26808 -10.26700
 Alpha  occ. eigenvalues --  -10.26553 -10.26448 -10.26425 -10.26372 -10.26284
 Alpha  occ. eigenvalues --  -10.26081 -10.25840 -10.25510 -10.25506 -10.25460
 Alpha  occ. eigenvalues --  -10.25389 -10.25338 -10.25151 -10.25118 -10.25010
 Alpha  occ. eigenvalues --  -10.24606 -10.24501 -10.24157 -10.23527  -1.11570
 Alpha  occ. eigenvalues --   -1.10590  -1.08266  -1.06710  -0.93332  -0.92805
 Alpha  occ. eigenvalues --   -0.92328  -0.91563  -0.90907  -0.89482  -0.87966
 Alpha  occ. eigenvalues --   -0.87283  -0.86145  -0.85992  -0.84695  -0.83464
 Alpha  occ. eigenvalues --   -0.82191  -0.80860  -0.80058  -0.78683  -0.77197
 Alpha  occ. eigenvalues --   -0.76961  -0.76432  -0.75604  -0.75476  -0.75376
 Alpha  occ. eigenvalues --   -0.74798  -0.74661  -0.73403  -0.70967  -0.70252
 Alpha  occ. eigenvalues --   -0.69537  -0.67547  -0.65841  -0.64028  -0.63927
 Alpha  occ. eigenvalues --   -0.63193  -0.62171  -0.61028  -0.60276  -0.59798
 Alpha  occ. eigenvalues --   -0.59127  -0.59106  -0.58468  -0.57940  -0.56480
 Alpha  occ. eigenvalues --   -0.56307  -0.55310  -0.54597  -0.54204  -0.54088
 Alpha  occ. eigenvalues --   -0.53222  -0.52763  -0.52283  -0.51887  -0.51517
 Alpha  occ. eigenvalues --   -0.51176  -0.50812  -0.50047  -0.49587  -0.49405
 Alpha  occ. eigenvalues --   -0.49344  -0.48954  -0.48610  -0.48389  -0.47979
 Alpha  occ. eigenvalues --   -0.47759  -0.47616  -0.47305  -0.47030  -0.46634
 Alpha  occ. eigenvalues --   -0.46288  -0.45630  -0.45548  -0.45136  -0.45096
 Alpha  occ. eigenvalues --   -0.44978  -0.44772  -0.44434  -0.44063  -0.43966
 Alpha  occ. eigenvalues --   -0.43463  -0.43448  -0.43193  -0.42430  -0.42206
 Alpha  occ. eigenvalues --   -0.42086  -0.41595  -0.41417  -0.41280  -0.41015
 Alpha  occ. eigenvalues --   -0.40674  -0.40566  -0.40266  -0.39859  -0.39784
 Alpha  occ. eigenvalues --   -0.39401  -0.39164  -0.39022  -0.38481  -0.38436
 Alpha  occ. eigenvalues --   -0.38312  -0.38115  -0.37960  -0.37480  -0.36765
 Alpha  occ. eigenvalues --   -0.36607  -0.36271  -0.35268  -0.34886  -0.33693
 Alpha  occ. eigenvalues --   -0.32388  -0.32251  -0.32034  -0.31771  -0.30513
 Alpha  occ. eigenvalues --   -0.29630  -0.28016  -0.25122  -0.19469
 Alpha virt. eigenvalues --   -0.06551  -0.00224   0.03323   0.06302   0.07097
 Alpha virt. eigenvalues --    0.07591   0.09013   0.10454   0.10669   0.11510
 Alpha virt. eigenvalues --    0.11697   0.11898   0.12870   0.12981   0.13100

 Mulliken charges:
               1
     1  O   -0.534552
     2  O   -0.581343
     3  O   -0.539064
     4  O   -0.542779
     5  C    0.214226
     6  C    0.218436
     7  C    0.027283
     8  C   -0.225744
     9  C   -0.149445
    10  C    0.154046
    11  C   -0.315551
    12  C   -0.123242
    13  C   -0.332737
    14  C   -0.320160
    15  C   -0.077916
    16  C    0.067748
    17  C   -0.367205
    18  C   -0.083584
    19  C   -0.065411
    20  C    0.011493
    21  C    0.239143
    22  C   -0.161424
    23  C    0.132282
    24  C   -0.169398
    25  C   -0.053701
    26  C   -0.297528
    27  C   -0.307003
    28  C   -0.313824
    29  C   -0.126249
    30  C    0.093693
    31  C    0.109662
    32  C   -0.242169
    33  C   -0.391846
    34  C   -0.091135
    35  C    0.129137
    36  C   -0.362086
    37  C   -0.129783
    38  C   -0.098439
    39  C   -0.059402
    40  C   -0.070705
    41  C   -0.094005
    42  C   -0.101584
    43  C    0.070040
    44  C   -0.337488
    45  H    0.103942
    46  H    0.125525
    47  H    0.099470
    48  H    0.099676
    49  H    0.096981
    50  H    0.110321
    51  H    0.110211
    52  H    0.134452
    53  H    0.110589
    54  H    0.115514
    55  H    0.097659
    56  H    0.103366
    57  H    0.127025
    58  H    0.087255
    59  H    0.093921
    60  H    0.305279
    61  H    0.078450
    62  H    0.132304
    63  H    0.133199
    64  H    0.084480
    65  H    0.077891
    66  H    0.084405
    67  H    0.080635
    68  H    0.088803
    69  H    0.093599
    70  H    0.083213
    71  H    0.110947
    72  H    0.101204
    73  H    0.112424
    74  H    0.093374
    75  H    0.138874
    76  H    0.078925
    77  H    0.092059
    78  H    0.110565
    79  H    0.079641
    80  H    0.132447
    81  H    0.084131
    82  H    0.292523
    83  H    0.306956
    84  H    0.108286
    85  H    0.137068
    86  H    0.089607
    87  H    0.106348
    88  H    0.062137
    89  H    0.113578
    90  H    0.142748
    91  H    0.089482
    92  H    0.046114
    93  H    0.078021
    94  H    0.062045
    95  H    0.067989
    96  H    0.084215
    97  H    0.084178
    98  H    0.126060
    99  H    0.100893
   100  H    0.108311
 Sum of Mulliken charges =  -0.00000

 Dipole moment (field-independent basis, Debye):
    X=              2.4364    Y=             -1.7719    Z=              1.7059  Tot=              3.4621
 Quadrupole moment (field-independent basis, Debye-Ang):
   XX=           -263.6032   YY=           -259.4402   ZZ=           -277.2962
   XY=            -15.7248   XZ=             27.5995   YZ=              1.8772

 Normal termination of Gaussian 16 at Fri Aug  2 10:45:55 2019.
