 Gaussian 16, Revision A.03,
 Gaussian 16:  ES64L-G16RevA.03 25-Dec-2016

 -------------------------------------
 # td=(NStates=1) CAM-B3LYP/6-31G(d,p)
 -------------------------------------

 --
 TD
 --
 Symbolic Z-matrix:
 Charge =  0 Multiplicity = 1

                         Standard orientation:
 ---------------------------------------------------------------------
 Center     Atomic      Atomic             Coordinates (Angstroms)
 Number     Number       Type             X           Y           Z
 ---------------------------------------------------------------------
      1          8           0      -11.668058    0.187546   -1.547257
      2          8           0      -13.040269   -2.328625    1.464111
      3          8           0       10.449200   -1.120565   -1.919304
      4          8           0       14.561180   -1.072259   -0.124713
      5          6           0      -11.131646   -0.063860   -0.325921
      6          6           0      -11.685729   -1.254351   -1.130192
      7          6           0      -11.867951    0.477635    0.949729
      8          6           0      -13.105907   -1.766186   -0.920716
      9          6           0      -13.374160    0.008023    0.796608
     10          6           0      -13.557626   -1.480464    0.440908
     11          6           0      -10.789863   -2.072425   -2.020884
     12          6           0       -9.674717    0.048683   -0.306374
     13          6           0      -11.253473    0.116012    2.318652
     14          6           0      -11.802938    2.076927    0.815136
     15          6           0       -8.699410   -0.832515    0.227638
     16          6           0       -7.280415   -0.557075    0.188829
     17          6           0       -6.392919   -1.757810    0.543580
     18          6           0       -6.634770    0.560296   -0.102535
     19          6           0       -5.262498    0.871129   -0.150700
     20          6           0       12.020544    0.235804    1.281340
     21          6           0       11.573543   -0.650499   -1.190439
     22          6           0       12.713825   -1.107816    1.489496
     23          6           0       13.411866   -1.787506    0.310322
     24          6           0       12.411600   -1.911725   -0.831126
     25          6           0       11.161333   -0.021364    0.022438
     26          6           0       11.130155    0.567348    2.449142
     27          6           0       12.993897    1.403626    1.055751
     28          6           0       12.394964    0.232908   -2.075485
     29          6           0       -4.751031    2.140251   -0.492777
     30          6           0        9.940374    0.478979    0.051594
     31          6           0       -3.385455    2.447305   -0.620191
     32          6           0        8.715541    0.928199   -0.123502
     33          6           0       -2.972159    3.844933   -0.836101
     34          6           0       -2.339856    1.453257   -0.338935
     35          6           0        7.519735    0.087437   -0.037656
     36          6           0        7.790432   -1.302869    0.446389
     37          6           0        6.250472    0.660237   -0.103311
     38          6           0       -0.985973    1.676912   -0.313193
     39          6           0        4.924896    0.083095   -0.062976
     40          6           0        0.026698    0.738507   -0.278604
     41          6           0        3.822415    0.880073   -0.220766
     42          6           0        1.479097    1.054665   -0.229528
     43          6           0        2.559757    0.264866   -0.030112
     44          6           0        2.407309   -1.131131    0.510133
     45          1           0      -12.915096   -2.805005   -1.282972
     46          1           0      -13.575208   -1.195045   -1.565877
     47          1           0      -13.808364    0.328247    1.792297
     48          1           0      -13.957182    0.763228    0.262723
     49          1           0      -14.679272   -1.667922    0.582922
     50          1           0      -10.664507   -3.020982   -1.554032
     51          1           0      -11.533231   -2.063018   -3.017602
     52          1           0      -10.007081   -1.243922   -2.269481
     53          1           0       -9.245516    1.001437   -0.868203
     54          1           0      -10.271770    0.376781    2.420681
     55          1           0      -11.659881    0.832095    2.935992
     56          1           0      -11.552504   -0.881845    2.567703
     57          1           0      -12.136406    2.356638   -0.219733
     58          1           0      -12.404209    2.448915    1.576072
     59          1           0      -10.691379    2.249711    0.920862
     60          1           0      -12.148130   -2.709996    1.108319
     61          1           0       -8.896321   -1.830377    0.688066
     62          1           0       -5.755898   -1.959630   -0.341031
     63          1           0       -5.782044   -1.511688    1.447575
     64          1           0       -6.930830   -2.735933    0.723172
     65          1           0       -7.420761    1.526251   -0.246317
     66          1           0       -4.505736    0.108218   -0.200445
     67          1           0       13.483244   -0.945445    2.377789
     68          1           0       12.110525   -1.785548    1.966883
     69          1           0       13.476208   -2.867383    0.499898
     70          1           0       12.957961   -2.304188   -1.816233
     71          1           0       11.818913   -2.730935   -0.617710
     72          1           0       11.887026    0.738700    3.446809
     73          1           0       10.606960    1.445113    2.233373
     74          1           0       10.496052   -0.106745    2.853075
     75          1           0       13.740412    1.184067    0.340737
     76          1           0       12.541468    2.478202    0.903451
     77          1           0       13.459542    1.439076    2.052725
     78          1           0       12.383695   -0.307559   -2.941706
     79          1           0       12.031737    1.219292   -2.135418
     80          1           0       13.510199    0.369399   -1.698581
     81          1           0       -5.309290    3.012470   -0.651958
     82          1           0        9.853677   -0.365189   -1.832418
     83          1           0       15.116494   -0.942406    0.586854
     84          1           0        8.758294    1.933206   -0.553904
     85          1           0       -2.472433    4.263752    0.197553
     86          1           0       -2.363880    3.915878   -1.566074
     87          1           0       -3.706075    4.632908   -0.937135
     88          1           0       -2.557112    0.356324   -0.088975
     89          1           0        6.790661   -1.713799    0.662851
     90          1           0        8.339864   -1.805360   -0.257096
     91          1           0        8.146235   -1.171484    1.678205
     92          1           0        6.099305    1.629754   -0.627930
     93          1           0       -0.575252    2.603008   -0.559166
     94          1           0        4.858049   -0.757244    0.613486
     95          1           0       -0.119342   -0.343690   -0.107243
     96          1           0        3.951882    1.948280   -0.477794
     97          1           0        1.632733    1.941797   -0.666438
     98          1           0        1.440329   -1.469200    0.535438
     99          1           0        2.810525   -1.860828   -0.188515
    100          1           0        3.126540   -1.166220    1.397777
 ---------------------------------------------------------------------

 SCF Done:  E(RCAM-B3LYP) =  -1857.33406568     A.U. after   15 cycles

 Excitation energies and oscillator strengths:

 Excited State   1:      Singlet-A      2.1104 eV  587.48 nm  f=2.7923  <S**2>=0.000
     163 ->166        -0.12941
     164 ->165         0.69730
     164 <-165        -0.10006
 This state for optimization and/or second-order correction.
 Total Energy, E(TD-HF/TD-DFT) =  -1857.25650833
 Copying the excited state density for this state as the 1-particle RhoCI density.

 The electronic state is 1-A.
 Alpha  occ. eigenvalues --  -19.22556 -19.22281 -19.22167 -19.20321 -10.31786
 Alpha  occ. eigenvalues --  -10.31710 -10.31551 -10.31363 -10.30415 -10.28230
 Alpha  occ. eigenvalues --  -10.28167 -10.27877 -10.27803 -10.27741 -10.27574
 Alpha  occ. eigenvalues --  -10.27364 -10.27050 -10.27048 -10.26961 -10.26918
 Alpha  occ. eigenvalues --  -10.26866 -10.26825 -10.26781 -10.26633 -10.26325
 Alpha  occ. eigenvalues --  -10.26217 -10.26117 -10.26102 -10.26066 -10.26000
 Alpha  occ. eigenvalues --  -10.25952 -10.25810 -10.25807 -10.25598 -10.25523
 Alpha  occ. eigenvalues --  -10.25323 -10.25317 -10.25113 -10.25037 -10.24879
 Alpha  occ. eigenvalues --  -10.24842 -10.24623 -10.22745 -10.22279  -1.15905
 Alpha  occ. eigenvalues --   -1.11639  -1.10224  -1.09235  -0.93932  -0.92564
 Alpha  occ. eigenvalues --   -0.91996  -0.90785  -0.90318  -0.89760  -0.88478
 Alpha  occ. eigenvalues --   -0.87446  -0.86841  -0.85736  -0.84563  -0.83661
 Alpha  occ. eigenvalues --   -0.82414  -0.81135  -0.80821  -0.79050  -0.77326
 Alpha  occ. eigenvalues --   -0.76868  -0.76688  -0.76611  -0.76155  -0.76093
 Alpha  occ. eigenvalues --   -0.75842  -0.74332  -0.73130  -0.70326  -0.69988
 Alpha  occ. eigenvalues --   -0.68923  -0.67209  -0.65411  -0.65089  -0.64022
 Alpha  occ. eigenvalues --   -0.63868  -0.62691  -0.61406  -0.61038  -0.59328
 Alpha  occ. eigenvalues --   -0.59051  -0.58447  -0.58203  -0.57732  -0.56985
 Alpha  occ. eigenvalues --   -0.55894  -0.55749  -0.55666  -0.54884  -0.54629
 Alpha  occ. eigenvalues --   -0.53803  -0.53314  -0.52984  -0.52087  -0.51902
 Alpha  occ. eigenvalues --   -0.51797  -0.51503  -0.50911  -0.50771  -0.50433
 Alpha  occ. eigenvalues --   -0.50094  -0.49657  -0.49284  -0.48993  -0.48865
 Alpha  occ. eigenvalues --   -0.48790  -0.48282  -0.47734  -0.47660  -0.46993
 Alpha  occ. eigenvalues --   -0.46626  -0.46356  -0.46186  -0.45721  -0.45607
 Alpha  occ. eigenvalues --   -0.45423  -0.44939  -0.44662  -0.44083  -0.43676
 Alpha  occ. eigenvalues --   -0.43469  -0.43280  -0.43166  -0.43092  -0.42475
 Alpha  occ. eigenvalues --   -0.41993  -0.41963  -0.41691  -0.41471  -0.41157
 Alpha  occ. eigenvalues --   -0.41060  -0.40784  -0.40632  -0.40403  -0.40164
 Alpha  occ. eigenvalues --   -0.39754  -0.39397  -0.39191  -0.39026  -0.38500
 Alpha  occ. eigenvalues --   -0.38245  -0.38068  -0.37837  -0.37531  -0.37472
 Alpha  occ. eigenvalues --   -0.37117  -0.36487  -0.35190  -0.34343  -0.33443
 Alpha  occ. eigenvalues --   -0.33161  -0.32640  -0.32249  -0.31392  -0.30538
 Alpha  occ. eigenvalues --   -0.28923  -0.27820  -0.24189  -0.19711
 Alpha virt. eigenvalues --   -0.06255  -0.01012   0.02632   0.06458   0.07470
 Alpha virt. eigenvalues --    0.08462   0.09748   0.10793   0.11767   0.12017
 Alpha virt. eigenvalues --    0.13061   0.13427   0.13544   0.13783   0.14059

 Mulliken charges:
               1
     1  O   -0.514347
     2  O   -0.549849
     3  O   -0.568657
     4  O   -0.526038
     5  C    0.297953
     6  C    0.110274
     7  C   -0.000915
     8  C   -0.176117
     9  C   -0.207633
    10  C    0.171854
    11  C   -0.301204
    12  C   -0.149310
    13  C   -0.307863
    14  C   -0.323827
    15  C   -0.073960
    16  C    0.096753
    17  C   -0.382328
    18  C   -0.109281
    19  C   -0.076236
    20  C    0.013716
    21  C    0.245568
    22  C   -0.199071
    23  C    0.157421
    24  C   -0.198854
    25  C   -0.002706
    26  C   -0.286484
    27  C   -0.297052
    28  C   -0.299913
    29  C   -0.096464
    30  C    0.058663
    31  C    0.066654
    32  C   -0.261165
    33  C   -0.366061
    34  C   -0.115743
    35  C    0.073391
    36  C   -0.341604
    37  C   -0.116118
    38  C   -0.065763
    39  C   -0.106568
    40  C   -0.106042
    41  C   -0.098808
    42  C   -0.129844
    43  C    0.119375
    44  C   -0.366340
    45  H    0.098860
    46  H    0.144422
    47  H    0.092031
    48  H    0.105046
    49  H    0.088474
    50  H    0.112971
    51  H    0.089026
    52  H    0.142017
    53  H    0.102567
    54  H    0.111543
    55  H    0.101595
    56  H    0.120864
    57  H    0.117915
    58  H    0.108568
    59  H    0.099008
    60  H    0.303270
    61  H    0.078754
    62  H    0.124817
    63  H    0.125776
    64  H    0.094788
    65  H    0.054309
    66  H    0.092784
    67  H    0.055705
    68  H    0.112259
    69  H    0.090431
    70  H    0.092264
    71  H    0.114400
    72  H    0.051068
    73  H    0.121338
    74  H    0.118895
    75  H    0.124126
    76  H    0.093968
    77  H    0.094030
    78  H    0.125160
    79  H    0.092916
    80  H    0.117322
    81  H    0.079054
    82  H    0.301856
    83  H    0.301383
    84  H    0.110346
    85  H    0.104548
    86  H    0.138957
    87  H    0.114846
    88  H    0.082829
    89  H    0.104589
    90  H    0.147641
    91  H    0.087020
    92  H    0.068590
    93  H    0.076562
    94  H    0.082831
    95  H    0.066586
    96  H    0.100252
    97  H    0.070218
    98  H    0.113418
    99  H    0.125546
   100  H    0.120183
 Sum of Mulliken charges =  -0.00000

 Dipole moment (field-independent basis, Debye):
    X=              1.0276    Y=             -0.1736    Z=              1.8381  Tot=              2.1130
 Quadrupole moment (field-independent basis, Debye-Ang):
   XX=           -270.3703   YY=           -255.0776   ZZ=           -280.7967
   XY=              7.0138   XZ=             36.9978   YZ=             -4.2123

 Normal termination of Gaussian 16 at Wed Jul 31 09:23:49 2019.
