 Gaussian 16, Revision A.03,
 Gaussian 16:  ES64L-G16RevA.03 25-Dec-2016

 -------------------------------------
 # td=(NStates=1) CAM-B3LYP/6-31G(d,p)
 -------------------------------------

 --
 TD
 --
 Symbolic Z-matrix:
 Charge =  0 Multiplicity = 1

                         Standard orientation:
 ---------------------------------------------------------------------
 Center     Atomic      Atomic             Coordinates (Angstroms)
 Number     Number       Type             X           Y           Z
 ---------------------------------------------------------------------
      1          8           0      -11.642164   -0.003633   -1.576056
      2          8           0      -12.980024   -2.158627    1.639263
      3          8           0       10.458463   -1.481068   -1.782886
      4          8           0       14.449464   -1.050487    0.086290
      5          6           0      -10.980791   -0.237419   -0.405978
      6          6           0      -11.668867   -1.302644   -1.138300
      7          6           0      -11.685745    0.484239    0.807060
      8          6           0      -12.968386   -1.778899   -0.726578
      9          6           0      -13.149839    0.124600    0.883399
     10          6           0      -13.503425   -1.355536    0.641333
     11          6           0      -10.830155   -2.249931   -1.978133
     12          6           0       -9.525034    0.026685   -0.474293
     13          6           0      -10.865857    0.143205    2.132989
     14          6           0      -11.711034    1.976071    0.616481
     15          6           0       -8.562949   -0.788648    0.123858
     16          6           0       -7.193278   -0.552446    0.234970
     17          6           0       -6.306820   -1.758175    0.614157
     18          6           0       -6.668592    0.681883   -0.068297
     19          6           0       -5.245269    0.867309   -0.306853
     20          6           0       11.958033    0.360627    1.132594
     21          6           0       11.572721   -0.848597   -1.135104
     22          6           0       12.556921   -1.003124    1.499776
     23          6           0       13.291563   -1.723995    0.445430
     24          6           0       12.462443   -2.042766   -0.734300
     25          6           0       10.990876    0.048746   -0.090508
     26          6           0       11.001411    0.805067    2.318609
     27          6           0       12.933231    1.478493    0.812586
     28          6           0       12.337365    0.021209   -2.153295
     29          6           0       -4.754950    2.149296   -0.526947
     30          6           0        9.789406    0.487761   -0.123379
     31          6           0       -3.405476    2.446139   -0.535874
     32          6           0        8.597651    1.011417   -0.325289
     33          6           0       -3.032228    3.834029   -0.907644
     34          6           0       -2.335736    1.490069   -0.271602
     35          6           0        7.379502    0.128884    0.108746
     36          6           0        7.637935   -1.260837    0.571881
     37          6           0        6.161040    0.770310   -0.015719
     38          6           0       -0.947997    1.774080   -0.352442
     39          6           0        4.871935    0.158536    0.129618
     40          6           0       -0.045733    0.802007   -0.052927
     41          6           0        3.803077    0.866153   -0.230652
     42          6           0        1.361036    1.105424   -0.175608
     43          6           0        2.481833    0.318907    0.011521
     44          6           0        2.527370   -1.148704    0.487464
     45          1           0      -12.905654   -2.880507   -0.696660
     46          1           0      -13.792508   -1.573738   -1.681205
     47          1           0      -13.549764    0.496348    1.933077
     48          1           0      -13.681904    0.542066   -0.084178
     49          1           0      -14.557028   -1.438486    0.830955
     50          1           0      -10.135330   -3.007419   -1.474178
     51          1           0      -11.677918   -2.917772   -2.504232
     52          1           0      -10.091764   -1.543646   -2.696912
     53          1           0       -9.267003    0.816721   -1.187845
     54          1           0       -9.858773    0.763317    2.105540
     55          1           0      -11.682505    0.548841    2.780754
     56          1           0      -10.539510   -0.968918    2.151210
     57          1           0      -12.129990    2.140696   -0.366867
     58          1           0      -12.077633    2.646065    1.614964
     59          1           0      -10.534714    2.415933    0.374102
     60          1           0      -11.998141   -2.138880    1.459528
     61          1           0       -8.863617   -1.587107    0.775623
     62          1           0       -6.041283   -2.269502   -0.209250
     63          1           0       -5.344474   -1.425383    1.207789
     64          1           0       -7.012579   -2.443184    1.192246
     65          1           0       -7.250880    1.430369   -0.145717
     66          1           0       -4.679806   -0.182398   -0.337785
     67          1           0       13.239990   -0.754453    2.361204
     68          1           0       11.787845   -1.544133    1.938092
     69          1           0       13.709644   -2.727142    0.817030
     70          1           0       12.966443   -2.543779   -1.517652
     71          1           0       11.717488   -2.882506   -0.397698
     72          1           0       11.604452    1.121738    3.221893
     73          1           0       10.542708    1.774763    2.001408
     74          1           0       10.515812   -0.019820    2.614636
     75          1           0       13.779141    1.122287    0.123707
     76          1           0       12.211998    2.433663    0.287416
     77          1           0       13.446900    2.087503    1.790176
     78          1           0       12.190379   -0.683540   -3.240434
     79          1           0       11.804875    0.924129   -2.439593
     80          1           0       13.469019   -0.077436   -1.923129
     81          1           0       -5.499665    2.880682   -0.506704
     82          1           0       10.026028   -0.804621   -2.177246
     83          1           0       14.974743   -1.097115    0.930777
     84          1           0        8.375122    2.021368   -0.798208
     85          1           0       -1.980531    4.263653   -0.337266
     86          1           0       -2.895945    3.903663   -2.030660
     87          1           0       -3.761806    4.722863   -0.689588
     88          1           0       -2.686127    0.588562    0.375007
     89          1           0        6.641132   -1.859009    0.687855
     90          1           0        8.245703   -1.772449    0.046986
     91          1           0        7.948301   -1.403425    1.690830
     92          1           0        6.177403    1.816782   -0.441930
     93          1           0       -0.641978    2.716117   -0.782598
     94          1           0        4.888749   -0.841989    0.577171
     95          1           0       -0.512510   -0.253326    0.183470
     96          1           0        3.953142    1.862324   -0.557593
     97          1           0        1.633535    2.030422   -0.613343
     98          1           0        1.436911   -1.523615    0.399859
     99          1           0        3.243664   -1.885713   -0.105928
    100          1           0        2.871155   -1.325913    1.481716
 ---------------------------------------------------------------------

 SCF Done:  E(RCAM-B3LYP) =  -1857.29577304     A.U. after   15 cycles

 Excitation energies and oscillator strengths:

 Excited State   1:      Singlet-A      2.2085 eV  561.39 nm  f=2.6385  <S**2>=0.000
     163 ->166         0.12650
     164 ->165         0.69451
 This state for optimization and/or second-order correction.
 Total Energy, E(TD-HF/TD-DFT) =  -1857.21461092
 Copying the excited state density for this state as the 1-particle RhoCI density.

 The electronic state is 1-A.
 Alpha  occ. eigenvalues --  -19.22702 -19.22508 -19.21294 -19.19904 -10.32258
 Alpha  occ. eigenvalues --  -10.31755 -10.31658 -10.30958 -10.30214 -10.28284
 Alpha  occ. eigenvalues --  -10.28187 -10.28022 -10.27936 -10.27807 -10.27799
 Alpha  occ. eigenvalues --  -10.27679 -10.27641 -10.27486 -10.27480 -10.27284
 Alpha  occ. eigenvalues --  -10.27252 -10.27249 -10.27175 -10.27124 -10.26906
 Alpha  occ. eigenvalues --  -10.26752 -10.26751 -10.26690 -10.26586 -10.26570
 Alpha  occ. eigenvalues --  -10.26452 -10.26181 -10.26113 -10.26096 -10.26073
 Alpha  occ. eigenvalues --  -10.25979 -10.25891 -10.25582 -10.25517 -10.25302
 Alpha  occ. eigenvalues --  -10.25271 -10.25187 -10.24824 -10.24281  -1.20431
 Alpha  occ. eigenvalues --   -1.12102  -1.11038  -1.10694  -0.93146  -0.92451
 Alpha  occ. eigenvalues --   -0.91721  -0.91011  -0.90411  -0.89360  -0.87693
 Alpha  occ. eigenvalues --   -0.87275  -0.86378  -0.85419  -0.84500  -0.82929
 Alpha  occ. eigenvalues --   -0.81753  -0.80385  -0.80105  -0.77827  -0.76907
 Alpha  occ. eigenvalues --   -0.76606  -0.76323  -0.75373  -0.75221  -0.74789
 Alpha  occ. eigenvalues --   -0.74704  -0.74423  -0.72811  -0.70518  -0.69605
 Alpha  occ. eigenvalues --   -0.67986  -0.66564  -0.65629  -0.64179  -0.64059
 Alpha  occ. eigenvalues --   -0.63417  -0.62465  -0.61035  -0.60816  -0.59816
 Alpha  occ. eigenvalues --   -0.59215  -0.58418  -0.57805  -0.57719  -0.57049
 Alpha  occ. eigenvalues --   -0.56130  -0.55652  -0.55285  -0.55019  -0.54341
 Alpha  occ. eigenvalues --   -0.53806  -0.53426  -0.53002  -0.52614  -0.51975
 Alpha  occ. eigenvalues --   -0.51504  -0.51126  -0.50590  -0.50446  -0.49865
 Alpha  occ. eigenvalues --   -0.49425  -0.48655  -0.48395  -0.48280  -0.48131
 Alpha  occ. eigenvalues --   -0.47951  -0.47507  -0.46934  -0.46886  -0.46806
 Alpha  occ. eigenvalues --   -0.46320  -0.46048  -0.45977  -0.45466  -0.44980
 Alpha  occ. eigenvalues --   -0.44611  -0.44522  -0.44198  -0.43974  -0.43645
 Alpha  occ. eigenvalues --   -0.43490  -0.43232  -0.42981  -0.42765  -0.42624
 Alpha  occ. eigenvalues --   -0.42054  -0.41854  -0.41710  -0.41462  -0.40935
 Alpha  occ. eigenvalues --   -0.40705  -0.40564  -0.40263  -0.40197  -0.39605
 Alpha  occ. eigenvalues --   -0.39549  -0.39262  -0.39194  -0.38872  -0.38695
 Alpha  occ. eigenvalues --   -0.38492  -0.38311  -0.37701  -0.37480  -0.36899
 Alpha  occ. eigenvalues --   -0.36664  -0.36111  -0.35468  -0.34420  -0.33901
 Alpha  occ. eigenvalues --   -0.32490  -0.32329  -0.32270  -0.31275  -0.30671
 Alpha  occ. eigenvalues --   -0.29558  -0.27696  -0.24264  -0.19806
 Alpha virt. eigenvalues --   -0.05697  -0.00420   0.02992   0.06278   0.07013
 Alpha virt. eigenvalues --    0.09198   0.09338   0.09822   0.10986   0.11702
 Alpha virt. eigenvalues --    0.12027   0.12258   0.12666   0.13000   0.13229

 Mulliken charges:
               1
     1  O   -0.476850
     2  O   -0.533453
     3  O   -0.540054
     4  O   -0.536130
     5  C    0.174642
     6  C    0.282325
     7  C    0.010271
     8  C   -0.235241
     9  C   -0.180791
    10  C    0.153644
    11  C   -0.325130
    12  C   -0.119727
    13  C   -0.278245
    14  C   -0.279701
    15  C   -0.080735
    16  C    0.060295
    17  C   -0.370221
    18  C   -0.070193
    19  C   -0.076264
    20  C    0.011807
    21  C    0.240649
    22  C   -0.183863
    23  C    0.149093
    24  C   -0.193431
    25  C   -0.088085
    26  C   -0.293183
    27  C   -0.282967
    28  C   -0.318823
    29  C   -0.119935
    30  C    0.204246
    31  C    0.099014
    32  C   -0.293891
    33  C   -0.375457
    34  C   -0.137604
    35  C    0.085916
    36  C   -0.360920
    37  C   -0.121531
    38  C   -0.055876
    39  C   -0.053082
    40  C   -0.084565
    41  C   -0.113229
    42  C   -0.143111
    43  C    0.109328
    44  C   -0.378446
    45  H    0.112786
    46  H    0.088286
    47  H    0.086973
    48  H    0.097391
    49  H    0.102992
    50  H    0.111422
    51  H    0.091267
    52  H    0.112244
    53  H    0.113490
    54  H    0.108650
    55  H    0.105387
    56  H    0.074298
    57  H    0.134122
    58  H    0.090935
    59  H    0.045892
    60  H    0.298866
    61  H    0.066488
    62  H    0.145533
    63  H    0.110874
    64  H    0.099150
    65  H    0.061606
    66  H    0.091154
    67  H    0.076915
    68  H    0.106911
    69  H    0.063076
    70  H    0.124171
    71  H    0.109358
    72  H    0.080352
    73  H    0.114970
    74  H    0.111378
    75  H    0.134020
    76  H    0.059910
    77  H    0.070610
    78  H    0.065970
    79  H    0.113323
    80  H    0.144858
    81  H    0.092999
    82  H    0.287887
    83  H    0.313459
    84  H    0.112067
    85  H    0.084145
    86  H    0.126364
    87  H    0.105410
    88  H    0.083791
    89  H    0.087671
    90  H    0.148630
    91  H    0.106269
    92  H    0.070717
    93  H    0.095409
    94  H    0.088277
    95  H    0.090877
    96  H    0.082327
    97  H    0.082086
    98  H    0.093014
    99  H    0.108878
   100  H    0.133597
 Sum of Mulliken charges =  -0.00000

 Dipole moment (field-independent basis, Debye):
    X=              2.9469    Y=             -0.2905    Z=              1.0774  Tot=              3.1511
 Quadrupole moment (field-independent basis, Debye-Ang):
   XX=           -269.9049   YY=           -261.5513   ZZ=           -278.5155
   XY=             -5.2308   XZ=             29.6762   YZ=             -5.5796

 Normal termination of Gaussian 16 at Tue Jul 30 11:46:36 2019.
