 Gaussian 16, Revision A.03,
 Gaussian 16:  ES64L-G16RevA.03 25-Dec-2016

 -------------------------------------
 # td=(NStates=1) CAM-B3LYP/6-31G(d,p)
 -------------------------------------

 --
 TD
 --
 Symbolic Z-matrix:
 Charge =  0 Multiplicity = 1

                         Standard orientation:
 ---------------------------------------------------------------------
 Center     Atomic      Atomic             Coordinates (Angstroms)
 Number     Number       Type             X           Y           Z
 ---------------------------------------------------------------------
      1          8           0      -11.695239    0.382547   -1.378488
      2          8           0      -13.004143   -2.587246    1.210364
      3          8           0       10.696966   -0.878478   -2.124450
      4          8           0       14.473365   -1.015706   -0.139876
      5          6           0      -11.013846   -0.162263   -0.285020
      6          6           0      -11.628255   -0.952296   -1.320383
      7          6           0      -11.757178    0.162902    1.100700
      8          6           0      -13.029036   -1.622962   -1.016923
      9          6           0      -13.189779   -0.279078    1.130663
     10          6           0      -13.562856   -1.580786    0.413444
     11          6           0      -10.855833   -1.660251   -2.439000
     12          6           0       -9.574830    0.232336   -0.368264
     13          6           0      -10.971179   -0.433301    2.287824
     14          6           0      -11.620907    1.713413    1.290297
     15          6           0       -8.602394   -0.616248   -0.026388
     16          6           0       -7.144743   -0.523927    0.052079
     17          6           0       -6.300639   -1.802885    0.272674
     18          6           0       -6.556049    0.778760   -0.252079
     19          6           0       -5.186387    1.056043   -0.150759
     20          6           0       11.826154    0.031509    1.314129
     21          6           0       11.692313   -0.494063   -1.236354
     22          6           0       12.535280   -1.361342    1.436644
     23          6           0       13.279985   -1.899217    0.224834
     24          6           0       12.352678   -1.797934   -0.983918
     25          6           0       11.006274    0.041217    0.052069
     26          6           0       10.989246    0.070051    2.642057
     27          6           0       12.880504    1.203020    1.395835
     28          6           0       12.566841    0.562972   -1.917118
     29          6           0       -4.690911    2.339366   -0.355625
     30          6           0        9.821055    0.603159    0.075876
     31          6           0       -3.377865    2.643986   -0.280216
     32          6           0        8.569647    0.965409    0.020304
     33          6           0       -3.041682    4.084354   -0.505183
     34          6           0       -2.408137    1.696901   -0.116521
     35          6           0        7.429868    0.076229   -0.024053
     36          6           0        7.611842   -1.402023    0.104157
     37          6           0        6.137200    0.666849   -0.023687
     38          6           0       -0.987473    1.833529   -0.228824
     39          6           0        4.830602    0.067515   -0.047749
     40          6           0        0.029797    0.919442   -0.090949
     41          6           0        3.724601    0.767355   -0.116287
     42          6           0        1.401757    1.154630   -0.118039
     43          6           0        2.443581    0.229923   -0.058555
     44          6           0        2.300329   -1.184097    0.124112
     45          1           0      -12.855592   -2.639133   -1.464926
     46          1           0      -13.754813   -0.991148   -1.833866
     47          1           0      -13.579800   -0.403635    2.291592
     48          1           0      -13.742247    0.556211    0.758248
     49          1           0      -14.660132   -1.825184    0.515498
     50          1           0      -10.499708   -2.507278   -1.753737
     51          1           0      -11.408293   -1.826587   -3.341887
     52          1           0       -9.975644   -1.086223   -2.887284
     53          1           0       -9.116479    1.245545   -0.788817
     54          1           0       -9.854273    0.039586    2.307795
     55          1           0      -11.475794   -0.410447    3.251036
     56          1           0      -10.665921   -1.509594    2.028812
     57          1           0      -12.353034    2.037163    0.438061
     58          1           0      -11.793771    1.937557    2.241128
     59          1           0      -10.479065    1.887992    1.002520
     60          1           0      -12.139730   -2.713708    1.138572
     61          1           0       -8.737398   -1.757745    0.285348
     62          1           0       -5.639942   -1.950628   -0.583652
     63          1           0       -5.536732   -1.717574    1.006276
     64          1           0       -6.602528   -2.827903    0.435556
     65          1           0       -7.178864    1.552154   -0.494781
     66          1           0       -4.443320    0.069211   -0.093494
     67          1           0       13.198561   -1.327471    2.395475
     68          1           0       11.720963   -2.032653    1.870089
     69          1           0       13.715672   -3.010847    0.348019
     70          1           0       12.857313   -2.026145   -1.949623
     71          1           0       11.547190   -2.566259   -0.965812
     72          1           0       11.527102   -0.687881    3.487738
     73          1           0       11.001497    1.261653    3.026123
     74          1           0        9.857139   -0.370735    2.206245
     75          1           0       13.730336    1.144865    0.535669
     76          1           0       12.256491    2.126455    1.401684
     77          1           0       13.372023    1.192939    2.310831
     78          1           0       13.182782    0.055908   -2.905846
     79          1           0       11.895504    1.469715   -2.249945
     80          1           0       13.501436    0.812100   -1.255461
     81          1           0       -5.514905    3.082461   -0.633967
     82          1           0       10.173954   -0.146213   -2.517466
     83          1           0       15.283196   -1.259782    0.445895
     84          1           0        8.301986    1.995464   -0.153322
     85          1           0       -2.300199    4.551850    0.144425
     86          1           0       -2.547592    4.266794   -1.566488
     87          1           0       -3.918002    4.717124   -0.508830
     88          1           0       -2.944465    0.724007   -0.036674
     89          1           0        6.713242   -2.079204    0.371210
     90          1           0        8.321242   -1.850094   -0.655744
     91          1           0        8.281491   -1.556985    1.028038
     92          1           0        6.113758    1.621136   -0.290254
     93          1           0       -0.862420    2.971805   -0.584230
     94          1           0        4.735123   -1.103721    0.132851
     95          1           0       -0.256207   -0.030078   -0.014471
     96          1           0        3.805356    1.808425   -0.312326
     97          1           0        1.699848    2.178158   -0.317267
     98          1           0        1.407676   -1.645397   -0.293699
     99          1           0        2.998146   -1.807711   -0.617512
    100          1           0        2.292773   -1.616434    1.271411
 ---------------------------------------------------------------------

 SCF Done:  E(RCAM-B3LYP) =  -1857.28690237     A.U. after   16 cycles

 Excitation energies and oscillator strengths:

 Excited State   1:      Singlet-A      2.0482 eV  605.32 nm  f=2.8952  <S**2>=0.000
     163 ->166         0.13383
     164 ->165         0.69558
 This state for optimization and/or second-order correction.
 Total Energy, E(TD-HF/TD-DFT) =  -1857.21163076
 Copying the excited state density for this state as the 1-particle RhoCI density.

 The electronic state is 1-A.
 Alpha  occ. eigenvalues --  -19.22214 -19.21782 -19.20897 -19.19437 -10.33109
 Alpha  occ. eigenvalues --  -10.32133 -10.31966 -10.31941 -10.31392 -10.29265
 Alpha  occ. eigenvalues --  -10.29048 -10.28149 -10.27956 -10.27812 -10.27716
 Alpha  occ. eigenvalues --  -10.27481 -10.27326 -10.27279 -10.27259 -10.27141
 Alpha  occ. eigenvalues --  -10.27024 -10.27015 -10.26932 -10.26850 -10.26830
 Alpha  occ. eigenvalues --  -10.26729 -10.26718 -10.26641 -10.26539 -10.26322
 Alpha  occ. eigenvalues --  -10.26170 -10.26155 -10.26050 -10.25996 -10.25924
 Alpha  occ. eigenvalues --  -10.25923 -10.25609 -10.25600 -10.25253 -10.25181
 Alpha  occ. eigenvalues --  -10.25168 -10.24804 -10.24614 -10.24605  -1.19754
 Alpha  occ. eigenvalues --   -1.11285  -1.10706  -1.06153  -0.93295  -0.92933
 Alpha  occ. eigenvalues --   -0.92637  -0.90752  -0.90348  -0.89694  -0.87730
 Alpha  occ. eigenvalues --   -0.85983  -0.85712  -0.85120  -0.84463  -0.82894
 Alpha  occ. eigenvalues --   -0.82214  -0.80820  -0.79995  -0.78787  -0.77263
 Alpha  occ. eigenvalues --   -0.76584  -0.76243  -0.75316  -0.75005  -0.74750
 Alpha  occ. eigenvalues --   -0.74632  -0.73417  -0.73151  -0.71109  -0.69549
 Alpha  occ. eigenvalues --   -0.68728  -0.67525  -0.65566  -0.64579  -0.64209
 Alpha  occ. eigenvalues --   -0.63384  -0.61891  -0.60714  -0.60510  -0.60353
 Alpha  occ. eigenvalues --   -0.59009  -0.57678  -0.57588  -0.56973  -0.56660
 Alpha  occ. eigenvalues --   -0.55910  -0.55296  -0.54785  -0.54356  -0.53867
 Alpha  occ. eigenvalues --   -0.53730  -0.53172  -0.53076  -0.51976  -0.51795
 Alpha  occ. eigenvalues --   -0.51539  -0.50608  -0.50281  -0.49857  -0.49713
 Alpha  occ. eigenvalues --   -0.49059  -0.48811  -0.48329  -0.47806  -0.47619
 Alpha  occ. eigenvalues --   -0.47219  -0.47095  -0.46946  -0.46876  -0.46448
 Alpha  occ. eigenvalues --   -0.46272  -0.46027  -0.45861  -0.45478  -0.45421
 Alpha  occ. eigenvalues --   -0.45262  -0.44590  -0.44184  -0.43714  -0.43393
 Alpha  occ. eigenvalues --   -0.43292  -0.42616  -0.42470  -0.42147  -0.42004
 Alpha  occ. eigenvalues --   -0.41985  -0.41615  -0.41305  -0.40911  -0.40630
 Alpha  occ. eigenvalues --   -0.40369  -0.40186  -0.39876  -0.39653  -0.39422
 Alpha  occ. eigenvalues --   -0.39365  -0.38781  -0.38755  -0.38459  -0.38200
 Alpha  occ. eigenvalues --   -0.38095  -0.37850  -0.37078  -0.36681  -0.36622
 Alpha  occ. eigenvalues --   -0.35949  -0.35852  -0.35591  -0.34974  -0.34489
 Alpha  occ. eigenvalues --   -0.33061  -0.32596  -0.32040  -0.31482  -0.30466
 Alpha  occ. eigenvalues --   -0.29892  -0.27937  -0.23945  -0.19515
 Alpha virt. eigenvalues --   -0.06477  -0.01120   0.03138   0.06266   0.06898
 Alpha virt. eigenvalues --    0.08973   0.09975   0.10799   0.10994   0.11536
 Alpha virt. eigenvalues --    0.12282   0.12453   0.12877   0.13270   0.13361

 Mulliken charges:
               1
     1  O   -0.467124
     2  O   -0.530103
     3  O   -0.564116
     4  O   -0.572772
     5  C    0.183592
     6  C    0.237936
     7  C    0.003075
     8  C   -0.204262
     9  C   -0.165859
    10  C    0.160401
    11  C   -0.331906
    12  C   -0.143947
    13  C   -0.291950
    14  C   -0.279069
    15  C   -0.044992
    16  C    0.062064
    17  C   -0.405714
    18  C   -0.109065
    19  C   -0.062152
    20  C    0.040069
    21  C    0.276944
    22  C   -0.186649
    23  C    0.129450
    24  C   -0.179988
    25  C   -0.052765
    26  C   -0.284904
    27  C   -0.294275
    28  C   -0.283127
    29  C   -0.142463
    30  C    0.128887
    31  C    0.134598
    32  C   -0.281812
    33  C   -0.395471
    34  C   -0.086854
    35  C    0.144552
    36  C   -0.390617
    37  C   -0.128434
    38  C   -0.095340
    39  C   -0.091429
    40  C   -0.072402
    41  C   -0.083088
    42  C   -0.125216
    43  C    0.157150
    44  C   -0.397980
    45  H    0.100247
    46  H    0.087161
    47  H    0.083151
    48  H    0.093396
    49  H    0.104347
    50  H    0.103825
    51  H    0.121771
    52  H    0.116634
    53  H    0.106137
    54  H    0.088544
    55  H    0.113147
    56  H    0.064999
    57  H    0.109269
    58  H    0.112845
    59  H    0.087650
    60  H    0.284731
    61  H    0.056369
    62  H    0.130540
    63  H    0.131713
    64  H    0.124003
    65  H    0.076850
    66  H    0.087774
    67  H    0.076673
    68  H    0.102268
    69  H    0.080805
    70  H    0.115362
    71  H    0.123214
    72  H    0.082324
    73  H    0.082607
    74  H    0.092742
    75  H    0.109388
    76  H    0.094411
    77  H    0.103934
    78  H    0.076747
    79  H    0.082468
    80  H    0.130634
    81  H    0.097741
    82  H    0.307317
    83  H    0.310490
    84  H    0.104031
    85  H    0.128523
    86  H    0.106645
    87  H    0.111754
    88  H    0.050885
    89  H    0.110636
    90  H    0.137120
    91  H    0.104793
    92  H    0.067052
    93  H    0.067897
    94  H    0.077473
    95  H    0.072566
    96  H    0.078628
    97  H    0.076959
    98  H    0.116866
    99  H    0.107652
   100  H    0.113420
 Sum of Mulliken charges =  -0.00000

 Dipole moment (field-independent basis, Debye):
    X=              3.7207    Y=             -1.1682    Z=              0.1058  Tot=              3.9012
 Quadrupole moment (field-independent basis, Debye-Ang):
   XX=           -276.0805   YY=           -259.9437   ZZ=           -276.1927
   XY=            -10.7871   XZ=             24.0374   YZ=             -3.4701

 Normal termination of Gaussian 16 at Tue Jul 30 22:40:27 2019.
