 Gaussian 16, Revision A.03,
 Gaussian 16:  ES64L-G16RevA.03 25-Dec-2016

 -------------------------------------
 # td=(NStates=1) CAM-B3LYP/6-31G(d,p)
 -------------------------------------

 --
 TD
 --
 Symbolic Z-matrix:
 Charge =  0 Multiplicity = 1

                         Standard orientation:
 ---------------------------------------------------------------------
 Center     Atomic      Atomic             Coordinates (Angstroms)
 Number     Number       Type             X           Y           Z
 ---------------------------------------------------------------------
      1          8           0      -11.619342    0.150029   -1.551416
      2          8           0      -13.070372   -2.523802    1.320805
      3          8           0       10.529413   -1.232766   -2.084664
      4          8           0       14.372070   -1.316832   -0.207879
      5          6           0      -10.998867   -0.122965   -0.324403
      6          6           0      -11.504256   -1.178729   -1.240040
      7          6           0      -11.826320    0.281900    0.891451
      8          6           0      -12.969913   -1.798110   -0.957478
      9          6           0      -13.286577   -0.103188    0.834009
     10          6           0      -13.577303   -1.581270    0.431478
     11          6           0      -10.660795   -2.039558   -2.078276
     12          6           0       -9.564170    0.045632   -0.342060
     13          6           0      -11.142227   -0.269275    2.158800
     14          6           0      -11.686995    1.900527    0.989836
     15          6           0       -8.621303   -0.756807    0.125251
     16          6           0       -7.231219   -0.493817    0.220613
     17          6           0       -6.324820   -1.640877    0.606383
     18          6           0       -6.614505    0.731435   -0.075324
     19          6           0       -5.228887    0.979052   -0.073010
     20          6           0       11.968843    0.131001    1.301272
     21          6           0       11.592835   -0.759514   -1.261712
     22          6           0       12.623967   -1.225330    1.577079
     23          6           0       13.254710   -2.026751    0.342252
     24          6           0       12.307092   -2.147822   -0.861349
     25          6           0       11.118606    0.003450    0.021027
     26          6           0       11.017560    0.352241    2.450820
     27          6           0       12.957366    1.300271    1.221306
     28          6           0       12.473771    0.200533   -2.129708
     29          6           0       -4.784628    2.230285   -0.470356
     30          6           0        9.922689    0.612424   -0.074005
     31          6           0       -3.329616    2.555507   -0.567844
     32          6           0        8.702666    0.998062   -0.230374
     33          6           0       -2.950303    4.019643   -0.844638
     34          6           0       -2.413985    1.709501   -0.271664
     35          6           0        7.485965    0.252656    0.090997
     36          6           0        7.619333   -1.158467    0.449632
     37          6           0        6.225224    0.840400    0.005009
     38          6           0       -0.973413    1.998315   -0.176181
     39          6           0        4.933826    0.341368    0.139187
     40          6           0        0.046383    1.033062   -0.110680
     41          6           0        3.741500    0.973619   -0.048080
     42          6           0        1.446100    1.315065   -0.129908
     43          6           0        2.533842    0.419806    0.070716
     44          6           0        2.371251   -1.100815    0.209135
     45          1           0      -12.918517   -2.844142   -1.259823
     46          1           0      -13.890448   -1.216264   -1.542295
     47          1           0      -13.671538    0.013981    1.711012
     48          1           0      -13.874068    0.502294    0.002808
     49          1           0      -14.596424   -1.760860    0.385925
     50          1           0      -10.642873   -2.948179   -1.440005
     51          1           0      -11.341463   -2.386597   -3.025828
     52          1           0       -9.777434   -1.550692   -2.370471
     53          1           0       -9.371214    1.161078   -0.861997
     54          1           0      -10.204397    0.163725    2.330824
     55          1           0      -11.759789   -0.067150    3.166544
     56          1           0      -11.226780   -1.393414    2.141642
     57          1           0      -12.011930    2.212181    0.095085
     58          1           0      -12.041521    2.146542    1.941576
     59          1           0      -10.566280    2.051424    1.059974
     60          1           0      -12.275833   -2.692548    1.009375
     61          1           0       -9.089450   -1.712969    0.672665
     62          1           0       -5.469186   -1.705766   -0.129173
     63          1           0       -5.910791   -1.431875    1.663803
     64          1           0       -6.775809   -2.705860    0.426747
     65          1           0       -7.394661    1.609235   -0.372699
     66          1           0       -4.438836    0.271222    0.402854
     67          1           0       13.329798   -1.245039    2.468577
     68          1           0       11.502186   -1.883009    1.531037
     69          1           0       13.725112   -3.053275    0.803285
     70          1           0       12.944098   -2.320508   -1.790630
     71          1           0       11.559805   -2.859397   -0.460020
     72          1           0       11.563424    0.541113    3.487595
     73          1           0       10.364828    1.234251    2.554422
     74          1           0       10.414973   -0.542454    2.453282
     75          1           0       13.764599    1.180043    0.409838
     76          1           0       12.521981    2.268527    0.928251
     77          1           0       13.371918    1.454242    2.239623
     78          1           0       12.663755   -0.302496   -3.095910
     79          1           0       11.986373    1.108927   -2.356336
     80          1           0       13.604744    0.354394   -1.750024
     81          1           0       -5.474883    3.037243   -0.691824
     82          1           0        9.917638   -0.432035   -2.233646
     83          1           0       15.100778   -1.108112    0.428974
     84          1           0        8.583578    1.989641   -0.746354
     85          1           0       -2.210256    4.364385   -0.097790
     86          1           0       -2.538442    3.977905   -1.887047
     87          1           0       -3.949992    4.563942   -0.924227
     88          1           0       -2.574324    0.517299   -0.032418
     89          1           0        6.650553   -1.720829    0.401823
     90          1           0        8.278766   -1.712406   -0.224521
     91          1           0        8.170768   -1.087788    1.396664
     92          1           0        6.243102    1.968040   -0.316798
     93          1           0       -0.742826    3.011636   -0.541972
     94          1           0        4.978236   -0.617828    0.447586
     95          1           0       -0.327288    0.067777    0.073986
     96          1           0        3.604369    2.020525   -0.111810
     97          1           0        1.665175    2.309928   -0.320850
     98          1           0        1.368420   -1.491053    0.103021
     99          1           0        3.021713   -1.694666   -0.468552
    100          1           0        2.551858   -1.162078    1.284458
 ---------------------------------------------------------------------

 SCF Done:  E(RCAM-B3LYP) =  -1857.35855447     A.U. after   15 cycles

 Excitation energies and oscillator strengths:

 Excited State   1:      Singlet-A      2.3591 eV  525.56 nm  f=3.2771  <S**2>=0.000
     163 ->166        -0.16205
     164 ->165         0.68381
 This state for optimization and/or second-order correction.
 Total Energy, E(TD-HF/TD-DFT) =  -1857.27185901
 Copying the excited state density for this state as the 1-particle RhoCI density.

 The electronic state is 1-A.
 Alpha  occ. eigenvalues --  -19.22043 -19.21629 -19.21335 -19.20320 -10.32966
 Alpha  occ. eigenvalues --  -10.32752 -10.31703 -10.31141 -10.29758 -10.28649
 Alpha  occ. eigenvalues --  -10.28614 -10.28003 -10.27903 -10.27591 -10.27511
 Alpha  occ. eigenvalues --  -10.27450 -10.27427 -10.27366 -10.27361 -10.27273
 Alpha  occ. eigenvalues --  -10.27259 -10.27122 -10.27059 -10.27013 -10.26889
 Alpha  occ. eigenvalues --  -10.26754 -10.26706 -10.26692 -10.26664 -10.26439
 Alpha  occ. eigenvalues --  -10.26406 -10.26377 -10.26297 -10.26217 -10.26043
 Alpha  occ. eigenvalues --  -10.25322 -10.25296 -10.25244 -10.25213 -10.25116
 Alpha  occ. eigenvalues --  -10.24992 -10.24678 -10.24266 -10.23647  -1.18268
 Alpha  occ. eigenvalues --   -1.12960  -1.09089  -1.08580  -0.93257  -0.92857
 Alpha  occ. eigenvalues --   -0.92198  -0.91334  -0.90884  -0.90162  -0.87231
 Alpha  occ. eigenvalues --   -0.86245  -0.85732  -0.85005  -0.84746  -0.83123
 Alpha  occ. eigenvalues --   -0.82159  -0.81165  -0.80132  -0.78276  -0.77107
 Alpha  occ. eigenvalues --   -0.76784  -0.76095  -0.75857  -0.75678  -0.75287
 Alpha  occ. eigenvalues --   -0.75068  -0.74663  -0.73279  -0.70869  -0.70136
 Alpha  occ. eigenvalues --   -0.68412  -0.67137  -0.64961  -0.64540  -0.64314
 Alpha  occ. eigenvalues --   -0.63415  -0.61839  -0.61061  -0.60296  -0.60072
 Alpha  occ. eigenvalues --   -0.58386  -0.58178  -0.57429  -0.56692  -0.56522
 Alpha  occ. eigenvalues --   -0.55601  -0.55333  -0.55062  -0.54675  -0.54484
 Alpha  occ. eigenvalues --   -0.54205  -0.53375  -0.52543  -0.52444  -0.51582
 Alpha  occ. eigenvalues --   -0.51486  -0.51138  -0.50702  -0.50474  -0.50282
 Alpha  occ. eigenvalues --   -0.49725  -0.49491  -0.49099  -0.49001  -0.48724
 Alpha  occ. eigenvalues --   -0.48390  -0.48245  -0.47592  -0.47200  -0.46785
 Alpha  occ. eigenvalues --   -0.46248  -0.46116  -0.45811  -0.45493  -0.45143
 Alpha  occ. eigenvalues --   -0.44999  -0.44722  -0.44528  -0.44072  -0.43733
 Alpha  occ. eigenvalues --   -0.43689  -0.43555  -0.43086  -0.42767  -0.42633
 Alpha  occ. eigenvalues --   -0.42531  -0.42302  -0.41835  -0.41559  -0.41331
 Alpha  occ. eigenvalues --   -0.40728  -0.40662  -0.40518  -0.40039  -0.39983
 Alpha  occ. eigenvalues --   -0.39753  -0.39563  -0.39175  -0.39018  -0.38795
 Alpha  occ. eigenvalues --   -0.38676  -0.38029  -0.37272  -0.37054  -0.36952
 Alpha  occ. eigenvalues --   -0.36551  -0.35872  -0.35631  -0.34826  -0.33557
 Alpha  occ. eigenvalues --   -0.32871  -0.32297  -0.31831  -0.31536  -0.30026
 Alpha  occ. eigenvalues --   -0.29590  -0.28583  -0.24058  -0.20135
 Alpha virt. eigenvalues --   -0.05592  -0.01502   0.03719   0.05285   0.06981
 Alpha virt. eigenvalues --    0.08580   0.09160   0.10472   0.11375   0.12441
 Alpha virt. eigenvalues --    0.12490   0.12878   0.13260   0.13445   0.14447

 Mulliken charges:
               1
     1  O   -0.489299
     2  O   -0.510547
     3  O   -0.558887
     4  O   -0.556780
     5  C    0.214830
     6  C    0.237697
     7  C    0.000136
     8  C   -0.234919
     9  C   -0.155971
    10  C    0.140430
    11  C   -0.318841
    12  C   -0.102048
    13  C   -0.308789
    14  C   -0.305871
    15  C   -0.090193
    16  C    0.077765
    17  C   -0.375331
    18  C   -0.104793
    19  C   -0.067650
    20  C    0.037161
    21  C    0.251003
    22  C   -0.176725
    23  C    0.169674
    24  C   -0.188009
    25  C   -0.072969
    26  C   -0.292375
    27  C   -0.305665
    28  C   -0.317939
    29  C   -0.114443
    30  C    0.145018
    31  C    0.079218
    32  C   -0.296015
    33  C   -0.370720
    34  C   -0.100843
    35  C    0.120890
    36  C   -0.381700
    37  C   -0.115736
    38  C   -0.113262
    39  C   -0.093501
    40  C   -0.082032
    41  C   -0.087282
    42  C   -0.143260
    43  C    0.120731
    44  C   -0.369041
    45  H    0.090136
    46  H    0.093141
    47  H    0.102329
    48  H    0.086596
    49  H    0.099030
    50  H    0.100837
    51  H    0.096574
    52  H    0.132853
    53  H    0.086475
    54  H    0.120466
    55  H    0.080219
    56  H    0.087169
    57  H    0.128223
    58  H    0.111928
    59  H    0.087600
    60  H    0.288815
    61  H    0.081866
    62  H    0.119846
    63  H    0.122299
    64  H    0.099610
    65  H    0.077328
    66  H    0.104497
    67  H    0.094923
    68  H    0.058929
    69  H    0.063033
    70  H    0.127482
    71  H    0.117761
    72  H    0.073096
    73  H    0.114078
    74  H    0.106285
    75  H    0.104851
    76  H    0.108072
    77  H    0.091598
    78  H    0.109455
    79  H    0.101675
    80  H    0.120348
    81  H    0.087267
    82  H    0.306356
    83  H    0.303594
    84  H    0.108495
    85  H    0.134796
    86  H    0.129829
    87  H    0.101771
    88  H    0.060567
    89  H    0.108662
    90  H    0.135016
    91  H    0.126213
    92  H    0.056550
    93  H    0.078135
    94  H    0.070573
    95  H    0.075899
    96  H    0.081382
    97  H    0.080151
    98  H    0.113551
    99  H    0.126211
   100  H    0.132441
 Sum of Mulliken charges =  -0.00000

 Dipole moment (field-independent basis, Debye):
    X=              3.4100    Y=              0.3576    Z=              1.6580  Tot=              3.8085
 Quadrupole moment (field-independent basis, Debye-Ang):
   XX=           -268.2573   YY=           -263.8207   ZZ=           -278.7606
   XY=              7.1138   XZ=             28.1724   YZ=             -2.9369

 Normal termination of Gaussian 16 at Mon Jul 29 21:19:22 2019.
