 Gaussian 16, Revision A.03,
 Gaussian 16:  ES64L-G16RevA.03 25-Dec-2016

 -------------------------------------
 # td=(NStates=1) CAM-B3LYP/6-31G(d,p)
 -------------------------------------

 --
 TD
 --
 Symbolic Z-matrix:
 Charge =  0 Multiplicity = 1

                         Standard orientation:
 ---------------------------------------------------------------------
 Center     Atomic      Atomic             Coordinates (Angstroms)
 Number     Number       Type             X           Y           Z
 ---------------------------------------------------------------------
      1          8           0      -11.762429    0.449734   -1.494695
      2          8           0      -13.268208   -2.449850    1.160538
      3          8           0       10.633816   -1.136161   -2.024390
      4          8           0       14.665718   -0.890443    0.032014
      5          6           0      -11.009389   -0.049747   -0.270337
      6          6           0      -11.678828   -0.949246   -1.329132
      7          6           0      -11.783257    0.262400    0.920495
      8          6           0      -12.963440   -1.627256   -1.160839
      9          6           0      -13.316857   -0.035928    0.800424
     10          6           0      -13.689194   -1.454970    0.251184
     11          6           0      -10.816332   -1.560314   -2.346247
     12          6           0       -9.589927    0.120684   -0.313480
     13          6           0      -11.252679   -0.374492    2.262694
     14          6           0      -11.657266    1.836748    1.137738
     15          6           0       -8.741504   -0.763582    0.173992
     16          6           0       -7.242439   -0.555302    0.354799
     17          6           0       -6.395754   -1.776162    0.881496
     18          6           0       -6.688446    0.678619   -0.130077
     19          6           0       -5.273798    0.918363   -0.062763
     20          6           0       11.816648    0.129648    1.342746
     21          6           0       11.716003   -0.601393   -1.233088
     22          6           0       12.635466   -1.144993    1.574535
     23          6           0       13.481739   -1.689966    0.360111
     24          6           0       12.577670   -1.800650   -0.882984
     25          6           0       11.070141    0.012555   -0.019498
     26          6           0       10.868282    0.261497    2.505740
     27          6           0       12.941447    1.265262    1.328910
     28          6           0       12.563585    0.412589   -2.094390
     29          6           0       -4.702091    2.179736   -0.285374
     30          6           0        9.903742    0.515899   -0.155463
     31          6           0       -3.302872    2.442271   -0.358049
     32          6           0        8.653519    1.010439   -0.242316
     33          6           0       -2.928201    3.843267   -0.649505
     34          6           0       -2.247138    1.528572   -0.249765
     35          6           0        7.500948    0.159930   -0.147452
     36          6           0        7.700002   -1.353806    0.069932
     37          6           0        6.180913    0.755894   -0.065664
     38          6           0       -0.908234    1.685795   -0.169400
     39          6           0        4.905214    0.061088   -0.158951
     40          6           0        0.103794    0.731092   -0.101965
     41          6           0        3.752287    0.731124   -0.229743
     42          6           0        1.426994    1.003350   -0.191546
     43          6           0        2.491432    0.180656   -0.147947
     44          6           0        2.304910   -1.178072    0.436737
     45          1           0      -12.975360   -2.744775   -1.318826
     46          1           0      -13.727716   -1.388114   -1.830430
     47          1           0      -13.686033    0.221965    1.799542
     48          1           0      -13.884447    0.524473    0.128441
     49          1           0      -14.957696   -1.597398    0.201616
     50          1           0      -10.527725   -2.484667   -1.902517
     51          1           0      -11.413469   -1.828964   -3.285883
     52          1           0       -9.806603   -1.203773   -2.796349
     53          1           0       -9.372722    1.108824   -0.974387
     54          1           0      -10.104733   -0.013155    2.422752
     55          1           0      -12.027900   -0.008958    3.088224
     56          1           0      -11.201965   -1.472687    2.224983
     57          1           0      -12.158231    2.255565    0.270620
     58          1           0      -12.420788    1.982657    2.223326
     59          1           0      -10.663752    2.235214    1.270503
     60          1           0      -12.193805   -2.382953    1.245899
     61          1           0       -9.156540   -1.721016    0.528767
     62          1           0       -6.157319   -2.333963    0.006027
     63          1           0       -5.294512   -1.375729    1.459283
     64          1           0       -7.020846   -2.378239    1.656425
     65          1           0       -7.338972    1.572335   -0.619847
     66          1           0       -4.741822   -0.004095    0.177301
     67          1           0       13.434944   -0.805623    2.449369
     68          1           0       11.931191   -2.030961    1.902608
     69          1           0       14.064404   -2.732168    0.467533
     70          1           0       13.201955   -2.192775   -1.815806
     71          1           0       11.865779   -2.651625   -0.798583
     72          1           0       11.524104    0.372770    3.372841
     73          1           0       10.299980    1.177772    2.202499
     74          1           0       10.353441   -0.575538    2.786950
     75          1           0       13.690299    1.034672    0.472759
     76          1           0       12.598021    2.229228    1.253037
     77          1           0       13.285231    1.261654    2.299745
     78          1           0       12.802895   -0.175411   -2.960759
     79          1           0       11.851683    1.206675   -2.575824
     80          1           0       13.395786    0.685651   -1.709074
     81          1           0       -5.308325    3.051345   -0.611257
     82          1           0       10.404098   -0.260572   -2.381793
     83          1           0       15.078127   -0.945884    0.907785
     84          1           0        8.462960    2.010522   -0.616017
     85          1           0       -2.561121    4.200817    0.459727
     86          1           0       -1.913562    3.785821   -1.414208
     87          1           0       -3.778660    4.513672   -0.953040
     88          1           0       -2.484800    0.301868   -0.128525
     89          1           0        6.671309   -1.968172   -0.197845
     90          1           0        8.706564   -1.622414   -0.414533
     91          1           0        7.811484   -1.560192    1.169412
     92          1           0        6.093949    1.914405   -0.051083
     93          1           0       -0.435869    2.614848    0.021590
     94          1           0        5.038771   -1.169089   -0.160607
     95          1           0       -0.163147   -0.301736   -0.074068
     96          1           0        3.902852    1.917467   -0.148032
     97          1           0        1.645388    2.035527   -0.200614
     98          1           0        1.351180   -1.591814    0.493298
     99          1           0        2.624268   -2.118574   -0.315423
    100          1           0        2.794058   -1.230541    1.471371
 ---------------------------------------------------------------------

 SCF Done:  E(RCAM-B3LYP) =  -1857.26417968     A.U. after   16 cycles

 Excitation energies and oscillator strengths:

 Excited State   1:      Singlet-A      2.0157 eV  615.10 nm  f=3.0461  <S**2>=0.000
     163 ->166         0.12935
     164 ->165         0.69752
     164 <-165        -0.10215
 This state for optimization and/or second-order correction.
 Total Energy, E(TD-HF/TD-DFT) =  -1857.19010554
 Copying the excited state density for this state as the 1-particle RhoCI density.

 The electronic state is 1-A.
 Alpha  occ. eigenvalues --  -19.22292 -19.21922 -19.21443 -19.21224 -10.33077
 Alpha  occ. eigenvalues --  -10.32618 -10.32549 -10.32061 -10.31716 -10.29912
 Alpha  occ. eigenvalues --  -10.29705 -10.28734 -10.28620 -10.28396 -10.28230
 Alpha  occ. eigenvalues --  -10.28213 -10.28173 -10.28089 -10.27830 -10.27586
 Alpha  occ. eigenvalues --  -10.27543 -10.27342 -10.27259 -10.27212 -10.27111
 Alpha  occ. eigenvalues --  -10.27071 -10.26845 -10.26823 -10.26738 -10.26672
 Alpha  occ. eigenvalues --  -10.26572 -10.26560 -10.26532 -10.26382 -10.26085
 Alpha  occ. eigenvalues --  -10.25570 -10.25563 -10.25454 -10.25399 -10.24860
 Alpha  occ. eigenvalues --  -10.24568 -10.24515 -10.24348 -10.24124  -1.13467
 Alpha  occ. eigenvalues --   -1.11022  -1.09915  -1.07583  -0.93366  -0.92999
 Alpha  occ. eigenvalues --   -0.91873  -0.91299  -0.89827  -0.89446  -0.87747
 Alpha  occ. eigenvalues --   -0.86788  -0.86583  -0.85909  -0.84789  -0.83024
 Alpha  occ. eigenvalues --   -0.81762  -0.80543  -0.80264  -0.78474  -0.77401
 Alpha  occ. eigenvalues --   -0.76981  -0.76157  -0.75745  -0.75622  -0.75242
 Alpha  occ. eigenvalues --   -0.75081  -0.74255  -0.72494  -0.70014  -0.69455
 Alpha  occ. eigenvalues --   -0.67861  -0.66532  -0.64942  -0.64665  -0.63914
 Alpha  occ. eigenvalues --   -0.63628  -0.61900  -0.60999  -0.59378  -0.58673
 Alpha  occ. eigenvalues --   -0.58404  -0.57755  -0.56803  -0.56759  -0.56609
 Alpha  occ. eigenvalues --   -0.55793  -0.55676  -0.55434  -0.54677  -0.54410
 Alpha  occ. eigenvalues --   -0.53258  -0.52907  -0.52579  -0.52453  -0.52197
 Alpha  occ. eigenvalues --   -0.50982  -0.50709  -0.50443  -0.50171  -0.49682
 Alpha  occ. eigenvalues --   -0.49520  -0.49392  -0.49083  -0.48783  -0.48562
 Alpha  occ. eigenvalues --   -0.48195  -0.47365  -0.47075  -0.46622  -0.46442
 Alpha  occ. eigenvalues --   -0.46256  -0.45820  -0.45593  -0.45307  -0.45000
 Alpha  occ. eigenvalues --   -0.44729  -0.44262  -0.44135  -0.43976  -0.43739
 Alpha  occ. eigenvalues --   -0.43334  -0.43299  -0.42808  -0.42579  -0.42094
 Alpha  occ. eigenvalues --   -0.42038  -0.41973  -0.41669  -0.41615  -0.41246
 Alpha  occ. eigenvalues --   -0.41059  -0.40553  -0.40403  -0.40118  -0.39929
 Alpha  occ. eigenvalues --   -0.39755  -0.39533  -0.39395  -0.39244  -0.38863
 Alpha  occ. eigenvalues --   -0.38828  -0.38410  -0.37899  -0.37444  -0.37416
 Alpha  occ. eigenvalues --   -0.37058  -0.35967  -0.35377  -0.34729  -0.33520
 Alpha  occ. eigenvalues --   -0.32933  -0.32422  -0.32078  -0.31566  -0.30428
 Alpha  occ. eigenvalues --   -0.29985  -0.27488  -0.24195  -0.19077
 Alpha virt. eigenvalues --   -0.06445  -0.00976   0.02471   0.06704   0.06844
 Alpha virt. eigenvalues --    0.08589   0.09546   0.09685   0.10302   0.10884
 Alpha virt. eigenvalues --    0.11127   0.11467   0.12410   0.13043   0.13407

 Mulliken charges:
               1
     1  O   -0.525618
     2  O   -0.544483
     3  O   -0.539205
     4  O   -0.542038
     5  C    0.170899
     6  C    0.301841
     7  C   -0.021153
     8  C   -0.232224
     9  C   -0.156800
    10  C    0.134915
    11  C   -0.345247
    12  C   -0.076635
    13  C   -0.280928
    14  C   -0.280716
    15  C   -0.094515
    16  C    0.036817
    17  C   -0.354032
    18  C   -0.095870
    19  C   -0.059020
    20  C   -0.004819
    21  C    0.192176
    22  C   -0.184014
    23  C    0.134661
    24  C   -0.199322
    25  C   -0.016683
    26  C   -0.290434
    27  C   -0.318202
    28  C   -0.306420
    29  C   -0.132721
    30  C    0.124598
    31  C    0.109678
    32  C   -0.264368
    33  C   -0.359652
    34  C   -0.114661
    35  C    0.100436
    36  C   -0.367630
    37  C   -0.129375
    38  C   -0.079280
    39  C   -0.064729
    40  C   -0.074948
    41  C   -0.131231
    42  C   -0.103761
    43  C    0.125662
    44  C   -0.359828
    45  H    0.112922
    46  H    0.128209
    47  H    0.090500
    48  H    0.114190
    49  H    0.071991
    50  H    0.104822
    51  H    0.102915
    52  H    0.118694
    53  H    0.115879
    54  H    0.100210
    55  H    0.107913
    56  H    0.073913
    57  H    0.133864
    58  H    0.045685
    59  H    0.113461
    60  H    0.299273
    61  H    0.081372
    62  H    0.151259
    63  H    0.094019
    64  H    0.115128
    65  H    0.087392
    66  H    0.089657
    67  H    0.059685
    68  H    0.096068
    69  H    0.079856
    70  H    0.100581
    71  H    0.123893
    72  H    0.089632
    73  H    0.115157
    74  H    0.115355
    75  H    0.135574
    76  H    0.104394
    77  H    0.100191
    78  H    0.124495
    79  H    0.079357
    80  H    0.139121
    81  H    0.085791
    82  H    0.307743
    83  H    0.308390
    84  H    0.111351
    85  H    0.108640
    86  H    0.104860
    87  H    0.110929
    88  H    0.051796
    89  H    0.089608
    90  H    0.140139
    91  H    0.121365
    92  H    0.069454
    93  H    0.077341
    94  H    0.078575
    95  H    0.068076
    96  H    0.079548
    97  H    0.069321
    98  H    0.119213
    99  H    0.072462
   100  H    0.127652
 Sum of Mulliken charges =  -0.00000

 Dipole moment (field-independent basis, Debye):
    X=              3.7310    Y=             -0.2431    Z=              1.7686  Tot=              4.1361
 Quadrupole moment (field-independent basis, Debye-Ang):
   XX=           -276.8172   YY=           -264.4431   ZZ=           -275.0469
   XY=              1.9385   XZ=             27.5848   YZ=             -2.5308

 Normal termination of Gaussian 16 at Mon Jul 29 01:40:46 2019.
