 Gaussian 16, Revision A.03,
 Gaussian 16:  ES64L-G16RevA.03 25-Dec-2016

 -------------------------------------
 # td=(NStates=1) CAM-B3LYP/6-31G(d,p)
 -------------------------------------

 --
 TD
 --
 Symbolic Z-matrix:
 Charge =  0 Multiplicity = 1

                         Standard orientation:
 ---------------------------------------------------------------------
 Center     Atomic      Atomic             Coordinates (Angstroms)
 Number     Number       Type             X           Y           Z
 ---------------------------------------------------------------------
      1          8           0      -11.697783    0.211489   -1.556234
      2          8           0      -13.010085   -2.444127    1.527369
      3          8           0       10.583436   -0.912399   -2.228612
      4          8           0       14.521825   -1.033748   -0.226966
      5          6           0      -11.055559   -0.182560   -0.408203
      6          6           0      -11.737963   -1.218239   -1.166995
      7          6           0      -11.727147    0.402663    0.932485
      8          6           0      -13.077265   -1.769567   -0.897824
      9          6           0      -13.202043   -0.045607    0.856328
     10          6           0      -13.473132   -1.472863    0.635603
     11          6           0      -10.914622   -1.992047   -2.214006
     12          6           0       -9.538037    0.070724   -0.415284
     13          6           0      -11.042651    0.004582    2.178900
     14          6           0      -11.724275    1.930652    0.778994
     15          6           0       -8.576488   -0.837325   -0.028697
     16          6           0       -7.182118   -0.601367    0.036827
     17          6           0       -6.407403   -1.792708    0.459010
     18          6           0       -6.552252    0.603918   -0.291701
     19          6           0       -5.199802    0.827919   -0.244482
     20          6           0       11.939278   -0.066340    1.331692
     21          6           0       11.652755   -0.582512   -1.256878
     22          6           0       12.720436   -1.355668    1.446227
     23          6           0       13.446924   -1.805810    0.229202
     24          6           0       12.547892   -1.772346   -1.093559
     25          6           0       11.105904   -0.000068    0.011709
     26          6           0       11.035724   -0.007812    2.634194
     27          6           0       12.875382    1.174955    1.382944
     28          6           0       12.551987    0.490987   -2.096827
     29          6           0       -4.760927    2.142702   -0.447018
     30          6           0        9.869270    0.350738   -0.128916
     31          6           0       -3.414735    2.482457   -0.420070
     32          6           0        8.667957    0.989908   -0.130377
     33          6           0       -3.039981    3.992941   -0.624408
     34          6           0       -2.334332    1.693322   -0.240666
     35          6           0        7.412612    0.240955    0.155494
     36          6           0        7.572295   -1.301978    0.281726
     37          6           0        6.196188    0.827598    0.021724
     38          6           0       -1.014320    1.858491   -0.231524
     39          6           0        4.942287    0.243193    0.133397
     40          6           0       -0.008611    0.850653    0.052417
     41          6           0        3.724950    0.884208    0.106106
     42          6           0        1.388282    1.198086    0.088543
     43          6           0        2.425722    0.404415    0.098727
     44          6           0        2.341832   -1.099378    0.306155
     45          1           0      -13.159012   -2.970162   -1.311639
     46          1           0      -13.943027   -1.407922   -1.578263
     47          1           0      -13.697612    0.306921    1.816815
     48          1           0      -13.496359    0.551774    0.130403
     49          1           0      -14.351187   -1.555978    0.969944
     50          1           0      -10.841966   -3.087142   -1.842641
     51          1           0      -11.470525   -1.870687   -3.315762
     52          1           0       -9.863784   -1.480521   -2.305940
     53          1           0       -9.443961    1.125868   -0.491844
     54          1           0      -10.105077    0.559366    2.593760
     55          1           0      -11.827399    0.031594    2.984627
     56          1           0      -10.857692   -1.206686    2.245763
     57          1           0      -12.151913    1.961987   -0.249147
     58          1           0      -12.294357    2.436976    1.527967
     59          1           0      -10.758099    2.390881    0.733099
     60          1           0      -11.982168   -2.407623    1.413075
     61          1           0       -8.882350   -1.844820    0.250023
     62          1           0       -6.219179   -2.574299   -0.288738
     63          1           0       -5.505988   -1.456851    1.070570
     64          1           0       -7.198931   -2.433045    0.968226
     65          1           0       -7.117933    1.598876   -0.337153
     66          1           0       -4.653356   -0.062679   -0.068573
     67          1           0       13.463273   -1.349833    2.129126
     68          1           0       11.867640   -2.160580    1.529627
     69          1           0       13.697425   -2.798710    0.103559
     70          1           0       13.164699   -1.827952   -2.032469
     71          1           0       11.650102   -2.476749   -0.872325
     72          1           0       11.834351   -0.031180    3.386017
     73          1           0       10.627651    1.014532    2.532657
     74          1           0       10.308137   -0.577495    2.594762
     75          1           0       13.506792    0.952271    0.626233
     76          1           0       12.187054    2.212998    1.312309
     77          1           0       13.337999    1.165302    2.337182
     78          1           0       12.568587   -0.109328   -2.960202
     79          1           0       12.024370    1.291857   -2.363249
     80          1           0       13.543270    0.712889   -1.483326
     81          1           0       -5.442930    2.994591   -0.622085
     82          1           0        9.999355    0.006954   -1.970627
     83          1           0       15.095242   -1.103649    0.652389
     84          1           0        8.372309    2.020255   -0.358733
     85          1           0       -2.505247    4.509067    0.384908
     86          1           0       -2.396432    3.827298   -1.503344
     87          1           0       -3.959254    4.829717   -1.047696
     88          1           0       -2.636221    0.727871   -0.066985
     89          1           0        6.782417   -1.838333    0.242743
     90          1           0        8.341882   -1.651835   -0.454915
     91          1           0        7.868088   -1.412682    1.229972
     92          1           0        6.194499    2.012805   -0.201822
     93          1           0       -0.553618    2.791735   -0.282787
     94          1           0        5.089825   -0.827904    0.138272
     95          1           0       -0.483905   -0.133988    0.326668
     96          1           0        3.868888    2.047019   -0.214811
     97          1           0        1.501936    2.233912   -0.094413
     98          1           0        1.408125   -1.543676    0.526655
     99          1           0        2.734996   -1.671254   -0.617234
    100          1           0        2.977332   -1.582715    1.129114
 ---------------------------------------------------------------------

 SCF Done:  E(RCAM-B3LYP) =  -1857.19653298     A.U. after   15 cycles

 Excitation energies and oscillator strengths:

 Excited State   1:      Singlet-A      2.0319 eV  610.20 nm  f=3.1197  <S**2>=0.000
     163 ->166        -0.12819
     164 ->165         0.69961
     164 <-165        -0.10712
 This state for optimization and/or second-order correction.
 Total Energy, E(TD-HF/TD-DFT) =  -1857.12186305
 Copying the excited state density for this state as the 1-particle RhoCI density.

 The electronic state is 1-A.
 Alpha  occ. eigenvalues --  -19.23636 -19.22614 -19.22273 -19.20647 -10.32534
 Alpha  occ. eigenvalues --  -10.32490 -10.30597 -10.30279 -10.29292 -10.28908
 Alpha  occ. eigenvalues --  -10.28876 -10.28647 -10.28557 -10.27925 -10.27782
 Alpha  occ. eigenvalues --  -10.27753 -10.27721 -10.27697 -10.27534 -10.27517
 Alpha  occ. eigenvalues --  -10.27482 -10.27255 -10.27197 -10.27152 -10.27124
 Alpha  occ. eigenvalues --  -10.27058 -10.26972 -10.26856 -10.26781 -10.26715
 Alpha  occ. eigenvalues --  -10.26713 -10.26462 -10.26091 -10.26065 -10.25999
 Alpha  occ. eigenvalues --  -10.25980 -10.25301 -10.25107 -10.24296 -10.24250
 Alpha  occ. eigenvalues --  -10.24191 -10.23807 -10.23223 -10.22606  -1.16823
 Alpha  occ. eigenvalues --   -1.11279  -1.10144  -1.05800  -0.93504  -0.93343
 Alpha  occ. eigenvalues --   -0.92670  -0.91964  -0.91499  -0.90775  -0.87867
 Alpha  occ. eigenvalues --   -0.86843  -0.86560  -0.85447  -0.84882  -0.83584
 Alpha  occ. eigenvalues --   -0.82536  -0.81196  -0.80854  -0.78817  -0.78229
 Alpha  occ. eigenvalues --   -0.77710  -0.76678  -0.76279  -0.75672  -0.75607
 Alpha  occ. eigenvalues --   -0.75326  -0.74195  -0.73727  -0.71793  -0.70365
 Alpha  occ. eigenvalues --   -0.68949  -0.67902  -0.66685  -0.65280  -0.64480
 Alpha  occ. eigenvalues --   -0.63922  -0.61981  -0.61303  -0.60309  -0.59471
 Alpha  occ. eigenvalues --   -0.59296  -0.58241  -0.58004  -0.57254  -0.57008
 Alpha  occ. eigenvalues --   -0.56630  -0.56141  -0.55822  -0.55564  -0.54985
 Alpha  occ. eigenvalues --   -0.54487  -0.52983  -0.52837  -0.52483  -0.52008
 Alpha  occ. eigenvalues --   -0.51853  -0.51334  -0.51054  -0.50869  -0.50231
 Alpha  occ. eigenvalues --   -0.49412  -0.49277  -0.49184  -0.48740  -0.48407
 Alpha  occ. eigenvalues --   -0.48380  -0.48146  -0.47598  -0.47271  -0.47174
 Alpha  occ. eigenvalues --   -0.47042  -0.46676  -0.46061  -0.45709  -0.45452
 Alpha  occ. eigenvalues --   -0.45231  -0.44699  -0.44573  -0.44335  -0.44131
 Alpha  occ. eigenvalues --   -0.43923  -0.43626  -0.43372  -0.43307  -0.43006
 Alpha  occ. eigenvalues --   -0.42616  -0.42260  -0.41891  -0.41734  -0.41227
 Alpha  occ. eigenvalues --   -0.40952  -0.40632  -0.40551  -0.40405  -0.40268
 Alpha  occ. eigenvalues --   -0.40091  -0.39460  -0.39261  -0.38929  -0.38454
 Alpha  occ. eigenvalues --   -0.38445  -0.38195  -0.37971  -0.37713  -0.37289
 Alpha  occ. eigenvalues --   -0.36619  -0.36005  -0.35744  -0.35364  -0.34338
 Alpha  occ. eigenvalues --   -0.33297  -0.32379  -0.31772  -0.31591  -0.31321
 Alpha  occ. eigenvalues --   -0.29594  -0.28327  -0.24513  -0.19523
 Alpha virt. eigenvalues --   -0.06849  -0.01496   0.02543   0.05516   0.06570
 Alpha virt. eigenvalues --    0.08333   0.08461   0.09295   0.10583   0.12131
 Alpha virt. eigenvalues --    0.12459   0.12750   0.12973   0.13090   0.13354

 Mulliken charges:
               1
     1  O   -0.494995
     2  O   -0.549147
     3  O   -0.578280
     4  O   -0.520584
     5  C    0.206035
     6  C    0.220098
     7  C    0.010860
     8  C   -0.231802
     9  C   -0.201788
    10  C    0.207875
    11  C   -0.310979
    12  C   -0.095060
    13  C   -0.292737
    14  C   -0.323969
    15  C   -0.087174
    16  C    0.091616
    17  C   -0.385994
    18  C   -0.094720
    19  C   -0.054638
    20  C   -0.041018
    21  C    0.182079
    22  C   -0.170814
    23  C    0.124178
    24  C   -0.197411
    25  C    0.039103
    26  C   -0.260776
    27  C   -0.285409
    28  C   -0.299064
    29  C   -0.141950
    30  C    0.008403
    31  C    0.091799
    32  C   -0.211559
    33  C   -0.351448
    34  C   -0.091981
    35  C    0.065402
    36  C   -0.357251
    37  C   -0.104654
    38  C   -0.078496
    39  C   -0.070152
    40  C   -0.095939
    41  C   -0.141651
    42  C   -0.142363
    43  C    0.177358
    44  C   -0.382755
    45  H    0.083124
    46  H    0.124639
    47  H    0.087679
    48  H    0.125990
    49  H    0.090622
    50  H    0.093303
    51  H    0.100862
    52  H    0.119678
    53  H    0.104619
    54  H    0.107853
    55  H    0.110888
    56  H    0.045697
    57  H    0.128961
    58  H    0.107726
    59  H    0.098972
    60  H    0.293761
    61  H    0.078666
    62  H    0.132821
    63  H    0.118470
    64  H    0.104485
    65  H    0.077430
    66  H    0.098506
    67  H    0.088405
    68  H    0.106914
    69  H    0.105152
    70  H    0.118149
    71  H    0.090806
    72  H    0.097601
    73  H    0.101624
    74  H    0.107158
    75  H    0.128212
    76  H    0.086298
    77  H    0.096364
    78  H    0.123931
    79  H    0.090786
    80  H    0.111546
    81  H    0.099650
    82  H    0.302138
    83  H    0.296248
    84  H    0.115201
    85  H    0.104227
    86  H    0.135356
    87  H    0.063766
    88  H    0.058871
    89  H    0.107925
    90  H    0.136662
    91  H    0.129541
    92  H    0.056712
    93  H    0.077099
    94  H    0.081188
    95  H    0.082837
    96  H    0.064344
    97  H    0.086263
    98  H    0.112789
    99  H    0.111488
   100  H    0.111751
 Sum of Mulliken charges =  -0.00000

 Dipole moment (field-independent basis, Debye):
    X=              0.9173    Y=             -0.4366    Z=              3.6779  Tot=              3.8157
 Quadrupole moment (field-independent basis, Debye-Ang):
   XX=           -262.0449   YY=           -262.5150   ZZ=           -283.0646
   XY=             -7.9261   XZ=             42.6779   YZ=             -2.1362

 Normal termination of Gaussian 16 at Sun Jul 28 23:15:43 2019.
