 Gaussian 16, Revision A.03,
 Gaussian 16:  ES64L-G16RevA.03 25-Dec-2016

 -------------------------------------
 # td=(NStates=1) CAM-B3LYP/6-31G(d,p)
 -------------------------------------

 --
 TD
 --
 Symbolic Z-matrix:
 Charge =  0 Multiplicity = 1

                         Standard orientation:
 ---------------------------------------------------------------------
 Center     Atomic      Atomic             Coordinates (Angstroms)
 Number     Number       Type             X           Y           Z
 ---------------------------------------------------------------------
      1          8           0      -11.703974    0.143714   -1.561075
      2          8           0      -12.816892   -2.546339    1.503913
      3          8           0       10.426285   -1.134255   -2.035183
      4          8           0       14.422946   -1.089970   -0.077382
      5          6           0      -11.004342   -0.087176   -0.329991
      6          6           0      -11.611531   -1.092447   -1.200166
      7          6           0      -11.689666    0.457859    0.958012
      8          6           0      -12.955690   -1.831743   -0.783892
      9          6           0      -13.199423   -0.209895    1.032513
     10          6           0      -13.353540   -1.743568    0.651363
     11          6           0      -10.870819   -1.986150   -2.277908
     12          6           0       -9.584147    0.083441   -0.380175
     13          6           0      -10.918512   -0.086027    2.195046
     14          6           0      -11.711720    1.940937    0.937988
     15          6           0       -8.648510   -0.761039   -0.075663
     16          6           0       -7.215299   -0.610697    0.074241
     17          6           0       -6.364749   -1.761073    0.410708
     18          6           0       -6.624351    0.619076   -0.116033
     19          6           0       -5.265409    0.923269   -0.054913
     20          6           0       11.943716   -0.027901    1.413213
     21          6           0       11.576281   -0.661830   -1.214943
     22          6           0       12.621657   -1.298489    1.414778
     23          6           0       13.261312   -1.913051    0.267149
     24          6           0       12.304213   -1.950281   -0.930738
     25          6           0       11.082349   -0.042564    0.101107
     26          6           0       10.930039    0.138898    2.541336
     27          6           0       12.951807    1.262565    1.446721
     28          6           0       12.440724    0.326595   -1.972845
     29          6           0       -4.756656    2.176302   -0.242999
     30          6           0        9.942630    0.570115    0.081086
     31          6           0       -3.403999    2.672139   -0.355650
     32          6           0        8.763858    1.048855   -0.230400
     33          6           0       -3.153953    4.085025   -0.684522
     34          6           0       -2.315528    1.742231   -0.224063
     35          6           0        7.483211    0.234631   -0.020042
     36          6           0        7.667957   -1.249341    0.181288
     37          6           0        6.238457    0.867015   -0.060832
     38          6           0       -0.964587    1.928548   -0.425662
     39          6           0        5.000221    0.162111   -0.131873
     40          6           0        0.011196    0.962628   -0.215791
     41          6           0        3.816239    0.871859   -0.189366
     42          6           0        1.355446    1.281611   -0.286107
     43          6           0        2.455442    0.447335   -0.140684
     44          6           0        2.280362   -1.015926    0.081114
     45          1           0      -12.851579   -2.889650   -0.799323
     46          1           0      -13.693329   -1.617331   -1.410393
     47          1           0      -13.601317   -0.067477    1.869925
     48          1           0      -13.901003    0.404914    0.363853
     49          1           0      -14.470933   -1.817775    0.631875
     50          1           0      -10.663178   -2.950862   -1.877486
     51          1           0      -11.525239   -2.000252   -2.996712
     52          1           0       -9.938635   -1.466979   -2.658158
     53          1           0       -9.336497    1.104026   -0.844540
     54          1           0       -9.862014    0.108903    2.138804
     55          1           0      -11.320183    0.136708    3.175815
     56          1           0      -10.665258   -1.085502    2.134565
     57          1           0      -12.496393    2.356566    0.071820
     58          1           0      -12.149472    2.368324    1.978701
     59          1           0      -10.633339    2.399269    0.787113
     60          1           0      -11.914048   -2.936245    1.057059
     61          1           0       -8.914917   -1.879313    0.114543
     62          1           0       -5.855346   -1.947130   -0.614782
     63          1           0       -5.792477   -1.693471    1.326667
     64          1           0       -7.066721   -2.486286    0.658157
     65          1           0       -7.143869    1.472243   -0.328612
     66          1           0       -4.504114    0.189638    0.217061
     67          1           0       13.244067   -1.223585    2.275180
     68          1           0       11.977192   -2.170554    1.868304
     69          1           0       13.537283   -2.908275    0.520915
     70          1           0       12.802997   -2.439471   -1.702201
     71          1           0       11.595100   -2.564378   -0.586924
     72          1           0       11.392232    0.204493    3.461507
     73          1           0       10.216308    0.933460    2.475912
     74          1           0       10.184162   -0.705100    2.539444
     75          1           0       13.840785    1.034046    0.658936
     76          1           0       12.575962    2.263714    1.330589
     77          1           0       13.450082    1.256663    2.489271
     78          1           0       12.714997   -0.032690   -3.097556
     79          1           0       12.138477    1.335768   -2.094781
     80          1           0       13.480521    0.475808   -1.386338
     81          1           0       -5.549291    2.918229   -0.305190
     82          1           0       10.148458   -0.117791   -2.518828
     83          1           0       15.198530   -1.453364    0.584705
     84          1           0        8.432979    2.110130   -0.553264
     85          1           0       -2.635616    4.463812    0.090166
     86          1           0       -2.503046    4.364072   -1.613206
     87          1           0       -4.265788    4.630511   -0.638830
     88          1           0       -2.796027    0.762100    0.243530
     89          1           0        6.756416   -1.848800    0.035815
     90          1           0        8.555803   -1.465259   -0.371908
     91          1           0        7.990074   -1.369113    1.296750
     92          1           0        6.002053    1.798832   -0.183125
     93          1           0       -0.727104    3.053141   -0.463625
     94          1           0        5.139089   -0.903825    0.044151
     95          1           0       -0.378599    0.084308    0.179114
     96          1           0        3.830611    2.047824   -0.396366
     97          1           0        1.601312    2.471118   -0.244812
     98          1           0        1.214736   -1.420373    0.184123
     99          1           0        2.885550   -1.833423   -0.356259
    100          1           0        2.534516   -1.282618    1.142237
 ---------------------------------------------------------------------

 SCF Done:  E(RCAM-B3LYP) =  -1857.26965562     A.U. after   15 cycles

 Excitation energies and oscillator strengths:

 Excited State   1:      Singlet-A      2.1210 eV  584.56 nm  f=2.9798  <S**2>=0.000
     163 ->166        -0.13205
     164 ->165         0.69669
 This state for optimization and/or second-order correction.
 Total Energy, E(TD-HF/TD-DFT) =  -1857.19171069
 Copying the excited state density for this state as the 1-particle RhoCI density.

 The electronic state is 1-A.
 Alpha  occ. eigenvalues --  -19.23097 -19.22979 -19.22798 -19.22421 -10.32659
 Alpha  occ. eigenvalues --  -10.31579 -10.31067 -10.30986 -10.29678 -10.28758
 Alpha  occ. eigenvalues --  -10.28178 -10.27766 -10.27736 -10.27732 -10.27709
 Alpha  occ. eigenvalues --  -10.27102 -10.27084 -10.27007 -10.26934 -10.26791
 Alpha  occ. eigenvalues --  -10.26765 -10.26747 -10.26662 -10.26481 -10.26404
 Alpha  occ. eigenvalues --  -10.26395 -10.26355 -10.26227 -10.26177 -10.26122
 Alpha  occ. eigenvalues --  -10.25754 -10.25754 -10.25556 -10.25422 -10.25292
 Alpha  occ. eigenvalues --  -10.25189 -10.24755 -10.24372 -10.24038 -10.23999
 Alpha  occ. eigenvalues --  -10.23634 -10.23532 -10.22884 -10.22821  -1.20206
 Alpha  occ. eigenvalues --   -1.13508  -1.08141  -1.06112  -0.93733  -0.92568
 Alpha  occ. eigenvalues --   -0.91767  -0.90876  -0.89984  -0.89387  -0.87590
 Alpha  occ. eigenvalues --   -0.86833  -0.86360  -0.85854  -0.85001  -0.83517
 Alpha  occ. eigenvalues --   -0.82820  -0.80407  -0.80198  -0.78361  -0.77670
 Alpha  occ. eigenvalues --   -0.76846  -0.76341  -0.76241  -0.75856  -0.75559
 Alpha  occ. eigenvalues --   -0.75263  -0.74569  -0.72633  -0.70466  -0.69587
 Alpha  occ. eigenvalues --   -0.68479  -0.66653  -0.65262  -0.65175  -0.64247
 Alpha  occ. eigenvalues --   -0.63538  -0.62363  -0.61411  -0.61023  -0.60363
 Alpha  occ. eigenvalues --   -0.59726  -0.58092  -0.57333  -0.56850  -0.56628
 Alpha  occ. eigenvalues --   -0.55712  -0.55284  -0.55062  -0.54894  -0.54558
 Alpha  occ. eigenvalues --   -0.54411  -0.53973  -0.52990  -0.52668  -0.52031
 Alpha  occ. eigenvalues --   -0.51419  -0.51172  -0.50296  -0.49949  -0.49623
 Alpha  occ. eigenvalues --   -0.49383  -0.48992  -0.48578  -0.48380  -0.48303
 Alpha  occ. eigenvalues --   -0.48035  -0.47523  -0.47252  -0.46741  -0.46482
 Alpha  occ. eigenvalues --   -0.46468  -0.46230  -0.46079  -0.45745  -0.45479
 Alpha  occ. eigenvalues --   -0.45313  -0.44616  -0.44237  -0.44101  -0.43991
 Alpha  occ. eigenvalues --   -0.43665  -0.43537  -0.43238  -0.42911  -0.42474
 Alpha  occ. eigenvalues --   -0.42169  -0.41984  -0.41846  -0.41691  -0.41471
 Alpha  occ. eigenvalues --   -0.41302  -0.41026  -0.40970  -0.40737  -0.39533
 Alpha  occ. eigenvalues --   -0.39266  -0.38979  -0.38701  -0.38609  -0.38496
 Alpha  occ. eigenvalues --   -0.38292  -0.38105  -0.37595  -0.37210  -0.37103
 Alpha  occ. eigenvalues --   -0.36607  -0.35465  -0.34385  -0.33849  -0.33578
 Alpha  occ. eigenvalues --   -0.33207  -0.32785  -0.31737  -0.31369  -0.29861
 Alpha  occ. eigenvalues --   -0.29436  -0.27765  -0.24122  -0.19294
 Alpha virt. eigenvalues --   -0.05985  -0.00459   0.03341   0.05890   0.07273
 Alpha virt. eigenvalues --    0.07788   0.07954   0.09381   0.10205   0.11829
 Alpha virt. eigenvalues --    0.12495   0.12976   0.13120   0.13644   0.14211

 Mulliken charges:
               1
     1  O   -0.460638
     2  O   -0.499216
     3  O   -0.558404
     4  O   -0.551175
     5  C    0.183624
     6  C    0.219322
     7  C    0.040040
     8  C   -0.231837
     9  C   -0.181429
    10  C    0.174780
    11  C   -0.316147
    12  C   -0.118074
    13  C   -0.310216
    14  C   -0.288277
    15  C   -0.056445
    16  C    0.051349
    17  C   -0.359846
    18  C   -0.090621
    19  C   -0.047864
    20  C    0.033826
    21  C    0.237142
    22  C   -0.161645
    23  C    0.113305
    24  C   -0.164735
    25  C   -0.033982
    26  C   -0.319468
    27  C   -0.312270
    28  C   -0.335266
    29  C   -0.140568
    30  C    0.143272
    31  C    0.098482
    32  C   -0.289173
    33  C   -0.377595
    34  C   -0.110859
    35  C    0.087209
    36  C   -0.375225
    37  C   -0.078108
    38  C   -0.090257
    39  C   -0.066963
    40  C   -0.062205
    41  C   -0.150733
    42  C   -0.149000
    43  C    0.162351
    44  C   -0.403371
    45  H    0.078935
    46  H    0.118113
    47  H    0.090124
    48  H    0.070048
    49  H    0.071157
    50  H    0.093088
    51  H    0.125542
    52  H    0.106104
    53  H    0.103248
    54  H    0.100272
    55  H    0.108579
    56  H    0.091148
    57  H    0.094773
    58  H    0.086455
    59  H    0.093913
    60  H    0.311793
    61  H    0.054606
    62  H    0.131986
    63  H    0.129907
    64  H    0.103077
    65  H    0.068909
    66  H    0.075073
    67  H    0.086139
    68  H    0.081262
    69  H    0.095402
    70  H    0.115512
    71  H    0.120917
    72  H    0.099250
    73  H    0.124635
    74  H    0.097495
    75  H    0.114736
    76  H    0.116503
    77  H    0.082682
    78  H    0.092370
    79  H    0.109899
    80  H    0.136892
    81  H    0.071007
    82  H    0.304933
    83  H    0.307695
    84  H    0.106144
    85  H    0.144277
    86  H    0.121821
    87  H    0.085575
    88  H    0.061998
    89  H    0.108531
    90  H    0.156438
    91  H    0.106058
    92  H    0.056501
    93  H    0.079280
    94  H    0.076556
    95  H    0.096440
    96  H    0.069052
    97  H    0.073249
    98  H    0.099199
    99  H    0.123912
   100  H    0.117699
 Sum of Mulliken charges =  -0.00000

 Dipole moment (field-independent basis, Debye):
    X=              5.7993    Y=             -1.5093    Z=              2.0926  Tot=              6.3474
 Quadrupole moment (field-independent basis, Debye-Ang):
   XX=           -242.1594   YY=           -254.5917   ZZ=           -277.5031
   XY=             -1.8805   XZ=             24.8280   YZ=             -3.9455

 Normal termination of Gaussian 16 at Mon Jul 29 17:28:41 2019.
