 Gaussian 16, Revision A.03,
 Gaussian 16:  ES64L-G16RevA.03 25-Dec-2016

 -------------------------------------
 # td=(NStates=1) CAM-B3LYP/6-31G(d,p)
 -------------------------------------

 --
 TD
 --
 Symbolic Z-matrix:
 Charge =  0 Multiplicity = 1

                         Standard orientation:
 ---------------------------------------------------------------------
 Center     Atomic      Atomic             Coordinates (Angstroms)
 Number     Number       Type             X           Y           Z
 ---------------------------------------------------------------------
      1          8           0      -11.715873    0.301280   -1.535440
      2          8           0      -13.064976   -2.566566    1.225031
      3          8           0       10.654832   -1.212692   -2.112247
      4          8           0       14.462966   -0.913527   -0.177141
      5          6           0      -11.022693   -0.120347   -0.376992
      6          6           0      -11.694565   -1.113685   -1.239743
      7          6           0      -11.728262    0.208947    0.992876
      8          6           0      -13.050999   -1.766218   -0.974199
      9          6           0      -13.226701   -0.049141    0.912149
     10          6           0      -13.623384   -1.514973    0.390335
     11          6           0      -10.866561   -1.821211   -2.179559
     12          6           0       -9.586650    0.117621   -0.288844
     13          6           0      -11.206209   -0.311788    2.213447
     14          6           0      -11.625717    1.712159    1.051089
     15          6           0       -8.629977   -0.766180    0.165404
     16          6           0       -7.202333   -0.541849    0.133716
     17          6           0       -6.374294   -1.761455    0.571634
     18          6           0       -6.563483    0.736593   -0.186266
     19          6           0       -5.209582    0.938288   -0.198122
     20          6           0       11.902982   -0.058084    1.378320
     21          6           0       11.595948   -0.608191   -1.292228
     22          6           0       12.821893   -1.318095    1.483180
     23          6           0       13.413814   -1.741342    0.240942
     24          6           0       12.465781   -1.876729   -0.936063
     25          6           0       11.079562   -0.129909   -0.040392
     26          6           0       10.903553    0.006597    2.589827
     27          6           0       12.755017    1.186913    1.334032
     28          6           0       12.387555    0.430749   -2.008136
     29          6           0       -4.665817    2.212683   -0.341337
     30          6           0        9.924315    0.497843    0.047522
     31          6           0       -3.336140    2.621807   -0.373029
     32          6           0        8.653897    0.987876   -0.105299
     33          6           0       -3.151802    4.113613   -0.568589
     34          6           0       -2.254212    1.675298   -0.261406
     35          6           0        7.534947    0.137836    0.019048
     36          6           0        7.655392   -1.299073    0.158357
     37          6           0        6.260850    0.795256    0.049838
     38          6           0       -0.829028    1.964749   -0.350275
     39          6           0        5.007017    0.208287    0.126614
     40          6           0        0.041154    1.034739   -0.058131
     41          6           0        3.782861    0.869742   -0.037843
     42          6           0        1.430998    1.348842   -0.141394
     43          6           0        2.432389    0.364697   -0.005702
     44          6           0        2.222707   -1.091880    0.277975
     45          1           0      -13.255976   -2.889563   -1.176190
     46          1           0      -13.693089   -1.302833   -1.819224
     47          1           0      -13.698871   -0.086004    1.925354
     48          1           0      -13.877262    0.610297    0.192827
     49          1           0      -14.661171   -1.616235    0.383995
     50          1           0      -10.449904   -2.804035   -1.866721
     51          1           0      -11.498138   -1.893314   -3.148351
     52          1           0       -9.877964   -1.479427   -2.474192
     53          1           0       -9.529609    1.141423   -0.897426
     54          1           0      -10.202223   -0.102384    2.342411
     55          1           0      -11.981196   -0.073423    3.071094
     56          1           0      -11.257105   -1.506973    2.463229
     57          1           0      -11.863679    2.156526    0.156877
     58          1           0      -12.044393    2.111200    2.020718
     59          1           0      -10.653508    2.134347    1.071672
     60          1           0      -12.250235   -2.750858    0.799870
     61          1           0       -8.900236   -1.699602    0.357452
     62          1           0       -5.873254   -2.205610   -0.296183
     63          1           0       -5.416958   -1.397547    1.172096
     64          1           0       -6.840625   -2.565107    1.043602
     65          1           0       -7.173411    1.448003   -0.389163
     66          1           0       -4.661857    0.044768   -0.102641
     67          1           0       13.696179   -1.334478    2.198926
     68          1           0       12.206694   -2.217415    1.635622
     69          1           0       13.800760   -2.872616    0.283719
     70          1           0       12.981966   -2.197743   -1.949714
     71          1           0       11.927819   -2.792752   -1.032554
     72          1           0       11.508987    0.001575    3.565255
     73          1           0       10.286825    0.894580    2.470858
     74          1           0       10.398061   -1.027728    2.680905
     75          1           0       13.694767    1.204592    0.846050
     76          1           0       12.362108    2.148085    0.974799
     77          1           0       13.166885    1.426609    2.360524
     78          1           0       12.695065    0.109313   -3.090969
     79          1           0       11.717006    1.329943   -2.121630
     80          1           0       13.438939    0.666655   -1.512256
     81          1           0       -5.418215    2.867973   -0.427506
     82          1           0       10.109871   -0.506275   -2.454324
     83          1           0       14.998352   -0.718347    0.563053
     84          1           0        8.536252    1.979689   -0.382819
     85          1           0       -2.377783    4.741659    0.044556
     86          1           0       -2.605081    4.209031   -1.429562
     87          1           0       -4.051051    4.786816   -0.667186
     88          1           0       -2.384680    0.546258   -0.120073
     89          1           0        6.712610   -1.840779   -0.243114
     90          1           0        8.341076   -1.696807   -0.700995
     91          1           0        7.907257   -1.650779    1.222096
     92          1           0        6.262700    1.807310   -0.469098
     93          1           0       -0.576998    3.061181   -0.404570
     94          1           0        4.752276   -0.787539    0.089256
     95          1           0       -0.260020    0.061359    0.192024
     96          1           0        3.834362    1.893472    0.019738
     97          1           0        1.772608    2.370739   -0.489142
     98          1           0        1.242251   -1.400160    0.204012
     99          1           0        3.069088   -1.589888   -0.315874
    100          1           0        2.672788   -1.301041    1.390728
 ---------------------------------------------------------------------

 SCF Done:  E(RCAM-B3LYP) =  -1857.33239377     A.U. after   15 cycles

 Excitation energies and oscillator strengths:

 Excited State   1:      Singlet-A      2.0336 eV  609.68 nm  f=3.0963  <S**2>=0.000
     163 ->166         0.15215
     164 ->165         0.69150
 This state for optimization and/or second-order correction.
 Total Energy, E(TD-HF/TD-DFT) =  -1857.25766107
 Copying the excited state density for this state as the 1-particle RhoCI density.

 The electronic state is 1-A.
 Alpha  occ. eigenvalues --  -19.22948 -19.21527 -19.21413 -19.20541 -10.32073
 Alpha  occ. eigenvalues --  -10.31699 -10.31236 -10.31088 -10.30057 -10.29609
 Alpha  occ. eigenvalues --  -10.28349 -10.28284 -10.27762 -10.27651 -10.27559
 Alpha  occ. eigenvalues --  -10.27455 -10.27249 -10.27148 -10.26976 -10.26866
 Alpha  occ. eigenvalues --  -10.26831 -10.26788 -10.26743 -10.26412 -10.26359
 Alpha  occ. eigenvalues --  -10.26307 -10.26281 -10.26255 -10.26204 -10.26148
 Alpha  occ. eigenvalues --  -10.26121 -10.25779 -10.25576 -10.25501 -10.25487
 Alpha  occ. eigenvalues --  -10.25357 -10.25303 -10.25231 -10.25101 -10.25068
 Alpha  occ. eigenvalues --  -10.24755 -10.24631 -10.24365 -10.22690  -1.16232
 Alpha  occ. eigenvalues --   -1.11973  -1.11504  -1.09418  -0.92973  -0.92352
 Alpha  occ. eigenvalues --   -0.92105  -0.91564  -0.90886  -0.89707  -0.88133
 Alpha  occ. eigenvalues --   -0.87016  -0.86193  -0.85754  -0.85370  -0.83594
 Alpha  occ. eigenvalues --   -0.82621  -0.81123  -0.80242  -0.78287  -0.76956
 Alpha  occ. eigenvalues --   -0.76772  -0.76644  -0.76508  -0.75970  -0.75762
 Alpha  occ. eigenvalues --   -0.75546  -0.75145  -0.72798  -0.70804  -0.69951
 Alpha  occ. eigenvalues --   -0.68650  -0.66953  -0.65681  -0.65258  -0.64501
 Alpha  occ. eigenvalues --   -0.64248  -0.62947  -0.62041  -0.60971  -0.60572
 Alpha  occ. eigenvalues --   -0.59499  -0.59119  -0.58574  -0.56898  -0.56751
 Alpha  occ. eigenvalues --   -0.56414  -0.55607  -0.55181  -0.54974  -0.54491
 Alpha  occ. eigenvalues --   -0.53807  -0.53439  -0.53206  -0.52818  -0.52084
 Alpha  occ. eigenvalues --   -0.51741  -0.51204  -0.50973  -0.50123  -0.49661
 Alpha  occ. eigenvalues --   -0.49439  -0.49322  -0.48820  -0.48647  -0.48420
 Alpha  occ. eigenvalues --   -0.48091  -0.47873  -0.47335  -0.47224  -0.46931
 Alpha  occ. eigenvalues --   -0.46806  -0.46325  -0.45955  -0.45828  -0.45535
 Alpha  occ. eigenvalues --   -0.45337  -0.44877  -0.44535  -0.44305  -0.44067
 Alpha  occ. eigenvalues --   -0.43904  -0.43754  -0.42876  -0.42713  -0.42695
 Alpha  occ. eigenvalues --   -0.42331  -0.41935  -0.41605  -0.41166  -0.40853
 Alpha  occ. eigenvalues --   -0.40734  -0.40533  -0.40376  -0.39919  -0.39614
 Alpha  occ. eigenvalues --   -0.39318  -0.39107  -0.39094  -0.38881  -0.38402
 Alpha  occ. eigenvalues --   -0.38309  -0.38265  -0.37363  -0.37245  -0.37145
 Alpha  occ. eigenvalues --   -0.36427  -0.36371  -0.35572  -0.34708  -0.33807
 Alpha  occ. eigenvalues --   -0.33323  -0.32852  -0.31962  -0.31222  -0.30040
 Alpha  occ. eigenvalues --   -0.29649  -0.27515  -0.22861  -0.19113
 Alpha virt. eigenvalues --   -0.06140  -0.01880   0.02836   0.06377   0.06649
 Alpha virt. eigenvalues --    0.10166   0.10762   0.10834   0.11495   0.12588
 Alpha virt. eigenvalues --    0.12948   0.13101   0.13320   0.13865   0.14344

 Mulliken charges:
               1
     1  O   -0.506401
     2  O   -0.542918
     3  O   -0.544395
     4  O   -0.523679
     5  C    0.198620
     6  C    0.239030
     7  C    0.055104
     8  C   -0.253722
     9  C   -0.187428
    10  C    0.151576
    11  C   -0.334065
    12  C   -0.098955
    13  C   -0.309977
    14  C   -0.312462
    15  C   -0.090104
    16  C    0.059055
    17  C   -0.389820
    18  C   -0.075848
    19  C   -0.036020
    20  C    0.021367
    21  C    0.254365
    22  C   -0.184305
    23  C    0.153956
    24  C   -0.205920
    25  C   -0.025491
    26  C   -0.296350
    27  C   -0.310778
    28  C   -0.312821
    29  C   -0.121550
    30  C    0.071853
    31  C    0.104611
    32  C   -0.231322
    33  C   -0.395843
    34  C   -0.143800
    35  C    0.134339
    36  C   -0.379714
    37  C   -0.130059
    38  C   -0.064019
    39  C   -0.064721
    40  C   -0.064413
    41  C   -0.131586
    42  C   -0.141276
    43  C    0.114051
    44  C   -0.365802
    45  H    0.115680
    46  H    0.113859
    47  H    0.099717
    48  H    0.096028
    49  H    0.099901
    50  H    0.095846
    51  H    0.098618
    52  H    0.126331
    53  H    0.113569
    54  H    0.115835
    55  H    0.099727
    56  H    0.080393
    57  H    0.121908
    58  H    0.093667
    59  H    0.094846
    60  H    0.302496
    61  H    0.081081
    62  H    0.125422
    63  H    0.106984
    64  H    0.119647
    65  H    0.059654
    66  H    0.071262
    67  H    0.083358
    68  H    0.105927
    69  H    0.053527
    70  H    0.093373
    71  H    0.121933
    72  H    0.092424
    73  H    0.125690
    74  H    0.099126
    75  H    0.110214
    76  H    0.108230
    77  H    0.081618
    78  H    0.098176
    79  H    0.081431
    80  H    0.139509
    81  H    0.072253
    82  H    0.296827
    83  H    0.295869
    84  H    0.105207
    85  H    0.106128
    86  H    0.141685
    87  H    0.118468
    88  H    0.080918
    89  H    0.103035
    90  H    0.128189
    91  H    0.123316
    92  H    0.082416
    93  H    0.083779
    94  H    0.056336
    95  H    0.084921
    96  H    0.069416
    97  H    0.091095
    98  H    0.116536
    99  H    0.123424
   100  H    0.110815
 Sum of Mulliken charges =  -0.00000

 Dipole moment (field-independent basis, Debye):
    X=              3.2322    Y=             -0.2069    Z=              0.3376  Tot=              3.2563
 Quadrupole moment (field-independent basis, Debye-Ang):
   XX=           -275.1140   YY=           -258.3507   ZZ=           -278.1258
   XY=              7.7803   XZ=             31.3219   YZ=             -2.6011

 Normal termination of Gaussian 16 at Wed Jul 31 07:03:56 2019.
