 Gaussian 16, Revision A.03,
 Gaussian 16:  ES64L-G16RevA.03 25-Dec-2016

 -------------------------------------
 # td=(NStates=1) CAM-B3LYP/6-31G(d,p)
 -------------------------------------

 --
 TD
 --
 Symbolic Z-matrix:
 Charge =  0 Multiplicity = 1

                         Standard orientation:
 ---------------------------------------------------------------------
 Center     Atomic      Atomic             Coordinates (Angstroms)
 Number     Number       Type             X           Y           Z
 ---------------------------------------------------------------------
      1          8           0      -11.742706    0.356262   -1.543861
      2          8           0      -13.121848   -2.391017    1.433477
      3          8           0       10.562868   -1.142543   -2.166166
      4          8           0       14.639638   -0.868686   -0.143133
      5          6           0      -10.968214   -0.114614   -0.302897
      6          6           0      -11.704690   -1.088488   -1.293139
      7          6           0      -11.661004    0.472667    0.924592
      8          6           0      -13.069862   -1.680676   -0.914274
      9          6           0      -13.202535    0.080753    0.891871
     10          6           0      -13.524248   -1.334009    0.549329
     11          6           0      -10.919890   -1.939519   -2.274952
     12          6           0       -9.608954    0.160357   -0.394832
     13          6           0      -11.091252   -0.116235    2.217903
     14          6           0      -11.692718    1.971678    1.044442
     15          6           0       -8.638808   -0.804522    0.013793
     16          6           0       -7.176576   -0.716194    0.144642
     17          6           0       -6.415944   -1.966141    0.505728
     18          6           0       -6.563735    0.438348   -0.137956
     19          6           0       -5.178922    0.763333   -0.192937
     20          6           0       11.903543    0.115700    1.295069
     21          6           0       11.642737   -0.614353   -1.245936
     22          6           0       12.733980   -1.236925    1.409226
     23          6           0       13.529858   -1.673579    0.223396
     24          6           0       12.553566   -1.744473   -0.941273
     25          6           0       11.053545   -0.010647   -0.012527
     26          6           0       10.889351    0.186419    2.474396
     27          6           0       12.777425    1.340374    1.389243
     28          6           0       12.450662    0.429888   -1.923734
     29          6           0       -4.665395    2.047121   -0.383122
     30          6           0        9.874246    0.540551   -0.043587
     31          6           0       -3.266760    2.489407   -0.409316
     32          6           0        8.670429    0.945377   -0.091841
     33          6           0       -2.983554    3.900808   -0.726685
     34          6           0       -2.268236    1.535460   -0.191817
     35          6           0        7.427450    0.057320    0.098772
     36          6           0        7.721984   -1.359503    0.559247
     37          6           0        6.220075    0.719046   -0.052864
     38          6           0       -0.964449    1.781089   -0.329033
     39          6           0        4.949854    0.048402   -0.078623
     40          6           0        0.029570    0.850839   -0.120819
     41          6           0        3.793925    0.780399   -0.225167
     42          6           0        1.393884    1.090523   -0.268016
     43          6           0        2.467571    0.284147   -0.048877
     44          6           0        2.253629   -1.128698    0.475667
     45          1           0      -13.153990   -2.720019   -0.806615
     46          1           0      -13.736282   -1.209909   -1.733011
     47          1           0      -13.590558    0.536584    1.900450
     48          1           0      -13.433764    0.665779    0.019515
     49          1           0      -14.636602   -1.466721    0.497254
     50          1           0      -10.621705   -2.879622   -2.054902
     51          1           0      -11.444349   -2.033809   -3.169710
     52          1           0      -10.046510   -1.317827   -2.491875
     53          1           0       -9.315592    1.067694   -0.838221
     54          1           0       -9.929918    0.194985    2.425128
     55          1           0      -11.625500    0.455421    2.909047
     56          1           0      -11.184485   -1.317311    2.477746
     57          1           0      -12.319427    2.352722    0.093247
     58          1           0      -12.566085    2.262871    1.702772
     59          1           0      -10.799923    2.356965    1.239002
     60          1           0      -12.252673   -2.446039    1.444172
     61          1           0       -8.999239   -1.784671    0.454420
     62          1           0       -5.758863   -2.103451   -0.478083
     63          1           0       -5.794646   -1.857512    1.488631
     64          1           0       -7.269358   -2.776084    0.465931
     65          1           0       -7.319371    1.363649   -0.200493
     66          1           0       -4.602541    0.014615    0.164841
     67          1           0       13.450941   -1.074634    2.357662
     68          1           0       12.048917   -2.147970    1.376977
     69          1           0       13.779726   -2.832241    0.154596
     70          1           0       13.137123   -2.083145   -1.872830
     71          1           0       11.746943   -2.679690   -0.783179
     72          1           0       11.556760    0.269964    3.416601
     73          1           0       10.323954    1.094257    2.531670
     74          1           0        9.839594   -0.406321    2.366867
     75          1           0       13.575972    1.149143    0.634607
     76          1           0       12.114275    2.224227    1.033938
     77          1           0       13.233440    1.396930    2.402389
     78          1           0       12.463677    0.101641   -2.942438
     79          1           0       12.140755    1.573523   -1.929766
     80          1           0       13.601617    0.450492   -1.429866
     81          1           0       -5.400212    2.854574   -0.729051
     82          1           0        9.795727   -0.544397   -2.240853
     83          1           0       15.088386   -0.560396    0.751378
     84          1           0        8.440272    1.920571   -0.453391
     85          1           0       -2.360586    4.265891   -0.087541
     86          1           0       -2.469868    4.201573   -1.664414
     87          1           0       -3.866728    4.250420   -0.825847
     88          1           0       -2.698396    0.643560    0.296670
     89          1           0        6.740115   -1.802248    0.445821
     90          1           0        8.485841   -1.776854   -0.187855
     91          1           0        7.994473   -1.348926    1.463849
     92          1           0        6.277643    1.761656   -0.311135
     93          1           0       -0.566616    2.755437   -0.719216
     94          1           0        4.899376   -0.939767    0.276371
     95          1           0       -0.288306   -0.123707   -0.092339
     96          1           0        3.831391    1.845407   -0.576550
     97          1           0        1.686013    2.187586   -0.560900
     98          1           0        1.144287   -1.289096    0.584954
     99          1           0        2.732764   -1.853655   -0.119559
    100          1           0        2.589267   -1.482836    1.602047
 ---------------------------------------------------------------------

 SCF Done:  E(RCAM-B3LYP) =  -1857.29767170     A.U. after   15 cycles

 Excitation energies and oscillator strengths:

 Excited State   1:      Singlet-A      2.1943 eV  565.03 nm  f=2.9614  <S**2>=0.000
     163 ->166         0.13250
     164 ->165         0.69495
 This state for optimization and/or second-order correction.
 Total Energy, E(TD-HF/TD-DFT) =  -1857.21703232
 Copying the excited state density for this state as the 1-particle RhoCI density.

 The electronic state is 1-A.
 Alpha  occ. eigenvalues --  -19.23897 -19.21696 -19.20583 -19.20526 -10.33067
 Alpha  occ. eigenvalues --  -10.32373 -10.31657 -10.31344 -10.30739 -10.29094
 Alpha  occ. eigenvalues --  -10.28539 -10.28282 -10.28261 -10.28160 -10.28034
 Alpha  occ. eigenvalues --  -10.27805 -10.27533 -10.27439 -10.27230 -10.26910
 Alpha  occ. eigenvalues --  -10.26796 -10.26737 -10.26733 -10.26692 -10.26581
 Alpha  occ. eigenvalues --  -10.26468 -10.26434 -10.26398 -10.26387 -10.26376
 Alpha  occ. eigenvalues --  -10.26336 -10.26326 -10.26276 -10.26122 -10.25834
 Alpha  occ. eigenvalues --  -10.25800 -10.25779 -10.25683 -10.25192 -10.25053
 Alpha  occ. eigenvalues --  -10.24928 -10.24741 -10.23764 -10.23243  -1.11440
 Alpha  occ. eigenvalues --   -1.10785  -1.10302  -1.06678  -0.93697  -0.93049
 Alpha  occ. eigenvalues --   -0.92098  -0.91723  -0.91016  -0.90365  -0.87921
 Alpha  occ. eigenvalues --   -0.87282  -0.86750  -0.86056  -0.85378  -0.83820
 Alpha  occ. eigenvalues --   -0.83221  -0.81727  -0.81622  -0.79673  -0.77846
 Alpha  occ. eigenvalues --   -0.76618  -0.76426  -0.75988  -0.75828  -0.75718
 Alpha  occ. eigenvalues --   -0.74848  -0.74620  -0.73663  -0.70670  -0.69849
 Alpha  occ. eigenvalues --   -0.69059  -0.67333  -0.65544  -0.64549  -0.64379
 Alpha  occ. eigenvalues --   -0.63754  -0.61905  -0.61376  -0.60751  -0.59065
 Alpha  occ. eigenvalues --   -0.58719  -0.58471  -0.58185  -0.57123  -0.56842
 Alpha  occ. eigenvalues --   -0.56441  -0.55592  -0.55355  -0.54892  -0.54674
 Alpha  occ. eigenvalues --   -0.53710  -0.53262  -0.53127  -0.52361  -0.52350
 Alpha  occ. eigenvalues --   -0.51375  -0.50960  -0.50873  -0.50628  -0.50458
 Alpha  occ. eigenvalues --   -0.49960  -0.49673  -0.49561  -0.49212  -0.48675
 Alpha  occ. eigenvalues --   -0.48536  -0.48090  -0.48012  -0.47587  -0.47294
 Alpha  occ. eigenvalues --   -0.46645  -0.46541  -0.45955  -0.45862  -0.45692
 Alpha  occ. eigenvalues --   -0.45303  -0.44685  -0.44155  -0.44012  -0.43963
 Alpha  occ. eigenvalues --   -0.43921  -0.43485  -0.43223  -0.43014  -0.42887
 Alpha  occ. eigenvalues --   -0.42316  -0.42115  -0.42015  -0.41584  -0.41076
 Alpha  occ. eigenvalues --   -0.40946  -0.40546  -0.40385  -0.40145  -0.39982
 Alpha  occ. eigenvalues --   -0.39924  -0.39770  -0.39579  -0.38806  -0.38292
 Alpha  occ. eigenvalues --   -0.38256  -0.37968  -0.37857  -0.37386  -0.37285
 Alpha  occ. eigenvalues --   -0.36229  -0.35530  -0.34839  -0.34210  -0.33742
 Alpha  occ. eigenvalues --   -0.33104  -0.32538  -0.32313  -0.32041  -0.31633
 Alpha  occ. eigenvalues --   -0.29360  -0.27947  -0.24816  -0.20054
 Alpha virt. eigenvalues --   -0.06309  -0.00769   0.02805   0.06257   0.06952
 Alpha virt. eigenvalues --    0.08445   0.09943   0.10744   0.10879   0.11700
 Alpha virt. eigenvalues --    0.12013   0.12479   0.12709   0.13347   0.13820

 Mulliken charges:
               1
     1  O   -0.533711
     2  O   -0.531488
     3  O   -0.594960
     4  O   -0.540218
     5  C    0.184075
     6  C    0.258929
     7  C   -0.000596
     8  C   -0.226308
     9  C   -0.192577
    10  C    0.145395
    11  C   -0.336251
    12  C   -0.114655
    13  C   -0.282801
    14  C   -0.302560
    15  C   -0.089255
    16  C    0.082543
    17  C   -0.363135
    18  C   -0.103024
    19  C   -0.069088
    20  C    0.022645
    21  C    0.277419
    22  C   -0.183127
    23  C    0.168366
    24  C   -0.216190
    25  C   -0.083496
    26  C   -0.303706
    27  C   -0.295278
    28  C   -0.321130
    29  C   -0.133092
    30  C    0.195071
    31  C    0.063206
    32  C   -0.324948
    33  C   -0.344291
    34  C   -0.096606
    35  C    0.064144
    36  C   -0.346656
    37  C   -0.098015
    38  C   -0.081753
    39  C   -0.097535
    40  C   -0.083846
    41  C   -0.114110
    42  C   -0.136605
    43  C    0.133331
    44  C   -0.374177
    45  H    0.120172
    46  H    0.112047
    47  H    0.084747
    48  H    0.126976
    49  H    0.102174
    50  H    0.118592
    51  H    0.120426
    52  H    0.120694
    53  H    0.117921
    54  H    0.081194
    55  H    0.113746
    56  H    0.069622
    57  H    0.109531
    58  H    0.108150
    59  H    0.109848
    60  H    0.284955
    61  H    0.066954
    62  H    0.121298
    63  H    0.127296
    64  H    0.100410
    65  H    0.066870
    66  H    0.078800
    67  H    0.060347
    68  H    0.113787
    69  H    0.089640
    70  H    0.114016
    71  H    0.092826
    72  H    0.084220
    73  H    0.118002
    74  H    0.093285
    75  H    0.104872
    76  H    0.111072
    77  H    0.098434
    78  H    0.123741
    79  H    0.081191
    80  H    0.126192
    81  H    0.080698
    82  H    0.309818
    83  H    0.315553
    84  H    0.098631
    85  H    0.137069
    86  H    0.114664
    87  H    0.109605
    88  H    0.084903
    89  H    0.103445
    90  H    0.128899
    91  H    0.141657
    92  H    0.083500
    93  H    0.084254
    94  H    0.090071
    95  H    0.087968
    96  H    0.078802
    97  H    0.066749
    98  H    0.105781
    99  H    0.128864
   100  H    0.095082
 Sum of Mulliken charges =  -0.00000

 Dipole moment (field-independent basis, Debye):
    X=              2.8092    Y=              0.8757    Z=              2.2793  Tot=              3.7221
 Quadrupole moment (field-independent basis, Debye-Ang):
   XX=           -297.7381   YY=           -261.0657   ZZ=           -279.9844
   XY=              5.1804   XZ=             33.8168   YZ=             -1.4620

 Normal termination of Gaussian 16 at Thu Aug  1 07:20:12 2019.
