 Gaussian 16, Revision A.03,
 Gaussian 16:  ES64L-G16RevA.03 25-Dec-2016

 -------------------------------------
 # td=(NStates=1) CAM-B3LYP/6-31G(d,p)
 -------------------------------------

 --
 TD
 --
 Symbolic Z-matrix:
 Charge =  0 Multiplicity = 1

                         Standard orientation:
 ---------------------------------------------------------------------
 Center     Atomic      Atomic             Coordinates (Angstroms)
 Number     Number       Type             X           Y           Z
 ---------------------------------------------------------------------
      1          8           0      -11.732118    0.056333   -1.673165
      2          8           0      -13.163713   -2.485850    1.494527
      3          8           0       10.606758   -1.074211   -2.038817
      4          8           0       14.507432   -1.063357   -0.324365
      5          6           0      -11.072753   -0.093466   -0.365173
      6          6           0      -11.601652   -1.202530   -1.217378
      7          6           0      -11.871290    0.342016    0.834260
      8          6           0      -12.927797   -1.857517   -0.941760
      9          6           0      -13.351207   -0.086329    0.865340
     10          6           0      -13.490452   -1.559134    0.450278
     11          6           0      -10.718558   -2.078946   -2.106377
     12          6           0       -9.579006    0.040937   -0.347995
     13          6           0      -11.144277   -0.067497    2.102628
     14          6           0      -11.933479    1.938974    0.820772
     15          6           0       -8.635056   -0.761128    0.212931
     16          6           0       -7.203802   -0.487923    0.244645
     17          6           0       -6.376507   -1.781613    0.571275
     18          6           0       -6.660322    0.633868   -0.116603
     19          6           0       -5.303381    1.003584   -0.098933
     20          6           0       11.972591    0.047609    1.365900
     21          6           0       11.685217   -0.614234   -1.218756
     22          6           0       12.731622   -1.274358    1.471658
     23          6           0       13.430198   -1.827304    0.229594
     24          6           0       12.498509   -1.815204   -0.979255
     25          6           0       11.101284   -0.065696    0.116501
     26          6           0       11.082237    0.226725    2.651269
     27          6           0       12.936789    1.215026    1.395643
     28          6           0       12.551062    0.486072   -1.978503
     29          6           0       -4.770884    2.291618   -0.320629
     30          6           0        9.881061    0.422257    0.016422
     31          6           0       -3.382826    2.586566   -0.375130
     32          6           0        8.597642    0.856951   -0.215483
     33          6           0       -3.012028    4.000738   -0.822616
     34          6           0       -2.299298    1.647613   -0.178618
     35          6           0        7.412710    0.124316    0.004938
     36          6           0        7.590540   -1.440882    0.253010
     37          6           0        6.223432    0.710159   -0.208508
     38          6           0       -0.935916    1.967079   -0.346758
     39          6           0        4.932605    0.192917    0.084308
     40          6           0        0.049580    1.042168   -0.135559
     41          6           0        3.842682    0.951547    0.060070
     42          6           0        1.446656    1.300711   -0.080910
     43          6           0        2.460635    0.344290    0.037561
     44          6           0        2.291890   -1.076878    0.164995
     45          1           0      -12.889198   -2.922784   -0.924638
     46          1           0      -13.604568   -1.597778   -1.622180
     47          1           0      -13.638641   -0.017517    1.973856
     48          1           0      -13.935182    0.602130    0.223011
     49          1           0      -14.605270   -1.662052    0.492086
     50          1           0      -10.601400   -3.127104   -1.905611
     51          1           0      -11.231288   -1.984711   -3.232405
     52          1           0       -9.599837   -1.639866   -2.174421
     53          1           0       -9.245737    0.720160   -1.041804
     54          1           0      -10.283287    0.561749    2.273011
     55          1           0      -11.848221    0.175187    2.962992
     56          1           0      -10.745898   -1.056561    2.230405
     57          1           0      -12.074101    2.198482   -0.263335
     58          1           0      -12.762130    2.433696    1.469255
     59          1           0      -11.007782    2.285546    1.030216
     60          1           0      -12.104462   -2.320885    1.461473
     61          1           0       -9.090809   -1.688594    0.810442
     62          1           0       -5.783218   -2.062088   -0.211703
     63          1           0       -5.904374   -1.326705    1.621106
     64          1           0       -7.009994   -2.406407    0.665651
     65          1           0       -7.238107    1.614214   -0.377139
     66          1           0       -4.551801    0.145442   -0.066131
     67          1           0       13.536432   -1.239233    2.329139
     68          1           0       11.909192   -2.064646    1.797427
     69          1           0       13.665397   -2.823966    0.321557
     70          1           0       12.819681   -2.141905   -1.895025
     71          1           0       11.807159   -2.672829   -0.758980
     72          1           0       11.674627    0.216343    3.514654
     73          1           0       10.413338    0.983206    2.328990
     74          1           0       10.435215   -0.577194    2.595721
     75          1           0       13.782165    0.879088    0.587974
     76          1           0       12.467871    2.259785    0.968143
     77          1           0       13.319716    1.341277    2.399919
     78          1           0       12.874445   -0.057884   -2.893424
     79          1           0       12.050550    1.506837   -2.125210
     80          1           0       13.440791    0.565706   -1.274092
     81          1           0       -5.179197    3.243847   -0.404484
     82          1           0       10.198647   -0.311141   -2.117390
     83          1           0       15.218586   -0.884410    0.377144
     84          1           0        8.687364    1.896291   -0.581951
     85          1           0       -2.585331    4.502725    0.111291
     86          1           0       -2.360048    4.025699   -1.670996
     87          1           0       -3.945749    4.697597   -1.012552
     88          1           0       -2.639511    0.656866    0.049751
     89          1           0        6.718809   -2.028065    0.082415
     90          1           0        8.491958   -1.944485   -0.296866
     91          1           0        7.743798   -1.655758    1.364095
     92          1           0        6.439484    1.736633   -0.300022
     93          1           0       -0.525103    2.960813   -0.389242
     94          1           0        4.750639   -0.950177    0.056696
     95          1           0       -0.235006    0.000492    0.041001
     96          1           0        3.930465    1.911719   -0.308049
     97          1           0        1.740074    2.366740   -0.072458
     98          1           0        1.271797   -1.262628    0.459302
     99          1           0        2.418287   -1.653975   -0.804685
    100          1           0        2.981183   -1.568847    1.066304
 ---------------------------------------------------------------------

 SCF Done:  E(RCAM-B3LYP) =  -1857.34440339     A.U. after   15 cycles

 Excitation energies and oscillator strengths:

 Excited State   1:      Singlet-A      2.3114 eV  536.41 nm  f=2.8268  <S**2>=0.000
     163 ->166        -0.13337
     164 ->165         0.69385
 This state for optimization and/or second-order correction.
 Total Energy, E(TD-HF/TD-DFT) =  -1857.25946251
 Copying the excited state density for this state as the 1-particle RhoCI density.

 The electronic state is 1-A.
 Alpha  occ. eigenvalues --  -19.22934 -19.22903 -19.22258 -19.19809 -10.32406
 Alpha  occ. eigenvalues --  -10.31729 -10.31434 -10.30872 -10.29865 -10.28363
 Alpha  occ. eigenvalues --  -10.27973 -10.27954 -10.27837 -10.27823 -10.27745
 Alpha  occ. eigenvalues --  -10.27665 -10.27562 -10.27528 -10.27458 -10.27427
 Alpha  occ. eigenvalues --  -10.27247 -10.27014 -10.26701 -10.26678 -10.26639
 Alpha  occ. eigenvalues --  -10.26538 -10.26531 -10.26477 -10.26401 -10.26324
 Alpha  occ. eigenvalues --  -10.26316 -10.26247 -10.26113 -10.26027 -10.25403
 Alpha  occ. eigenvalues --  -10.25360 -10.25225 -10.25113 -10.25055 -10.24984
 Alpha  occ. eigenvalues --  -10.24689 -10.23836 -10.23553 -10.23230  -1.17608
 Alpha  occ. eigenvalues --   -1.12016  -1.09788  -1.08046  -0.93322  -0.92688
 Alpha  occ. eigenvalues --   -0.92226  -0.91372  -0.90955  -0.90117  -0.87542
 Alpha  occ. eigenvalues --   -0.86915  -0.86472  -0.85541  -0.84816  -0.83251
 Alpha  occ. eigenvalues --   -0.82379  -0.80262  -0.79908  -0.78730  -0.77472
 Alpha  occ. eigenvalues --   -0.77010  -0.76570  -0.76392  -0.76021  -0.75970
 Alpha  occ. eigenvalues --   -0.75185  -0.74875  -0.73317  -0.70762  -0.70402
 Alpha  occ. eigenvalues --   -0.68324  -0.67387  -0.65075  -0.64629  -0.64483
 Alpha  occ. eigenvalues --   -0.63603  -0.61869  -0.60804  -0.60580  -0.59725
 Alpha  occ. eigenvalues --   -0.58655  -0.58341  -0.58026  -0.57848  -0.56854
 Alpha  occ. eigenvalues --   -0.56609  -0.55623  -0.55465  -0.55180  -0.54430
 Alpha  occ. eigenvalues --   -0.54150  -0.52832  -0.52726  -0.52267  -0.52015
 Alpha  occ. eigenvalues --   -0.51598  -0.51021  -0.50797  -0.50110  -0.49792
 Alpha  occ. eigenvalues --   -0.49611  -0.49298  -0.49113  -0.48863  -0.48712
 Alpha  occ. eigenvalues --   -0.48143  -0.47890  -0.47707  -0.47055  -0.46888
 Alpha  occ. eigenvalues --   -0.46458  -0.46280  -0.46206  -0.46049  -0.45824
 Alpha  occ. eigenvalues --   -0.45235  -0.44552  -0.44282  -0.44121  -0.43968
 Alpha  occ. eigenvalues --   -0.43816  -0.43471  -0.43246  -0.43182  -0.42475
 Alpha  occ. eigenvalues --   -0.42311  -0.42128  -0.42036  -0.41632  -0.41336
 Alpha  occ. eigenvalues --   -0.40829  -0.40725  -0.40561  -0.40308  -0.40030
 Alpha  occ. eigenvalues --   -0.39893  -0.39533  -0.39431  -0.39368  -0.39127
 Alpha  occ. eigenvalues --   -0.39050  -0.38659  -0.38247  -0.37545  -0.37223
 Alpha  occ. eigenvalues --   -0.36519  -0.35821  -0.35477  -0.34694  -0.34024
 Alpha  occ. eigenvalues --   -0.33174  -0.32509  -0.32246  -0.31654  -0.30670
 Alpha  occ. eigenvalues --   -0.30088  -0.28074  -0.24706  -0.20188
 Alpha virt. eigenvalues --   -0.05635  -0.00825   0.02658   0.06208   0.07019
 Alpha virt. eigenvalues --    0.09050   0.09787   0.10151   0.11632   0.12502
 Alpha virt. eigenvalues --    0.13018   0.13491   0.13591   0.13866   0.14247

 Mulliken charges:
               1
     1  O   -0.489160
     2  O   -0.537693
     3  O   -0.519208
     4  O   -0.542114
     5  C    0.197170
     6  C    0.235161
     7  C    0.005155
     8  C   -0.184988
     9  C   -0.177931
    10  C    0.112585
    11  C   -0.321252
    12  C   -0.108147
    13  C   -0.320132
    14  C   -0.323643
    15  C   -0.088490
    16  C    0.034668
    17  C   -0.306825
    18  C   -0.087359
    19  C   -0.104965
    20  C   -0.001814
    21  C    0.202660
    22  C   -0.190757
    23  C    0.159762
    24  C   -0.180641
    25  C   -0.041171
    26  C   -0.298543
    27  C   -0.277620
    28  C   -0.304051
    29  C   -0.077631
    30  C    0.059768
    31  C    0.048297
    32  C   -0.265374
    33  C   -0.377891
    34  C   -0.107197
    35  C    0.142821
    36  C   -0.380535
    37  C   -0.118226
    38  C   -0.083859
    39  C   -0.095248
    40  C   -0.078163
    41  C   -0.093328
    42  C   -0.131602
    43  C    0.116043
    44  C   -0.387405
    45  H    0.113025
    46  H    0.125188
    47  H    0.102877
    48  H    0.108338
    49  H    0.087599
    50  H    0.110903
    51  H    0.090620
    52  H    0.098108
    53  H    0.108430
    54  H    0.117885
    55  H    0.103381
    56  H    0.089871
    57  H    0.117881
    58  H    0.098853
    59  H    0.108951
    60  H    0.293160
    61  H    0.069613
    62  H    0.130744
    63  H    0.110637
    64  H    0.104739
    65  H    0.081649
    66  H    0.085246
    67  H    0.070789
    68  H    0.096215
    69  H    0.098964
    70  H    0.117932
    71  H    0.096728
    72  H    0.103733
    73  H    0.118092
    74  H    0.106923
    75  H    0.082207
    76  H    0.085627
    77  H    0.102762
    78  H    0.112969
    79  H    0.087389
    80  H    0.133582
    81  H    0.079076
    82  H    0.282717
    83  H    0.301408
    84  H    0.116200
    85  H    0.121629
    86  H    0.137882
    87  H    0.090370
    88  H    0.079365
    89  H    0.114025
    90  H    0.133986
    91  H    0.106564
    92  H    0.078714
    93  H    0.089053
    94  H    0.089253
    95  H    0.073739
    96  H    0.087555
    97  H    0.081097
    98  H    0.118660
    99  H    0.130595
   100  H    0.105370
 Sum of Mulliken charges =  -0.00000

 Dipole moment (field-independent basis, Debye):
    X=              3.8325    Y=              0.3605    Z=              2.0730  Tot=              4.3721
 Quadrupole moment (field-independent basis, Debye-Ang):
   XX=           -280.2921   YY=           -260.4825   ZZ=           -279.8098
   XY=             -9.7480   XZ=             30.0070   YZ=             -1.9809

 Normal termination of Gaussian 16 at Tue Jul 30 21:11:33 2019.
