 Gaussian 16, Revision A.03,
 Gaussian 16:  ES64L-G16RevA.03 25-Dec-2016

 -------------------------------------
 # td=(NStates=1) CAM-B3LYP/6-31G(d,p)
 -------------------------------------

 --
 TD
 --
 Symbolic Z-matrix:
 Charge =  0 Multiplicity = 1

                         Standard orientation:
 ---------------------------------------------------------------------
 Center     Atomic      Atomic             Coordinates (Angstroms)
 Number     Number       Type             X           Y           Z
 ---------------------------------------------------------------------
      1          8           0      -11.626602    0.179512   -1.533803
      2          8           0      -12.984330   -2.427961    1.400905
      3          8           0       10.574816   -0.932107   -2.135586
      4          8           0       14.490468   -1.070892   -0.344837
      5          6           0      -11.070625   -0.161641   -0.339255
      6          6           0      -11.686221   -1.197914   -1.223812
      7          6           0      -11.963596    0.354748    0.919130
      8          6           0      -13.135910   -1.760616   -0.946193
      9          6           0      -13.438803   -0.034101    0.869110
     10          6           0      -13.579795   -1.570005    0.548744
     11          6           0      -10.862715   -2.089628   -2.111668
     12          6           0       -9.593987    0.125809   -0.272348
     13          6           0      -11.231650   -0.183614    2.290295
     14          6           0      -11.898795    1.933131    0.914376
     15          6           0       -8.589455   -0.797843    0.023679
     16          6           0       -7.207162   -0.570609    0.017251
     17          6           0       -6.312399   -1.697493    0.188082
     18          6           0       -6.603540    0.620352   -0.238380
     19          6           0       -5.196580    0.897582   -0.289065
     20          6           0       11.944745   -0.047693    1.362425
     21          6           0       11.606607   -0.645637   -1.308115
     22          6           0       12.755966   -1.397911    1.413977
     23          6           0       13.471849   -1.906215    0.194359
     24          6           0       12.446768   -1.933735   -1.030213
     25          6           0       11.114120   -0.083647    0.048069
     26          6           0       11.124810   -0.000498    2.514717
     27          6           0       12.922679    1.096076    1.374788
     28          6           0       12.440085    0.346889   -2.117729
     29          6           0       -4.632346    2.128513   -0.492935
     30          6           0        9.901746    0.526732    0.081974
     31          6           0       -3.336757    2.500858   -0.594403
     32          6           0        8.770827    1.026817    0.006269
     33          6           0       -3.081504    3.936661   -0.815913
     34          6           0       -2.351013    1.615643   -0.214559
     35          6           0        7.478632    0.298356    0.099977
     36          6           0        7.579810   -1.204891    0.349170
     37          6           0        6.332894    0.919506   -0.086075
     38          6           0       -0.962029    1.965858   -0.161391
     39          6           0        4.994105    0.304124    0.105312
     40          6           0        0.131507    1.048771   -0.075178
     41          6           0        3.853641    0.950651    0.042510
     42          6           0        1.326352    1.324088    0.014260
     43          6           0        2.525356    0.358662    0.284329
     44          6           0        2.286935   -0.982393    0.353163
     45          1           0      -12.984701   -2.969874   -1.085229
     46          1           0      -13.902976   -1.294145   -1.582763
     47          1           0      -13.881974   -0.033820    1.855590
     48          1           0      -13.995571    0.677814    0.248692
     49          1           0      -14.704370   -1.708400    0.670728
     50          1           0      -10.094659   -2.780167   -1.398230
     51          1           0      -11.701114   -2.501482   -2.890456
     52          1           0       -9.951945   -1.461740   -2.610212
     53          1           0       -9.305590    1.112894   -0.700743
     54          1           0      -10.258297    0.350835    2.251791
     55          1           0      -11.804377    0.026037    3.291718
     56          1           0      -10.943926   -1.193231    2.344184
     57          1           0      -12.139135    2.259297   -0.177923
     58          1           0      -12.771627    2.188629    1.588747
     59          1           0      -10.950404    2.162306    1.638854
     60          1           0      -12.079654   -2.641394    1.235926
     61          1           0       -8.659991   -1.906397    0.205406
     62          1           0       -5.667741   -1.962660   -0.491036
     63          1           0       -5.687772   -1.538030    1.253763
     64          1           0       -6.902499   -2.638329    0.484258
     65          1           0       -7.154893    1.539925   -0.266731
     66          1           0       -4.653788   -0.200384   -0.374364
     67          1           0       13.378517   -1.307589    2.309114
     68          1           0       12.140931   -2.281674    1.871257
     69          1           0       13.935879   -2.911430    0.279512
     70          1           0       13.052344   -2.136004   -1.958276
     71          1           0       11.632294   -2.664148   -0.817828
     72          1           0       11.762172   -0.218287    3.527929
     73          1           0       10.749484    0.966828    2.506600
     74          1           0       10.343370   -0.772214    2.833513
     75          1           0       13.586433    1.090380    0.535438
     76          1           0       12.550674    1.993418    1.201880
     77          1           0       13.461811    1.188284    2.317342
     78          1           0       12.670253   -0.187182   -3.098178
     79          1           0       12.021286    1.405532   -2.098735
     80          1           0       13.484382    0.740202   -1.613954
     81          1           0       -5.324491    2.868578   -0.533550
     82          1           0        9.860977   -0.177154   -2.245974
     83          1           0       15.194104   -0.796084    0.389166
     84          1           0        8.629133    2.141157   -0.235041
     85          1           0       -2.554785    4.314684    0.077709
     86          1           0       -2.335910    4.126030   -1.494578
     87          1           0       -4.099020    4.434310   -0.841304
     88          1           0       -2.644033    0.630344    0.114343
     89          1           0        6.820213   -1.824794   -0.029344
     90          1           0        8.548366   -1.602321   -0.114821
     91          1           0        7.747015   -1.347230    1.536922
     92          1           0        6.306072    1.965777   -0.205172
     93          1           0       -0.626918    2.858702   -0.256004
     94          1           0        4.797227   -0.627856    0.183555
     95          1           0       -0.172973    0.006864   -0.169994
     96          1           0        3.841174    2.108900   -0.061856
     97          1           0        1.627529    2.418288   -0.159579
     98          1           0        1.360899   -1.167600    0.681377
     99          1           0        2.351958   -1.639362   -0.469230
    100          1           0        2.818495   -1.155893    1.259961
 ---------------------------------------------------------------------

 SCF Done:  E(RCAM-B3LYP) =  -1857.21973803     A.U. after   16 cycles

 Excitation energies and oscillator strengths:

 Excited State   1:      Singlet-A      1.8812 eV  659.08 nm  f=2.7221  <S**2>=0.000
     163 ->166         0.10950
     164 ->165         0.70965
     164 <-165        -0.14658
 This state for optimization and/or second-order correction.
 Total Energy, E(TD-HF/TD-DFT) =  -1857.15060577
 Copying the excited state density for this state as the 1-particle RhoCI density.

 The electronic state is 1-A.
 Alpha  occ. eigenvalues --  -19.22214 -19.21950 -19.21687 -19.21285 -10.32040
 Alpha  occ. eigenvalues --  -10.31879 -10.31838 -10.31565 -10.30976 -10.28727
 Alpha  occ. eigenvalues --  -10.28612 -10.28016 -10.27579 -10.27532 -10.27488
 Alpha  occ. eigenvalues --  -10.27437 -10.27371 -10.27186 -10.27165 -10.26939
 Alpha  occ. eigenvalues --  -10.26367 -10.26265 -10.26253 -10.26245 -10.26231
 Alpha  occ. eigenvalues --  -10.26147 -10.26108 -10.26025 -10.25977 -10.25976
 Alpha  occ. eigenvalues --  -10.25682 -10.25564 -10.25546 -10.25426 -10.25294
 Alpha  occ. eigenvalues --  -10.25257 -10.25126 -10.24976 -10.24867 -10.24844
 Alpha  occ. eigenvalues --  -10.24668 -10.24237 -10.23733 -10.23190  -1.17925
 Alpha  occ. eigenvalues --   -1.12199  -1.10714  -1.08320  -0.93689  -0.93481
 Alpha  occ. eigenvalues --   -0.92923  -0.91933  -0.91261  -0.88945  -0.88429
 Alpha  occ. eigenvalues --   -0.86348  -0.85288  -0.85203  -0.84549  -0.83212
 Alpha  occ. eigenvalues --   -0.82468  -0.80847  -0.80189  -0.79714  -0.77917
 Alpha  occ. eigenvalues --   -0.77151  -0.76379  -0.76320  -0.74904  -0.74812
 Alpha  occ. eigenvalues --   -0.74284  -0.73966  -0.72751  -0.70281  -0.69883
 Alpha  occ. eigenvalues --   -0.68902  -0.67416  -0.66058  -0.65024  -0.63504
 Alpha  occ. eigenvalues --   -0.63150  -0.62257  -0.61534  -0.60743  -0.60233
 Alpha  occ. eigenvalues --   -0.59410  -0.58903  -0.58339  -0.57059  -0.56181
 Alpha  occ. eigenvalues --   -0.55995  -0.55438  -0.55069  -0.54739  -0.54405
 Alpha  occ. eigenvalues --   -0.53681  -0.53355  -0.53121  -0.52646  -0.52357
 Alpha  occ. eigenvalues --   -0.52143  -0.51720  -0.51534  -0.50708  -0.50454
 Alpha  occ. eigenvalues --   -0.50284  -0.50124  -0.49284  -0.49185  -0.48661
 Alpha  occ. eigenvalues --   -0.48220  -0.48105  -0.47983  -0.47286  -0.47242
 Alpha  occ. eigenvalues --   -0.46924  -0.46023  -0.45548  -0.45447  -0.45052
 Alpha  occ. eigenvalues --   -0.44698  -0.44580  -0.44078  -0.44002  -0.43701
 Alpha  occ. eigenvalues --   -0.43573  -0.43194  -0.43149  -0.42661  -0.42560
 Alpha  occ. eigenvalues --   -0.42201  -0.41996  -0.41414  -0.41134  -0.40870
 Alpha  occ. eigenvalues --   -0.40743  -0.40095  -0.39772  -0.39728  -0.39303
 Alpha  occ. eigenvalues --   -0.39131  -0.39015  -0.38575  -0.38279  -0.37978
 Alpha  occ. eigenvalues --   -0.37838  -0.37601  -0.37317  -0.37003  -0.36878
 Alpha  occ. eigenvalues --   -0.36313  -0.35882  -0.35122  -0.34869  -0.33771
 Alpha  occ. eigenvalues --   -0.32454  -0.31930  -0.31862  -0.31319  -0.29602
 Alpha  occ. eigenvalues --   -0.28886  -0.28163  -0.24854  -0.18591
 Alpha virt. eigenvalues --   -0.07196  -0.00652   0.03629   0.05305   0.06418
 Alpha virt. eigenvalues --    0.09801   0.10113   0.11572   0.11883   0.11997
 Alpha virt. eigenvalues --    0.12591   0.12891   0.13629   0.13821   0.13946

 Mulliken charges:
               1
     1  O   -0.478159
     2  O   -0.520018
     3  O   -0.569683
     4  O   -0.548349
     5  C    0.220681
     6  C    0.226333
     7  C    0.031972
     8  C   -0.224474
     9  C   -0.199901
    10  C    0.169989
    11  C   -0.321767
    12  C   -0.134918
    13  C   -0.312402
    14  C   -0.322822
    15  C   -0.065779
    16  C    0.112346
    17  C   -0.391446
    18  C   -0.121453
    19  C   -0.060300
    20  C    0.035984
    21  C    0.294348
    22  C   -0.206823
    23  C    0.169570
    24  C   -0.189014
    25  C   -0.058945
    26  C   -0.293745
    27  C   -0.307651
    28  C   -0.292329
    29  C   -0.137386
    30  C    0.200346
    31  C    0.134983
    32  C   -0.369815
    33  C   -0.382452
    34  C   -0.114481
    35  C    0.144353
    36  C   -0.371295
    37  C   -0.128371
    38  C   -0.087781
    39  C   -0.060630
    40  C   -0.049208
    41  C   -0.086138
    42  C   -0.116384
    43  C    0.040380
    44  C   -0.373699
    45  H    0.078536
    46  H    0.120331
    47  H    0.106790
    48  H    0.099620
    49  H    0.080914
    50  H    0.085579
    51  H    0.109173
    52  H    0.117375
    53  H    0.117606
    54  H    0.100392
    55  H    0.092185
    56  H    0.089789
    57  H    0.125535
    58  H    0.100482
    59  H    0.092088
    60  H    0.310254
    61  H    0.066295
    62  H    0.146482
    63  H    0.096503
    64  H    0.088189
    65  H    0.071599
    66  H    0.067029
    67  H    0.083199
    68  H    0.088521
    69  H    0.086474
    70  H    0.107589
    71  H    0.102841
    72  H    0.065277
    73  H    0.113632
    74  H    0.106670
    75  H    0.115561
    76  H    0.111075
    77  H    0.097147
    78  H    0.111412
    79  H    0.080885
    80  H    0.089319
    81  H    0.075081
    82  H    0.323207
    83  H    0.302914
    84  H    0.103947
    85  H    0.126356
    86  H    0.133358
    87  H    0.109164
    88  H    0.089860
    89  H    0.123028
    90  H    0.121256
    91  H    0.101657
    92  H    0.076350
    93  H    0.052401
    94  H    0.059924
    95  H    0.070132
    96  H    0.066854
    97  H    0.066946
    98  H    0.123563
    99  H    0.139459
   100  H    0.128528
 Sum of Mulliken charges =  -0.00000

 Dipole moment (field-independent basis, Debye):
    X=              3.4674    Y=             -0.1701    Z=              2.0308  Tot=              4.0219
 Quadrupole moment (field-independent basis, Debye-Ang):
   XX=           -277.3856   YY=           -259.6018   ZZ=           -279.6414
   XY=              6.8166   XZ=             32.6036   YZ=             -3.3950

 Normal termination of Gaussian 16 at Tue Jul 30 04:27:10 2019.
