 Gaussian 16, Revision A.03,
 Gaussian 16:  ES64L-G16RevA.03 25-Dec-2016

 -------------------------------------
 # td=(NStates=1) CAM-B3LYP/6-31G(d,p)
 -------------------------------------

 --
 TD
 --
 Symbolic Z-matrix:
 Charge =  0 Multiplicity = 1

                         Standard orientation:
 ---------------------------------------------------------------------
 Center     Atomic      Atomic             Coordinates (Angstroms)
 Number     Number       Type             X           Y           Z
 ---------------------------------------------------------------------
      1          8           0      -11.713550    0.013781   -1.595512
      2          8           0      -13.034272   -2.414496    1.592583
      3          8           0       10.506791   -1.396010   -1.875606
      4          8           0       14.497962   -0.962214   -0.211397
      5          6           0      -11.120981   -0.138391   -0.402245
      6          6           0      -11.683423   -1.314010   -1.107812
      7          6           0      -11.880771    0.432064    0.811235
      8          6           0      -13.028220   -1.892168   -0.829919
      9          6           0      -13.284512    0.000828    0.911725
     10          6           0      -13.510749   -1.448760    0.510508
     11          6           0      -10.791133   -2.246534   -2.019117
     12          6           0       -9.620473    0.174592   -0.342868
     13          6           0      -11.148981    0.143019    2.055326
     14          6           0      -11.825580    1.969173    0.670987
     15          6           0       -8.717124   -0.636305    0.174468
     16          6           0       -7.243188   -0.538059    0.251010
     17          6           0       -6.444240   -1.676030    0.663288
     18          6           0       -6.594739    0.597851   -0.171530
     19          6           0       -5.276988    0.848775   -0.171366
     20          6           0       11.915604    0.154635    1.237861
     21          6           0       11.625902   -0.836065   -1.175995
     22          6           0       12.782578   -1.102778    1.543204
     23          6           0       13.388187   -1.791771    0.336991
     24          6           0       12.422577   -2.036690   -0.753045
     25          6           0       11.116077   -0.058769   -0.001999
     26          6           0       11.107097    0.497416    2.463272
     27          6           0       12.945036    1.394290    1.084864
     28          6           0       12.276888    0.122867   -2.194896
     29          6           0       -4.729966    2.104693   -0.447047
     30          6           0        9.934513    0.509346   -0.092428
     31          6           0       -3.351236    2.565447   -0.509726
     32          6           0        8.596579    1.044733   -0.205697
     33          6           0       -2.916465    3.886895   -0.906158
     34          6           0       -2.254989    1.680884   -0.264579
     35          6           0        7.495474    0.181741    0.055475
     36          6           0        7.761218   -1.270413    0.426013
     37          6           0        6.248285    0.701150   -0.121453
     38          6           0       -0.883676    1.972758   -0.385909
     39          6           0        4.930459    0.078552    0.155125
     40          6           0        0.051960    0.905314   -0.176270
     41          6           0        3.858828    0.909774   -0.094153
     42          6           0        1.400940    1.138993   -0.162666
     43          6           0        2.533958    0.404335    0.077254
     44          6           0        2.391249   -1.108097    0.402858
     45          1           0      -12.916940   -3.005708   -0.924380
     46          1           0      -13.796312   -1.617667   -1.456689
     47          1           0      -13.726615    0.164806    1.852461
     48          1           0      -13.836173    0.569287    0.131957
     49          1           0      -14.636257   -1.687672    0.556365
     50          1           0      -10.390428   -3.067557   -1.511471
     51          1           0      -11.355222   -2.729085   -2.795604
     52          1           0      -10.009556   -1.547095   -2.441471
     53          1           0       -9.230722    1.103257   -0.832507
     54          1           0      -10.106605    0.354125    1.920777
     55          1           0      -11.377715    0.966520    2.992247
     56          1           0      -11.294227   -0.853156    2.411459
     57          1           0      -12.577869    2.323074   -0.215795
     58          1           0      -12.420399    2.450228    1.517566
     59          1           0      -10.718888    2.173013    0.618751
     60          1           0      -12.106424   -2.623895    1.135732
     61          1           0       -9.013594   -1.592902    0.635751
     62          1           0       -5.759619   -1.975533   -0.082044
     63          1           0       -5.610668   -1.135632    1.386590
     64          1           0       -7.186391   -2.440010    1.025138
     65          1           0       -7.318340    1.598151   -0.188439
     66          1           0       -4.512266    0.058782   -0.090524
     67          1           0       13.469042   -0.767814    2.298194
     68          1           0       12.148102   -1.990116    1.888135
     69          1           0       13.882836   -2.718139    0.710203
     70          1           0       12.873527   -2.424691   -1.701326
     71          1           0       11.805326   -2.770795   -0.496454
     72          1           0       11.708135    0.688618    3.301529
     73          1           0       10.530444    1.253016    2.193434
     74          1           0       10.349461   -0.390462    2.670713
     75          1           0       13.815866    1.424412    0.406252
     76          1           0       12.434805    2.351849    0.957077
     77          1           0       13.365573    1.203692    2.112928
     78          1           0       12.545352   -0.482586   -3.160673
     79          1           0       11.558950    0.830481   -2.138634
     80          1           0       13.199283    0.488384   -1.632616
     81          1           0       -5.477583    2.921998   -0.538394
     82          1           0        9.852130   -0.633590   -2.098414
     83          1           0       15.200614   -0.712331    0.461708
     84          1           0        8.241880    2.085140   -0.543997
     85          1           0       -2.013397    4.368225   -0.244592
     86          1           0       -2.409065    3.969902   -1.839446
     87          1           0       -3.705671    4.696267   -1.110650
     88          1           0       -2.497982    0.741348    0.118080
     89          1           0        6.838321   -1.937848    0.416156
     90          1           0        8.475747   -1.483659   -0.203644
     91          1           0        7.941481   -1.363755    1.563869
     92          1           0        6.264989    1.646378   -0.424272
     93          1           0       -0.545796    3.001272   -0.558346
     94          1           0        4.971007   -1.006002    0.214083
     95          1           0       -0.498281   -0.091005   -0.048728
     96          1           0        4.052568    1.962454   -0.274436
     97          1           0        1.640048    2.286771   -0.397287
     98          1           0        1.374549   -1.438442    0.300861
     99          1           0        2.969953   -1.706259   -0.290700
    100          1           0        2.627726   -1.368266    1.395452
 ---------------------------------------------------------------------

 SCF Done:  E(RCAM-B3LYP) =  -1857.36900299     A.U. after   15 cycles

 Excitation energies and oscillator strengths:

 Excited State   1:      Singlet-A      2.0027 eV  619.08 nm  f=2.9480  <S**2>=0.000
     163 ->166        -0.12987
     164 ->165         0.69862
     164 <-165        -0.10460
 This state for optimization and/or second-order correction.
 Total Energy, E(TD-HF/TD-DFT) =  -1857.29540460
 Copying the excited state density for this state as the 1-particle RhoCI density.

 The electronic state is 1-A.
 Alpha  occ. eigenvalues --  -19.22800 -19.21246 -19.21030 -19.20804 -10.32562
 Alpha  occ. eigenvalues --  -10.32270 -10.31577 -10.31252 -10.30709 -10.29603
 Alpha  occ. eigenvalues --  -10.28582 -10.28508 -10.28025 -10.28001 -10.27935
 Alpha  occ. eigenvalues --  -10.27562 -10.27345 -10.27299 -10.27239 -10.27028
 Alpha  occ. eigenvalues --  -10.27014 -10.26965 -10.26926 -10.26817 -10.26651
 Alpha  occ. eigenvalues --  -10.26569 -10.26486 -10.26445 -10.26376 -10.26192
 Alpha  occ. eigenvalues --  -10.26017 -10.25862 -10.25854 -10.25745 -10.25741
 Alpha  occ. eigenvalues --  -10.25316 -10.25012 -10.24974 -10.24859 -10.24436
 Alpha  occ. eigenvalues --  -10.24419 -10.24167 -10.24076 -10.23720  -1.19453
 Alpha  occ. eigenvalues --   -1.08742  -1.06849  -1.05406  -0.93894  -0.92768
 Alpha  occ. eigenvalues --   -0.92256  -0.91936  -0.91225  -0.90288  -0.88013
 Alpha  occ. eigenvalues --   -0.87511  -0.87268  -0.85983  -0.85309  -0.83548
 Alpha  occ. eigenvalues --   -0.82514  -0.80900  -0.80124  -0.78564  -0.77801
 Alpha  occ. eigenvalues --   -0.77508  -0.77343  -0.76314  -0.76165  -0.75839
 Alpha  occ. eigenvalues --   -0.74522  -0.73838  -0.73043  -0.70525  -0.70082
 Alpha  occ. eigenvalues --   -0.68795  -0.66913  -0.65389  -0.64979  -0.64908
 Alpha  occ. eigenvalues --   -0.63841  -0.62870  -0.61593  -0.60550  -0.59143
 Alpha  occ. eigenvalues --   -0.58693  -0.58599  -0.58001  -0.57797  -0.56752
 Alpha  occ. eigenvalues --   -0.56119  -0.55844  -0.55453  -0.55331  -0.54607
 Alpha  occ. eigenvalues --   -0.54179  -0.53311  -0.53137  -0.52383  -0.51638
 Alpha  occ. eigenvalues --   -0.50986  -0.50857  -0.50536  -0.50457  -0.50153
 Alpha  occ. eigenvalues --   -0.49753  -0.49434  -0.49377  -0.49172  -0.48619
 Alpha  occ. eigenvalues --   -0.48242  -0.47673  -0.47307  -0.47064  -0.46930
 Alpha  occ. eigenvalues --   -0.46765  -0.46515  -0.46420  -0.45743  -0.45617
 Alpha  occ. eigenvalues --   -0.45226  -0.45109  -0.44911  -0.44512  -0.44305
 Alpha  occ. eigenvalues --   -0.43957  -0.43552  -0.43485  -0.43386  -0.43095
 Alpha  occ. eigenvalues --   -0.42279  -0.42203  -0.41903  -0.41562  -0.41402
 Alpha  occ. eigenvalues --   -0.40872  -0.40705  -0.40465  -0.40303  -0.40163
 Alpha  occ. eigenvalues --   -0.39710  -0.39163  -0.39149  -0.39045  -0.38771
 Alpha  occ. eigenvalues --   -0.38695  -0.38483  -0.37961  -0.37820  -0.37232
 Alpha  occ. eigenvalues --   -0.36850  -0.36228  -0.35445  -0.34969  -0.34001
 Alpha  occ. eigenvalues --   -0.32402  -0.32321  -0.32111  -0.31630  -0.30906
 Alpha  occ. eigenvalues --   -0.30131  -0.27579  -0.24139  -0.19475
 Alpha virt. eigenvalues --   -0.06819  -0.01176   0.02354   0.05680   0.06632
 Alpha virt. eigenvalues --    0.09225   0.09485   0.10204   0.11613   0.12208
 Alpha virt. eigenvalues --    0.12497   0.12752   0.13171   0.13577   0.14095

 Mulliken charges:
               1
     1  O   -0.477342
     2  O   -0.557036
     3  O   -0.573597
     4  O   -0.579613
     5  C    0.274241
     6  C    0.182146
     7  C    0.018660
     8  C   -0.217995
     9  C   -0.168035
    10  C    0.112672
    11  C   -0.337754
    12  C   -0.172424
    13  C   -0.303780
    14  C   -0.292046
    15  C   -0.035583
    16  C    0.081427
    17  C   -0.370215
    18  C   -0.102101
    19  C   -0.065465
    20  C   -0.017964
    21  C    0.217151
    22  C   -0.174120
    23  C    0.146513
    24  C   -0.172465
    25  C   -0.012862
    26  C   -0.278767
    27  C   -0.296434
    28  C   -0.267808
    29  C   -0.135839
    30  C    0.024406
    31  C    0.130525
    32  C   -0.254387
    33  C   -0.406873
    34  C   -0.129714
    35  C    0.120653
    36  C   -0.343411
    37  C   -0.116178
    38  C   -0.066720
    39  C   -0.076503
    40  C   -0.077673
    41  C   -0.107108
    42  C   -0.133707
    43  C    0.098028
    44  C   -0.376529
    45  H    0.112006
    46  H    0.136240
    47  H    0.122473
    48  H    0.094922
    49  H    0.084191
    50  H    0.109047
    51  H    0.113953
    52  H    0.125188
    53  H    0.109442
    54  H    0.113562
    55  H    0.059701
    56  H    0.111940
    57  H    0.086613
    58  H    0.100246
    59  H    0.100161
    60  H    0.292004
    61  H    0.062250
    62  H    0.143704
    63  H    0.106115
    64  H    0.103730
    65  H    0.062529
    66  H    0.081481
    67  H    0.086351
    68  H    0.090622
    69  H    0.085751
    70  H    0.117947
    71  H    0.127563
    72  H    0.102347
    73  H    0.122750
    74  H    0.088162
    75  H    0.119410
    76  H    0.107336
    77  H    0.081452
    78  H    0.107272
    79  H    0.091962
    80  H    0.122784
    81  H    0.078339
    82  H    0.306074
    83  H    0.304178
    84  H    0.114102
    85  H    0.100904
    86  H    0.140302
    87  H    0.100533
    88  H    0.074991
    89  H    0.093073
    90  H    0.134579
    91  H    0.111351
    92  H    0.054298
    93  H    0.087915
    94  H    0.100383
    95  H    0.091156
    96  H    0.095640
    97  H    0.064149
    98  H    0.105881
    99  H    0.121280
   100  H    0.129289
 Sum of Mulliken charges =  -0.00000

 Dipole moment (field-independent basis, Debye):
    X=              4.3995    Y=             -0.0925    Z=              0.9886  Tot=              4.5102
 Quadrupole moment (field-independent basis, Debye-Ang):
   XX=           -272.0456   YY=           -260.0524   ZZ=           -282.0255
   XY=              5.1931   XZ=             44.2075   YZ=             -1.2888

 Normal termination of Gaussian 16 at Fri Aug  2 08:51:13 2019.
