 Gaussian 16, Revision A.03,
 Gaussian 16:  ES64L-G16RevA.03 25-Dec-2016

 -------------------------------------
 # td=(NStates=1) CAM-B3LYP/6-31G(d,p)
 -------------------------------------

 --
 TD
 --
 Symbolic Z-matrix:
 Charge =  0 Multiplicity = 1

                         Standard orientation:
 ---------------------------------------------------------------------
 Center     Atomic      Atomic             Coordinates (Angstroms)
 Number     Number       Type             X           Y           Z
 ---------------------------------------------------------------------
      1          8           0      -11.690248    0.309341   -1.485404
      2          8           0      -13.085758   -2.407456    1.474721
      3          8           0       10.529325   -0.987546   -2.031972
      4          8           0       14.514838   -0.882524   -0.132573
      5          6           0      -11.065594   -0.090805   -0.283183
      6          6           0      -11.692128   -1.150402   -1.099734
      7          6           0      -11.621651    0.395854    0.954170
      8          6           0      -13.046192   -1.649182   -0.779111
      9          6           0      -13.222002    0.040214    0.876486
     10          6           0      -13.520611   -1.415324    0.515088
     11          6           0      -10.834065   -2.040141   -2.096146
     12          6           0       -9.554970    0.102346   -0.313610
     13          6           0      -11.135075   -0.056614    2.258938
     14          6           0      -11.703422    1.957600    0.956245
     15          6           0       -8.646178   -0.770138    0.099158
     16          6           0       -7.168758   -0.565300    0.019258
     17          6           0       -6.373691   -1.757096    0.400302
     18          6           0       -6.569693    0.637314   -0.289913
     19          6           0       -5.196334    0.900714   -0.171630
     20          6           0       11.913308    0.069638    1.346855
     21          6           0       11.641105   -0.552888   -1.217189
     22          6           0       12.716605   -1.336487    1.530573
     23          6           0       13.378898   -1.707753    0.221992
     24          6           0       12.424970   -1.775306   -0.910167
     25          6           0       11.146559    0.085123    0.051784
     26          6           0       11.066932    0.177327    2.584460
     27          6           0       12.967031    1.153438    1.301456
     28          6           0       12.352472    0.563429   -2.027389
     29          6           0       -4.653772    2.173777   -0.425556
     30          6           0        9.878171    0.557963    0.057177
     31          6           0       -3.241306    2.475229   -0.468241
     32          6           0        8.651284    0.917408   -0.016352
     33          6           0       -3.017141    3.940544   -0.633289
     34          6           0       -2.330259    1.518572   -0.334923
     35          6           0        7.500330    0.138573    0.035149
     36          6           0        7.670141   -1.349104    0.076219
     37          6           0        6.194558    0.785227   -0.149865
     38          6           0       -1.000758    1.751463   -0.251745
     39          6           0        4.953181    0.143065    0.026835
     40          6           0        0.114294    0.739998   -0.081190
     41          6           0        3.697853    0.861976   -0.090785
     42          6           0        1.401806    1.016488   -0.249550
     43          6           0        2.469690    0.243980   -0.120135
     44          6           0        2.201293   -1.274576    0.076108
     45          1           0      -12.731191   -2.729841   -1.056632
     46          1           0      -13.831336   -1.286729   -1.614236
     47          1           0      -13.824790    0.187992    1.773243
     48          1           0      -13.641909    0.637062   -0.197391
     49          1           0      -14.809098   -1.680865    0.585054
     50          1           0      -10.443088   -2.937363   -1.547024
     51          1           0      -11.426697   -2.688396   -2.892218
     52          1           0      -10.224817   -1.214656   -2.514212
     53          1           0       -9.457836    1.156649   -0.806343
     54          1           0       -9.918167    0.113939    2.305433
     55          1           0      -11.575091    0.417121    3.082722
     56          1           0      -11.152724   -1.013783    2.262854
     57          1           0      -12.379633    2.147225    0.048025
     58          1           0      -12.356862    2.395186    1.693187
     59          1           0      -10.740781    2.251047    1.036950
     60          1           0      -12.141968   -2.445027    1.156908
     61          1           0       -9.042364   -1.653832    0.346690
     62          1           0       -6.019332   -2.311304   -0.534577
     63          1           0       -5.603893   -1.577321    1.102939
     64          1           0       -6.956587   -2.692919    0.833937
     65          1           0       -7.141694    1.496271   -0.747849
     66          1           0       -4.701238   -0.031395    0.229189
     67          1           0       13.423460   -1.421291    2.352510
     68          1           0       12.094673   -1.979440    1.890442
     69          1           0       13.597098   -2.859292    0.524462
     70          1           0       13.031281   -2.030831   -1.820335
     71          1           0       11.721030   -2.707148   -0.896256
     72          1           0       11.647489    0.075293    3.492060
     73          1           0       10.492922    1.154527    2.584570
     74          1           0       10.390660   -0.547896    2.646102
     75          1           0       13.438064    1.050876    0.496804
     76          1           0       12.640189    2.214152    1.619605
     77          1           0       13.608156    1.148426    2.353262
     78          1           0       12.827703   -0.048293   -2.796376
     79          1           0       11.674790    1.197253   -2.540318
     80          1           0       13.038872    0.985479   -1.432092
     81          1           0       -5.301645    2.822997   -0.622940
     82          1           0        9.973184   -0.247637   -2.158877
     83          1           0       15.194368   -1.369441    0.632472
     84          1           0        8.608106    2.091912    0.043331
     85          1           0       -2.335947    4.205761    0.150886
     86          1           0       -2.663962    3.936296   -1.658863
     87          1           0       -3.739385    4.611029   -0.501071
     88          1           0       -2.545583    0.552339   -0.194861
     89          1           0        6.651888   -1.859567   -0.118039
     90          1           0        8.600715   -1.800438   -0.381247
     91          1           0        7.838104   -1.571403    1.165171
     92          1           0        6.146171    1.862315   -0.072283
     93          1           0       -0.746209    2.807069   -0.476464
     94          1           0        4.926848   -0.944961    0.047115
     95          1           0       -0.256984   -0.420796    0.277304
     96          1           0        3.715995    1.986359   -0.061530
     97          1           0        1.529839    2.178901   -0.206830
     98          1           0        1.115024   -1.552234   -0.490075
     99          1           0        3.110303   -1.846582   -0.405105
    100          1           0        2.047337   -1.604187    1.141346
 ---------------------------------------------------------------------

 SCF Done:  E(RCAM-B3LYP) =  -1857.16739992     A.U. after   16 cycles

 Excitation energies and oscillator strengths:

 Excited State   1:      Singlet-A      1.8360 eV  675.28 nm  f=3.2159  <S**2>=0.000
     163 ->166        -0.11997
     164 ->165         0.70489
     164 <-165        -0.13175
 This state for optimization and/or second-order correction.
 Total Energy, E(TD-HF/TD-DFT) =  -1857.09992660
 Copying the excited state density for this state as the 1-particle RhoCI density.

 The electronic state is 1-A.
 Alpha  occ. eigenvalues --  -19.24476 -19.22732 -19.22144 -19.20344 -10.32997
 Alpha  occ. eigenvalues --  -10.32339 -10.32204 -10.31627 -10.31490 -10.28361
 Alpha  occ. eigenvalues --  -10.28150 -10.28112 -10.28084 -10.28038 -10.27398
 Alpha  occ. eigenvalues --  -10.27349 -10.27171 -10.27040 -10.26972 -10.26929
 Alpha  occ. eigenvalues --  -10.26921 -10.26849 -10.26794 -10.26710 -10.26709
 Alpha  occ. eigenvalues --  -10.26648 -10.26538 -10.26458 -10.26450 -10.26399
 Alpha  occ. eigenvalues --  -10.26346 -10.26255 -10.26028 -10.25778 -10.25300
 Alpha  occ. eigenvalues --  -10.25045 -10.24507 -10.24427 -10.23959 -10.23891
 Alpha  occ. eigenvalues --  -10.23849 -10.23849 -10.23273 -10.22950  -1.15010
 Alpha  occ. eigenvalues --   -1.09809  -1.09696  -1.08623  -0.93338  -0.93175
 Alpha  occ. eigenvalues --   -0.92457  -0.92016  -0.91122  -0.90722  -0.88933
 Alpha  occ. eigenvalues --   -0.86955  -0.86803  -0.86001  -0.84673  -0.83599
 Alpha  occ. eigenvalues --   -0.82499  -0.81356  -0.80918  -0.78885  -0.77665
 Alpha  occ. eigenvalues --   -0.77440  -0.77144  -0.76854  -0.76580  -0.75777
 Alpha  occ. eigenvalues --   -0.75413  -0.75232  -0.72552  -0.70761  -0.69818
 Alpha  occ. eigenvalues --   -0.68669  -0.67348  -0.65599  -0.65020  -0.64218
 Alpha  occ. eigenvalues --   -0.63913  -0.61617  -0.61533  -0.60251  -0.59696
 Alpha  occ. eigenvalues --   -0.58670  -0.58603  -0.57830  -0.56831  -0.56266
 Alpha  occ. eigenvalues --   -0.55953  -0.55606  -0.55341  -0.54966  -0.54752
 Alpha  occ. eigenvalues --   -0.54032  -0.53777  -0.53062  -0.52416  -0.52217
 Alpha  occ. eigenvalues --   -0.52089  -0.51924  -0.51213  -0.50900  -0.50803
 Alpha  occ. eigenvalues --   -0.50120  -0.50012  -0.49822  -0.49268  -0.48825
 Alpha  occ. eigenvalues --   -0.48285  -0.47776  -0.47634  -0.47346  -0.47178
 Alpha  occ. eigenvalues --   -0.46664  -0.46438  -0.46126  -0.45520  -0.45363
 Alpha  occ. eigenvalues --   -0.45315  -0.44559  -0.44363  -0.43827  -0.43604
 Alpha  occ. eigenvalues --   -0.43477  -0.43327  -0.43126  -0.43018  -0.42951
 Alpha  occ. eigenvalues --   -0.42562  -0.42038  -0.41814  -0.41740  -0.41648
 Alpha  occ. eigenvalues --   -0.41248  -0.40824  -0.40161  -0.39941  -0.39847
 Alpha  occ. eigenvalues --   -0.39675  -0.39483  -0.39164  -0.39089  -0.38982
 Alpha  occ. eigenvalues --   -0.38326  -0.38016  -0.37665  -0.37401  -0.37192
 Alpha  occ. eigenvalues --   -0.36329  -0.36050  -0.35735  -0.34776  -0.34409
 Alpha  occ. eigenvalues --   -0.32801  -0.32420  -0.32323  -0.31327  -0.30823
 Alpha  occ. eigenvalues --   -0.28287  -0.27438  -0.24154  -0.17991
 Alpha virt. eigenvalues --   -0.06871  -0.01033   0.02989   0.05935   0.06725
 Alpha virt. eigenvalues --    0.07416   0.08059   0.10565   0.10882   0.11516
 Alpha virt. eigenvalues --    0.12215   0.12934   0.13214   0.13558   0.13831

 Mulliken charges:
               1
     1  O   -0.517371
     2  O   -0.529796
     3  O   -0.566030
     4  O   -0.533096
     5  C    0.226619
     6  C    0.181994
     7  C   -0.007269
     8  C   -0.199253
     9  C   -0.194538
    10  C    0.153127
    11  C   -0.331975
    12  C   -0.094729
    13  C   -0.267396
    14  C   -0.292113
    15  C   -0.068318
    16  C    0.077972
    17  C   -0.395351
    18  C   -0.107367
    19  C   -0.055831
    20  C    0.004610
    21  C    0.238461
    22  C   -0.155739
    23  C    0.112542
    24  C   -0.192935
    25  C   -0.057628
    26  C   -0.308403
    27  C   -0.258979
    28  C   -0.284773
    29  C   -0.103407
    30  C    0.148508
    31  C    0.060949
    32  C   -0.311514
    33  C   -0.363978
    34  C   -0.046543
    35  C    0.126369
    36  C   -0.388431
    37  C   -0.109222
    38  C   -0.127922
    39  C   -0.104505
    40  C   -0.113870
    41  C   -0.130541
    42  C   -0.102088
    43  C    0.150957
    44  C   -0.358528
    45  H    0.090831
    46  H    0.128690
    47  H    0.105611
    48  H    0.089100
    49  H    0.052563
    50  H    0.111147
    51  H    0.106662
    52  H    0.146035
    53  H    0.111937
    54  H    0.072080
    55  H    0.120423
    56  H    0.093235
    57  H    0.111226
    58  H    0.107907
    59  H    0.104103
    60  H    0.292093
    61  H    0.071529
    62  H    0.127090
    63  H    0.136174
    64  H    0.096306
    65  H    0.081964
    66  H    0.081127
    67  H    0.079296
    68  H    0.103543
    69  H    0.058545
    70  H    0.112685
    71  H    0.120263
    72  H    0.095159
    73  H    0.094556
    74  H    0.110993
    75  H    0.129923
    76  H    0.085439
    77  H    0.055477
    78  H    0.106369
    79  H    0.103327
    80  H    0.121162
    81  H    0.057095
    82  H    0.301464
    83  H    0.320042
    84  H    0.102964
    85  H    0.125325
    86  H    0.136551
    87  H    0.121271
    88  H    0.070400
    89  H    0.101983
    90  H    0.145624
    91  H    0.118981
    92  H    0.080754
    93  H    0.076115
    94  H    0.077365
    95  H    0.062536
    96  H    0.086864
    97  H    0.075378
    98  H    0.093132
    99  H    0.101028
   100  H    0.127897
 Sum of Mulliken charges =  -0.00000

 Dipole moment (field-independent basis, Debye):
    X=              1.8074    Y=             -0.9139    Z=              1.9621  Tot=              2.8199
 Quadrupole moment (field-independent basis, Debye-Ang):
   XX=           -276.1914   YY=           -255.6494   ZZ=           -278.0698
   XY=            -14.6229   XZ=             35.8954   YZ=             -1.1524

 Normal termination of Gaussian 16 at Tue Jul 30 00:58:01 2019.
