 Gaussian 16, Revision A.03,
 Gaussian 16:  ES64L-G16RevA.03 25-Dec-2016

 -------------------------------------
 # td=(NStates=1) CAM-B3LYP/6-31G(d,p)
 -------------------------------------

 --
 TD
 --
 Symbolic Z-matrix:
 Charge =  0 Multiplicity = 1

                         Standard orientation:
 ---------------------------------------------------------------------
 Center     Atomic      Atomic             Coordinates (Angstroms)
 Number     Number       Type             X           Y           Z
 ---------------------------------------------------------------------
      1          8           0      -11.764348    0.316494   -1.430095
      2          8           0      -13.129690   -2.388308    1.411222
      3          8           0       10.695259   -1.378059   -1.943473
      4          8           0       14.562293   -0.674293    0.101828
      5          6           0      -11.071661   -0.043575   -0.296581
      6          6           0      -11.643507   -1.143309   -1.154904
      7          6           0      -11.734440    0.407984    0.988772
      8          6           0      -13.095447   -1.801394   -0.918709
      9          6           0      -13.341430    0.020625    0.827822
     10          6           0      -13.607119   -1.462338    0.491720
     11          6           0      -10.867479   -1.802108   -2.237384
     12          6           0       -9.591363    0.105539   -0.372127
     13          6           0      -11.174838   -0.009728    2.360704
     14          6           0      -11.672560    2.014434    0.938485
     15          6           0       -8.630929   -0.694469    0.130925
     16          6           0       -7.248444   -0.626496    0.169595
     17          6           0       -6.514719   -1.899082    0.440244
     18          6           0       -6.642974    0.522227   -0.126870
     19          6           0       -5.295575    0.839556   -0.070857
     20          6           0       11.833714    0.244393    1.416644
     21          6           0       11.754335   -0.842931   -1.191881
     22          6           0       12.659979   -1.077040    1.705015
     23          6           0       13.571630   -1.598633    0.548338
     24          6           0       12.628116   -1.939061   -0.652415
     25          6           0       11.088012    0.091817    0.053324
     26          6           0       10.745007    0.505244    2.400614
     27          6           0       12.820782    1.402787    1.259600
     28          6           0       12.536903    0.173077   -2.084129
     29          6           0       -4.791042    2.122807   -0.361031
     30          6           0        9.935744    0.597562   -0.144234
     31          6           0       -3.374769    2.450596   -0.389862
     32          6           0        8.663241    0.868407   -0.404210
     33          6           0       -3.035700    3.854407   -0.809039
     34          6           0       -2.270900    1.542902   -0.343854
     35          6           0        7.533102    0.080477   -0.238985
     36          6           0        7.756112   -1.366868    0.109468
     37          6           0        6.304610    0.615904   -0.291533
     38          6           0       -0.929102    1.780314   -0.486681
     39          6           0        5.016343    0.047315   -0.089660
     40          6           0        0.067817    0.784879   -0.140799
     41          6           0        3.830123    0.668854   -0.270790
     42          6           0        1.416878    1.035196   -0.207569
     43          6           0        2.553619    0.246004   -0.058086
     44          6           0        2.226141   -1.185981    0.445927
     45          1           0      -13.031485   -2.832717   -1.067773
     46          1           0      -13.838028   -1.250901   -1.471096
     47          1           0      -13.708723    0.291858    1.804940
     48          1           0      -13.883022    0.842853    0.173082
     49          1           0      -14.731009   -1.776268    0.383043
     50          1           0      -10.696705   -2.860604   -1.864324
     51          1           0      -11.543250   -1.856879   -3.074648
     52          1           0       -9.809157   -1.206254   -2.531113
     53          1           0       -9.117032    1.195233   -0.606413
     54          1           0      -10.249493    0.129483    2.611520
     55          1           0      -11.795079    0.310580    3.104942
     56          1           0      -11.105607   -0.992129    2.730833
     57          1           0      -11.687384    2.543901   -0.015447
     58          1           0      -12.291459    2.319604    1.729525
     59          1           0      -10.768508    2.410302    1.167951
     60          1           0      -12.107824   -2.297462    1.588720
     61          1           0       -8.940884   -1.794057    0.382607
     62          1           0       -5.990750   -2.041529   -0.471436
     63          1           0       -5.765067   -1.672762    1.248559
     64          1           0       -7.145085   -2.854664    0.637199
     65          1           0       -7.271835    1.286214   -0.408000
     66          1           0       -4.489891    0.175065    0.181430
     67          1           0       13.251603   -0.913014    2.592600
     68          1           0       11.964506   -2.021934    2.104380
     69          1           0       14.065755   -2.402278    0.965739
     70          1           0       13.393714   -2.127073   -1.426610
     71          1           0       11.829576   -2.704470   -0.474487
     72          1           0       11.417063    0.625405    3.356409
     73          1           0       10.266179    1.443910    2.239693
     74          1           0       10.030834   -0.445831    2.486643
     75          1           0       13.632876    1.264063    0.611458
     76          1           0       12.419332    2.369126    0.993671
     77          1           0       13.303945    1.636678    2.219801
     78          1           0       12.912453   -0.276388   -2.947928
     79          1           0       12.030948    1.021704   -2.447375
     80          1           0       13.474563    0.764888   -1.483175
     81          1           0       -5.511699    2.850697   -0.804952
     82          1           0       10.043867   -0.624669   -2.110857
     83          1           0       15.058505   -0.544954    0.921541
     84          1           0        8.409839    1.721219   -0.865332
     85          1           0       -2.630725    4.167321    0.271915
     86          1           0       -2.322378    3.871829   -1.573780
     87          1           0       -3.820119    4.540154   -0.942593
     88          1           0       -2.662177    0.589464   -0.008078
     89          1           0        7.003664   -2.089437   -0.010598
     90          1           0        8.534605   -1.652292   -0.760165
     91          1           0        8.372773   -1.520680    1.125577
     92          1           0        6.230999    1.682390   -0.589331
     93          1           0       -0.600978    2.688906   -0.882076
     94          1           0        4.979218   -1.033364    0.054128
     95          1           0       -0.177699   -0.134706    0.135430
     96          1           0        3.611273    1.759215   -0.725741
     97          1           0        1.543024    2.017707   -0.655975
     98          1           0        1.119554   -1.406933    0.638550
     99          1           0        2.558804   -1.974459   -0.394533
    100          1           0        2.876201   -1.399500    1.366049
 ---------------------------------------------------------------------

 SCF Done:  E(RCAM-B3LYP) =  -1857.33594604     A.U. after   16 cycles

 Excitation energies and oscillator strengths:

 Excited State   1:      Singlet-A      1.9262 eV  643.67 nm  f=3.1690  <S**2>=0.000
     163 ->166        -0.12197
     164 ->165         0.70171
     164 <-165        -0.11613
 This state for optimization and/or second-order correction.
 Total Energy, E(TD-HF/TD-DFT) =  -1857.26515947
 Copying the excited state density for this state as the 1-particle RhoCI density.

 The electronic state is 1-A.
 Alpha  occ. eigenvalues --  -19.23060 -19.21832 -19.21455 -19.21232 -10.32964
 Alpha  occ. eigenvalues --  -10.32253 -10.31781 -10.31735 -10.31269 -10.29270
 Alpha  occ. eigenvalues --  -10.28425 -10.28305 -10.27543 -10.27485 -10.27351
 Alpha  occ. eigenvalues --  -10.27133 -10.27078 -10.27021 -10.26798 -10.26779
 Alpha  occ. eigenvalues --  -10.26720 -10.26676 -10.26599 -10.26567 -10.26497
 Alpha  occ. eigenvalues --  -10.26390 -10.26344 -10.26315 -10.25982 -10.25975
 Alpha  occ. eigenvalues --  -10.25877 -10.25858 -10.25823 -10.25741 -10.25620
 Alpha  occ. eigenvalues --  -10.25603 -10.25452 -10.25421 -10.25131 -10.25008
 Alpha  occ. eigenvalues --  -10.23953 -10.23656 -10.23579 -10.23401  -1.15085
 Alpha  occ. eigenvalues --   -1.11589  -1.09883  -1.08773  -0.93528  -0.92961
 Alpha  occ. eigenvalues --   -0.92154  -0.91427  -0.90637  -0.89591  -0.87606
 Alpha  occ. eigenvalues --   -0.86264  -0.85897  -0.85632  -0.84467  -0.83027
 Alpha  occ. eigenvalues --   -0.82139  -0.81249  -0.80219  -0.78850  -0.78372
 Alpha  occ. eigenvalues --   -0.77280  -0.76949  -0.76102  -0.75759  -0.75635
 Alpha  occ. eigenvalues --   -0.75394  -0.74830  -0.72884  -0.70857  -0.70213
 Alpha  occ. eigenvalues --   -0.69132  -0.66967  -0.65502  -0.65300  -0.64902
 Alpha  occ. eigenvalues --   -0.64139  -0.62246  -0.61112  -0.60536  -0.59618
 Alpha  occ. eigenvalues --   -0.59022  -0.58926  -0.57999  -0.57489  -0.57402
 Alpha  occ. eigenvalues --   -0.56350  -0.55763  -0.55344  -0.54706  -0.54686
 Alpha  occ. eigenvalues --   -0.54035  -0.53023  -0.52787  -0.52384  -0.52177
 Alpha  occ. eigenvalues --   -0.51759  -0.51048  -0.50132  -0.49949  -0.49725
 Alpha  occ. eigenvalues --   -0.49522  -0.49161  -0.48743  -0.48442  -0.48345
 Alpha  occ. eigenvalues --   -0.48101  -0.48033  -0.47893  -0.47144  -0.46962
 Alpha  occ. eigenvalues --   -0.46731  -0.46334  -0.46058  -0.45935  -0.45822
 Alpha  occ. eigenvalues --   -0.45580  -0.45120  -0.44735  -0.44466  -0.43875
 Alpha  occ. eigenvalues --   -0.43695  -0.43287  -0.43214  -0.43023  -0.42808
 Alpha  occ. eigenvalues --   -0.42544  -0.41867  -0.41671  -0.41322  -0.41240
 Alpha  occ. eigenvalues --   -0.40822  -0.40626  -0.40364  -0.39852  -0.39800
 Alpha  occ. eigenvalues --   -0.39620  -0.39304  -0.39182  -0.39127  -0.38915
 Alpha  occ. eigenvalues --   -0.38837  -0.38457  -0.38217  -0.37438  -0.37202
 Alpha  occ. eigenvalues --   -0.36659  -0.36062  -0.35141  -0.34484  -0.33341
 Alpha  occ. eigenvalues --   -0.33005  -0.32361  -0.31707  -0.31100  -0.30659
 Alpha  occ. eigenvalues --   -0.30242  -0.27583  -0.24489  -0.18904
 Alpha virt. eigenvalues --   -0.06957  -0.01198   0.02913   0.07068   0.08255
 Alpha virt. eigenvalues --    0.09835   0.10238   0.10383   0.11939   0.11963
 Alpha virt. eigenvalues --    0.13264   0.13344   0.13651   0.14236   0.14559

 Mulliken charges:
               1
     1  O   -0.507736
     2  O   -0.558206
     3  O   -0.561779
     4  O   -0.524085
     5  C    0.271933
     6  C    0.173050
     7  C    0.010418
     8  C   -0.184528
     9  C   -0.203320
    10  C    0.165582
    11  C   -0.315789
    12  C   -0.130179
    13  C   -0.325424
    14  C   -0.327187
    15  C   -0.077378
    16  C    0.112256
    17  C   -0.376146
    18  C   -0.099070
    19  C   -0.063986
    20  C    0.034017
    21  C    0.282971
    22  C   -0.211453
    23  C    0.150381
    24  C   -0.202202
    25  C   -0.091438
    26  C   -0.290342
    27  C   -0.324419
    28  C   -0.311797
    29  C   -0.131096
    30  C    0.124736
    31  C    0.044907
    32  C   -0.276564
    33  C   -0.360952
    34  C   -0.094446
    35  C    0.169965
    36  C   -0.370005
    37  C   -0.127065
    38  C   -0.091721
    39  C   -0.118792
    40  C   -0.049429
    41  C   -0.088459
    42  C   -0.138002
    43  C    0.137542
    44  C   -0.372436
    45  H    0.109423
    46  H    0.120841
    47  H    0.099095
    48  H    0.109705
    49  H    0.084737
    50  H    0.094482
    51  H    0.126313
    52  H    0.107257
    53  H    0.074595
    54  H    0.121838
    55  H    0.118665
    56  H    0.084199
    57  H    0.122500
    58  H    0.104737
    59  H    0.110066
    60  H    0.310028
    61  H    0.048907
    62  H    0.142934
    63  H    0.123146
    64  H    0.106912
    65  H    0.069292
    66  H    0.081050
    67  H    0.083816
    68  H    0.076292
    69  H    0.098624
    70  H    0.117175
    71  H    0.124954
    72  H    0.070992
    73  H    0.126321
    74  H    0.099876
    75  H    0.136402
    76  H    0.105614
    77  H    0.080349
    78  H    0.110793
    79  H    0.100552
    80  H    0.096095
    81  H    0.091265
    82  H    0.316141
    83  H    0.309924
    84  H    0.096329
    85  H    0.112922
    86  H    0.131229
    87  H    0.114535
    88  H    0.067980
    89  H    0.116450
    90  H    0.106591
    91  H    0.102885
    92  H    0.072056
    93  H    0.089150
    94  H    0.088373
    95  H    0.061478
    96  H    0.069698
    97  H    0.062022
    98  H    0.107288
    99  H    0.098826
   100  H    0.113953
 Sum of Mulliken charges =  -0.00000

 Dipole moment (field-independent basis, Debye):
    X=              2.5378    Y=              0.1499    Z=              2.1707  Tot=              3.3429
 Quadrupole moment (field-independent basis, Debye-Ang):
   XX=           -267.1387   YY=           -262.3518   ZZ=           -274.2539
   XY=             -3.3274   XZ=             23.9094   YZ=             -4.7794

 Normal termination of Gaussian 16 at Wed Jul 31 13:56:08 2019.
