 Gaussian 16, Revision A.03,
 Gaussian 16:  ES64L-G16RevA.03 25-Dec-2016

 -------------------------------------
 # td=(NStates=1) CAM-B3LYP/6-31G(d,p)
 -------------------------------------

 --
 TD
 --
 Symbolic Z-matrix:
 Charge =  0 Multiplicity = 1

                         Standard orientation:
 ---------------------------------------------------------------------
 Center     Atomic      Atomic             Coordinates (Angstroms)
 Number     Number       Type             X           Y           Z
 ---------------------------------------------------------------------
      1          8           0      -11.721694    0.122646   -1.603140
      2          8           0      -13.270625   -2.246619    1.574346
      3          8           0       10.588022   -1.073054   -2.016374
      4          8           0       14.471100   -1.003809   -0.039817
      5          6           0      -11.007367   -0.135790   -0.310245
      6          6           0      -11.635461   -1.222648   -1.153646
      7          6           0      -11.825838    0.507648    0.832453
      8          6           0      -13.056561   -1.742849   -0.872733
      9          6           0      -13.369534    0.137271    0.716143
     10          6           0      -13.594138   -1.378165    0.466315
     11          6           0      -10.788357   -2.149062   -2.053536
     12          6           0       -9.523609    0.030185   -0.372186
     13          6           0      -11.116004   -0.074880    2.175852
     14          6           0      -11.637230    1.961631    0.881194
     15          6           0       -8.573251   -0.742920    0.245270
     16          6           0       -7.163558   -0.507011    0.137506
     17          6           0       -6.391823   -1.656518    0.716744
     18          6           0       -6.701589    0.730475   -0.074141
     19          6           0       -5.352881    0.965757   -0.224077
     20          6           0       11.957065    0.128730    1.395842
     21          6           0       11.684617   -0.604284   -1.190374
     22          6           0       12.696214   -1.153980    1.654360
     23          6           0       13.277356   -1.777432    0.291714
     24          6           0       12.357541   -1.930618   -0.893578
     25          6           0       11.114864    0.055329    0.049719
     26          6           0       10.986303    0.372150    2.515685
     27          6           0       12.990694    1.292651    1.343973
     28          6           0       12.526584    0.312882   -1.963255
     29          6           0       -4.684681    2.125833   -0.417586
     30          6           0        9.942288    0.461809    0.038000
     31          6           0       -3.282348    2.445199   -0.498421
     32          6           0        8.701374    0.934823   -0.255787
     33          6           0       -2.885491    3.856149   -0.721896
     34          6           0       -2.317739    1.449530   -0.338014
     35          6           0        7.461585    0.108062   -0.119138
     36          6           0        7.651474   -1.376564    0.095781
     37          6           0        6.288284    0.724528   -0.096547
     38          6           0       -0.949282    1.755721   -0.271817
     39          6           0        5.013589    0.100234   -0.156389
     40          6           0        0.030103    0.806298   -0.056449
     41          6           0        3.790371    0.774505   -0.300171
     42          6           0        1.371380    1.118719   -0.204187
     43          6           0        2.445393    0.254173   -0.108418
     44          6           0        2.275884   -1.210621    0.326314
     45          1           0      -12.964216   -2.718270   -1.023194
     46          1           0      -13.840201   -1.443456   -1.671039
     47          1           0      -13.820754    0.473542    1.778186
     48          1           0      -13.848989    0.462305   -0.106885
     49          1           0      -14.711338   -1.538693    0.594136
     50          1           0      -10.897171   -3.031834   -1.469144
     51          1           0      -11.201040   -2.092209   -3.162210
     52          1           0       -9.778054   -1.669400   -1.919531
     53          1           0       -9.293083    0.811974   -1.212228
     54          1           0      -10.022432    0.384579    2.050695
     55          1           0      -11.504589    0.491846    2.785356
     56          1           0      -11.128516   -1.206449    2.339781
     57          1           0      -12.023616    2.483103    0.110352
     58          1           0      -12.027151    2.367152    1.946386
     59          1           0      -10.424630    2.028893    1.036451
     60          1           0      -12.490436   -2.617178    1.292258
     61          1           0       -8.898786   -1.690164    0.694709
     62          1           0       -5.750207   -2.048161   -0.087052
     63          1           0       -5.861330   -1.434651    1.469169
     64          1           0       -6.919545   -2.583080    0.869276
     65          1           0       -7.389226    1.583178   -0.403914
     66          1           0       -4.818015    0.011497   -0.067248
     67          1           0       13.360834   -0.696519    2.294566
     68          1           0       12.007081   -2.011615    2.073319
     69          1           0       13.757450   -2.836441    0.531994
     70          1           0       13.038558   -2.179730   -1.682093
     71          1           0       11.602959   -2.708273   -0.791785
     72          1           0       11.333814    0.132696    3.701646
     73          1           0       10.595633    1.347256    2.251802
     74          1           0       10.010839   -0.305539    2.468263
     75          1           0       13.717496    1.105345    0.654407
     76          1           0       12.590862    2.264690    1.042892
     77          1           0       13.265846    1.269959    2.509233
     78          1           0       12.827163   -0.018966   -3.089806
     79          1           0       11.951390    1.317461   -2.227399
     80          1           0       13.467122    0.616959   -1.408877
     81          1           0       -5.360343    3.060896   -0.529280
     82          1           0       10.214098   -0.334450   -2.345774
     83          1           0       14.996937   -0.815547    0.597386
     84          1           0        8.888140    2.103256   -0.438413
     85          1           0       -2.303158    4.386701   -0.019767
     86          1           0       -1.983473    3.793093   -1.538497
     87          1           0       -3.826771    4.373697   -1.033925
     88          1           0       -2.517647    0.454585   -0.063724
     89          1           0        6.597284   -1.731373    0.091918
     90          1           0        8.571441   -1.845940   -0.262989
     91          1           0        7.949825   -1.382615    0.989670
     92          1           0        6.079466    1.720674   -0.510452
     93          1           0       -0.749510    2.643676   -0.168843
     94          1           0        4.929240   -0.838735    0.104882
     95          1           0       -0.496388   -0.228922    0.129957
     96          1           0        3.866879    1.784336   -0.833871
     97          1           0        1.612219    2.122008   -0.581904
     98          1           0        1.146087   -1.518518    0.514295
     99          1           0        2.851585   -1.768782   -0.385992
    100          1           0        2.848609   -1.174880    1.411106
 ---------------------------------------------------------------------

 SCF Done:  E(RCAM-B3LYP) =  -1857.19623429     A.U. after   15 cycles

 Excitation energies and oscillator strengths:

 Excited State   1:      Singlet-A      2.2471 eV  551.75 nm  f=3.1117  <S**2>=0.000
     163 ->166         0.14166
     164 ->165         0.69247
 This state for optimization and/or second-order correction.
 Total Energy, E(TD-HF/TD-DFT) =  -1857.11365432
 Copying the excited state density for this state as the 1-particle RhoCI density.

 The electronic state is 1-A.
 Alpha  occ. eigenvalues --  -19.20812 -19.20450 -19.20368 -19.20266 -10.32842
 Alpha  occ. eigenvalues --  -10.32002 -10.31864 -10.31607 -10.30181 -10.28403
 Alpha  occ. eigenvalues --  -10.28324 -10.28320 -10.27859 -10.27742 -10.27487
 Alpha  occ. eigenvalues --  -10.27359 -10.27328 -10.27232 -10.27128 -10.27057
 Alpha  occ. eigenvalues --  -10.27031 -10.26922 -10.26826 -10.26585 -10.26486
 Alpha  occ. eigenvalues --  -10.26369 -10.26294 -10.26135 -10.26095 -10.26065
 Alpha  occ. eigenvalues --  -10.25904 -10.25672 -10.25653 -10.25591 -10.25346
 Alpha  occ. eigenvalues --  -10.25331 -10.25301 -10.25143 -10.25123 -10.25011
 Alpha  occ. eigenvalues --  -10.24543 -10.24132 -10.23930 -10.23802  -1.12977
 Alpha  occ. eigenvalues --   -1.11542  -1.11011  -1.10091  -0.94178  -0.93192
 Alpha  occ. eigenvalues --   -0.92241  -0.91696  -0.90339  -0.90027  -0.88181
 Alpha  occ. eigenvalues --   -0.87607  -0.87085  -0.86426  -0.85195  -0.83546
 Alpha  occ. eigenvalues --   -0.82705  -0.81170  -0.80982  -0.78755  -0.77881
 Alpha  occ. eigenvalues --   -0.77678  -0.76740  -0.76279  -0.76257  -0.75610
 Alpha  occ. eigenvalues --   -0.75287  -0.74918  -0.73278  -0.71071  -0.70117
 Alpha  occ. eigenvalues --   -0.68922  -0.66800  -0.65108  -0.64321  -0.64098
 Alpha  occ. eigenvalues --   -0.63361  -0.63279  -0.61756  -0.61212  -0.60075
 Alpha  occ. eigenvalues --   -0.59699  -0.58432  -0.58147  -0.57554  -0.56537
 Alpha  occ. eigenvalues --   -0.56006  -0.55708  -0.55445  -0.54681  -0.53852
 Alpha  occ. eigenvalues --   -0.53711  -0.53285  -0.53156  -0.52361  -0.51864
 Alpha  occ. eigenvalues --   -0.51776  -0.51390  -0.51192  -0.50393  -0.50228
 Alpha  occ. eigenvalues --   -0.50119  -0.49055  -0.48977  -0.48448  -0.48232
 Alpha  occ. eigenvalues --   -0.47904  -0.47782  -0.47515  -0.47028  -0.46682
 Alpha  occ. eigenvalues --   -0.46191  -0.46064  -0.45944  -0.45347  -0.44998
 Alpha  occ. eigenvalues --   -0.44840  -0.44600  -0.44526  -0.44434  -0.44153
 Alpha  occ. eigenvalues --   -0.43550  -0.43433  -0.43265  -0.43106  -0.43019
 Alpha  occ. eigenvalues --   -0.42930  -0.42600  -0.42560  -0.42239  -0.41513
 Alpha  occ. eigenvalues --   -0.41249  -0.41194  -0.41126  -0.40145  -0.40017
 Alpha  occ. eigenvalues --   -0.39879  -0.39649  -0.39580  -0.39115  -0.38571
 Alpha  occ. eigenvalues --   -0.38427  -0.38219  -0.38112  -0.37392  -0.37081
 Alpha  occ. eigenvalues --   -0.36163  -0.35702  -0.34871  -0.34203  -0.33937
 Alpha  occ. eigenvalues --   -0.33160  -0.32173  -0.31397  -0.30991  -0.30624
 Alpha  occ. eigenvalues --   -0.30178  -0.27825  -0.24465  -0.19778
 Alpha virt. eigenvalues --   -0.05691  -0.00975   0.02714   0.06758   0.08160
 Alpha virt. eigenvalues --    0.09518   0.10218   0.11149   0.11797   0.12540
 Alpha virt. eigenvalues --    0.12937   0.13070   0.13277   0.13588   0.13913

 Mulliken charges:
               1
     1  O   -0.518254
     2  O   -0.536002
     3  O   -0.549338
     4  O   -0.544175
     5  C    0.216023
     6  C    0.200560
     7  C    0.005133
     8  C   -0.209306
     9  C   -0.165008
    10  C    0.132635
    11  C   -0.313671
    12  C   -0.152883
    13  C   -0.273812
    14  C   -0.283827
    15  C   -0.082065
    16  C    0.074930
    17  C   -0.380885
    18  C   -0.084997
    19  C   -0.062877
    20  C   -0.004771
    21  C    0.247270
    22  C   -0.165149
    23  C    0.142603
    24  C   -0.177001
    25  C   -0.056232
    26  C   -0.295475
    27  C   -0.301447
    28  C   -0.318107
    29  C   -0.141481
    30  C    0.116278
    31  C    0.108647
    32  C   -0.253137
    33  C   -0.380545
    34  C   -0.110461
    35  C    0.088906
    36  C   -0.367694
    37  C   -0.104522
    38  C   -0.040933
    39  C   -0.088161
    40  C   -0.087723
    41  C   -0.135394
    42  C   -0.129245
    43  C    0.100434
    44  C   -0.354180
    45  H    0.097251
    46  H    0.120974
    47  H    0.082688
    48  H    0.116272
    49  H    0.088815
    50  H    0.100877
    51  H    0.119593
    52  H    0.118454
    53  H    0.120596
    54  H    0.085861
    55  H    0.102228
    56  H    0.091238
    57  H    0.127033
    58  H    0.083830
    59  H    0.077879
    60  H    0.286077
    61  H    0.089170
    62  H    0.119296
    63  H    0.144432
    64  H    0.112424
    65  H    0.088142
    66  H    0.072882
    67  H    0.091668
    68  H    0.088809
    69  H    0.066218
    70  H    0.133392
    71  H    0.132103
    72  H    0.076036
    73  H    0.116153
    74  H    0.094893
    75  H    0.121901
    76  H    0.106854
    77  H    0.088170
    78  H    0.099910
    79  H    0.073878
    80  H    0.139615
    81  H    0.063252
    82  H    0.287239
    83  H    0.285194
    84  H    0.111360
    85  H    0.139657
    86  H    0.101406
    87  H    0.109810
    88  H    0.074570
    89  H    0.108268
    90  H    0.147145
    91  H    0.146712
    92  H    0.080879
    93  H    0.053477
    94  H    0.064031
    95  H    0.077499
    96  H    0.074859
    97  H    0.086980
    98  H    0.108008
    99  H    0.132985
   100  H    0.106393
 Sum of Mulliken charges =  -0.00000

 Dipole moment (field-independent basis, Debye):
    X=              4.7783    Y=             -0.5951    Z=              1.2348  Tot=              4.9710
 Quadrupole moment (field-independent basis, Debye-Ang):
   XX=           -277.1570   YY=           -258.3153   ZZ=           -279.4911
   XY=             11.9710   XZ=             28.2338   YZ=             -3.2063

 Normal termination of Gaussian 16 at Mon Jul 29 18:34:22 2019.
