 Gaussian 16, Revision A.03,
 Gaussian 16:  ES64L-G16RevA.03 25-Dec-2016

 -------------------------------------
 # td=(NStates=1) CAM-B3LYP/6-31G(d,p)
 -------------------------------------

 --
 TD
 --
 Symbolic Z-matrix:
 Charge =  0 Multiplicity = 1

                         Standard orientation:
 ---------------------------------------------------------------------
 Center     Atomic      Atomic             Coordinates (Angstroms)
 Number     Number       Type             X           Y           Z
 ---------------------------------------------------------------------
      1          8           0      -11.680574    0.162417   -1.679224
      2          8           0      -12.982339   -2.406784    1.524689
      3          8           0       10.547477   -1.019197   -2.025155
      4          8           0       14.503362   -1.030330   -0.250146
      5          6           0      -11.075114   -0.164870   -0.427391
      6          6           0      -11.511559   -1.217994   -1.278781
      7          6           0      -11.828190    0.412239    0.868793
      8          6           0      -12.960429   -1.887604   -0.930709
      9          6           0      -13.276846   -0.097518    0.893056
     10          6           0      -13.473091   -1.557415    0.435384
     11          6           0      -10.695482   -2.074486   -2.021527
     12          6           0       -9.520487    0.112009   -0.376103
     13          6           0      -11.131197    0.132915    2.237048
     14          6           0      -11.890108    1.928266    0.608600
     15          6           0       -8.603736   -0.708304    0.271727
     16          6           0       -7.166688   -0.555688    0.377553
     17          6           0       -6.282473   -1.736810    0.669579
     18          6           0       -6.632967    0.612869   -0.036851
     19          6           0       -5.280699    0.875189   -0.156511
     20          6           0       11.878528   -0.126542    1.438224
     21          6           0       11.595098   -0.515425   -1.176033
     22          6           0       12.702341   -1.397402    1.470008
     23          6           0       13.422620   -1.891406    0.113602
     24          6           0       12.441914   -1.859425   -1.067625
     25          6           0       11.048352   -0.015210    0.115160
     26          6           0       11.107867    0.071833    2.669319
     27          6           0       12.798795    1.245248    1.278514
     28          6           0       12.356744    0.531690   -2.040055
     29          6           0       -4.703473    2.112209   -0.472580
     30          6           0        9.831656    0.570609    0.010384
     31          6           0       -3.344266    2.414628   -0.569872
     32          6           0        8.640194    0.965250   -0.017934
     33          6           0       -3.000968    3.944255   -0.572500
     34          6           0       -2.281835    1.581875   -0.385271
     35          6           0        7.412860    0.263635   -0.056120
     36          6           0        7.593954   -1.215496    0.238271
     37          6           0        6.234088    0.835992   -0.022256
     38          6           0       -0.957595    1.840308   -0.250549
     39          6           0        4.880166    0.132080    0.062212
     40          6           0        0.054091    0.937163   -0.212523
     41          6           0        3.780783    0.920362    0.023687
     42          6           0        1.479729    1.262744   -0.133067
     43          6           0        2.524336    0.311489   -0.026951
     44          6           0        2.395589   -1.110411    0.116859
     45          1           0      -13.130455   -2.877088   -0.886266
     46          1           0      -13.582359   -1.310866   -1.808469
     47          1           0      -13.699029   -0.029561    1.912155
     48          1           0      -13.905290    0.515272    0.257590
     49          1           0      -14.448810   -1.772675    0.556799
     50          1           0      -10.591381   -3.030020   -1.558528
     51          1           0      -11.246206   -2.294355   -2.998172
     52          1           0       -9.720020   -1.369019   -2.474237
     53          1           0       -9.320531    0.897030   -1.001580
     54          1           0      -10.023919    0.456743    2.124913
     55          1           0      -11.538677    0.567438    3.033336
     56          1           0      -11.200799   -1.013678    2.456313
     57          1           0      -12.587765    2.313076   -0.349292
     58          1           0      -12.209537    2.426781    1.573987
     59          1           0      -10.793158    2.239546    0.485262
     60          1           0      -12.039522   -2.532347    1.244057
     61          1           0       -9.055199   -1.654547    0.658313
     62          1           0       -5.649980   -1.781815   -0.131666
     63          1           0       -5.793638   -1.563293    1.512430
     64          1           0       -6.940233   -2.682645    0.774447
     65          1           0       -7.243210    1.378189   -0.208501
     66          1           0       -4.498587   -0.006631    0.106271
     67          1           0       13.403652   -1.283482    2.245274
     68          1           0       11.916147   -2.158543    1.881183
     69          1           0       13.849147   -2.827645    0.229335
     70          1           0       12.850023   -2.378116   -2.032176
     71          1           0       11.590277   -2.566334   -0.796352
     72          1           0       11.796924    0.036954    3.530013
     73          1           0       10.356742    0.931440    2.596434
     74          1           0       10.388158   -0.742317    2.581764
     75          1           0       13.479646    1.329402    0.456433
     76          1           0       12.113593    2.160963    1.450738
     77          1           0       13.544456    1.338157    2.212826
     78          1           0       12.292622    0.107931   -3.070104
     79          1           0       11.642334    1.357640   -2.090288
     80          1           0       13.268351    0.903334   -1.496533
     81          1           0       -5.391988    2.948455   -0.557026
     82          1           0        9.959999   -0.215115   -2.404567
     83          1           0       15.189862   -1.161414    0.322799
     84          1           0        8.498026    1.974812   -0.190885
     85          1           0       -2.669638    4.330457    0.578369
     86          1           0       -2.237938    4.565843   -1.248607
     87          1           0       -3.889165    4.675186   -0.564370
     88          1           0       -2.611539    0.450215   -0.144905
     89          1           0        6.745308   -1.830559   -0.258190
     90          1           0        8.402476   -1.564569   -0.320043
     91          1           0        7.755299   -1.455960    1.252657
     92          1           0        6.301365    1.958742   -0.257665
     93          1           0       -0.746737    3.002354   -0.003205
     94          1           0        4.879759   -0.978836    0.337713
     95          1           0       -0.233449   -0.283055   -0.501650
     96          1           0        3.983728    2.002126   -0.124636
     97          1           0        1.738237    2.239616    0.081746
     98          1           0        1.244946   -1.352866    0.082042
     99          1           0        2.520728   -1.740707   -0.771584
    100          1           0        2.808533   -1.595580    1.152370
 ---------------------------------------------------------------------

 SCF Done:  E(RCAM-B3LYP) =  -1857.29942592     A.U. after   15 cycles

 Excitation energies and oscillator strengths:

 Excited State   1:      Singlet-A      2.3083 eV  537.12 nm  f=2.8788  <S**2>=0.000
     163 ->166        -0.13464
     164 ->165         0.69450
 This state for optimization and/or second-order correction.
 Total Energy, E(TD-HF/TD-DFT) =  -1857.21459621
 Copying the excited state density for this state as the 1-particle RhoCI density.

 The electronic state is 1-A.
 Alpha  occ. eigenvalues --  -19.23089 -19.21453 -19.21117 -19.20989 -10.32250
 Alpha  occ. eigenvalues --  -10.32164 -10.31638 -10.31283 -10.29124 -10.28601
 Alpha  occ. eigenvalues --  -10.28538 -10.28374 -10.27968 -10.27738 -10.27714
 Alpha  occ. eigenvalues --  -10.27642 -10.27493 -10.27446 -10.27309 -10.27220
 Alpha  occ. eigenvalues --  -10.27150 -10.27048 -10.26988 -10.26774 -10.26720
 Alpha  occ. eigenvalues --  -10.26623 -10.26607 -10.26524 -10.26419 -10.26260
 Alpha  occ. eigenvalues --  -10.26211 -10.26119 -10.25978 -10.25937 -10.25838
 Alpha  occ. eigenvalues --  -10.25725 -10.25081 -10.24987 -10.24850 -10.24759
 Alpha  occ. eigenvalues --  -10.24613 -10.24205 -10.23973 -10.23630  -1.16041
 Alpha  occ. eigenvalues --   -1.10966  -1.08525  -1.07607  -0.92980  -0.92803
 Alpha  occ. eigenvalues --   -0.92389  -0.91324  -0.90931  -0.89654  -0.87244
 Alpha  occ. eigenvalues --   -0.87171  -0.85463  -0.84860  -0.84583  -0.83108
 Alpha  occ. eigenvalues --   -0.82200  -0.81604  -0.80209  -0.78647  -0.76666
 Alpha  occ. eigenvalues --   -0.76586  -0.76154  -0.76051  -0.75697  -0.75008
 Alpha  occ. eigenvalues --   -0.74541  -0.73907  -0.73512  -0.70725  -0.70104
 Alpha  occ. eigenvalues --   -0.68641  -0.66850  -0.65759  -0.64280  -0.63774
 Alpha  occ. eigenvalues --   -0.63178  -0.61339  -0.60518  -0.60140  -0.59466
 Alpha  occ. eigenvalues --   -0.58569  -0.58186  -0.57984  -0.56921  -0.56501
 Alpha  occ. eigenvalues --   -0.56045  -0.55533  -0.55102  -0.54489  -0.54379
 Alpha  occ. eigenvalues --   -0.53820  -0.53006  -0.52528  -0.51936  -0.51781
 Alpha  occ. eigenvalues --   -0.51427  -0.51325  -0.50516  -0.50298  -0.49497
 Alpha  occ. eigenvalues --   -0.49314  -0.49199  -0.49097  -0.48955  -0.48646
 Alpha  occ. eigenvalues --   -0.47963  -0.47732  -0.47403  -0.47222  -0.46604
 Alpha  occ. eigenvalues --   -0.45966  -0.45735  -0.45658  -0.45353  -0.45301
 Alpha  occ. eigenvalues --   -0.45032  -0.44228  -0.43718  -0.43662  -0.43247
 Alpha  occ. eigenvalues --   -0.43123  -0.42953  -0.42182  -0.42063  -0.41910
 Alpha  occ. eigenvalues --   -0.41733  -0.41514  -0.41305  -0.41139  -0.40827
 Alpha  occ. eigenvalues --   -0.40732  -0.40598  -0.40145  -0.39909  -0.39856
 Alpha  occ. eigenvalues --   -0.39521  -0.39312  -0.38996  -0.38753  -0.38638
 Alpha  occ. eigenvalues --   -0.38193  -0.38056  -0.37836  -0.37133  -0.36669
 Alpha  occ. eigenvalues --   -0.36311  -0.36097  -0.35417  -0.34602  -0.34274
 Alpha  occ. eigenvalues --   -0.33057  -0.32758  -0.32541  -0.31639  -0.31002
 Alpha  occ. eigenvalues --   -0.28594  -0.27854  -0.24808  -0.20283
 Alpha virt. eigenvalues --   -0.05843  -0.00617   0.03540   0.05923   0.06678
 Alpha virt. eigenvalues --    0.08728   0.10306   0.10655   0.10927   0.11852
 Alpha virt. eigenvalues --    0.12224   0.12533   0.13467   0.13774   0.14197

 Mulliken charges:
               1
     1  O   -0.507330
     2  O   -0.552440
     3  O   -0.570887
     4  O   -0.533728
     5  C    0.200419
     6  C    0.255342
     7  C    0.020420
     8  C   -0.212301
     9  C   -0.170744
    10  C    0.128233
    11  C   -0.336055
    12  C   -0.119277
    13  C   -0.305760
    14  C   -0.291886
    15  C   -0.090380
    16  C    0.061470
    17  C   -0.359441
    18  C   -0.064829
    19  C   -0.079540
    20  C    0.032776
    21  C    0.238348
    22  C   -0.190409
    23  C    0.145398
    24  C   -0.182355
    25  C   -0.048126
    26  C   -0.306253
    27  C   -0.302020
    28  C   -0.301387
    29  C   -0.136628
    30  C    0.170120
    31  C    0.124749
    32  C   -0.315945
    33  C   -0.386543
    34  C   -0.107927
    35  C    0.143844
    36  C   -0.384283
    37  C   -0.136926
    38  C   -0.071329
    39  C   -0.108148
    40  C   -0.090674
    41  C   -0.094597
    42  C   -0.123466
    43  C    0.143262
    44  C   -0.393489
    45  H    0.111939
    46  H    0.116722
    47  H    0.099829
    48  H    0.093597
    49  H    0.105720
    50  H    0.118009
    51  H    0.113179
    52  H    0.101304
    53  H    0.109412
    54  H    0.101080
    55  H    0.118856
    56  H    0.084454
    57  H    0.103382
    58  H    0.095712
    59  H    0.086200
    60  H    0.294452
    61  H    0.068111
    62  H    0.141720
    63  H    0.141609
    64  H    0.095109
    65  H    0.075574
    66  H    0.070522
    67  H    0.090933
    68  H    0.086375
    69  H    0.088500
    70  H    0.107694
    71  H    0.107122
    72  H    0.107353
    73  H    0.111019
    74  H    0.103595
    75  H    0.124874
    76  H    0.097671
    77  H    0.055190
    78  H    0.116360
    79  H    0.080014
    80  H    0.129238
    81  H    0.090071
    82  H    0.303168
    83  H    0.295955
    84  H    0.090076
    85  H    0.086625
    86  H    0.116443
    87  H    0.102716
    88  H    0.063919
    89  H    0.086113
    90  H    0.136220
    91  H    0.125871
    92  H    0.066961
    93  H    0.085994
    94  H    0.106488
    95  H    0.067630
    96  H    0.094367
    97  H    0.090020
    98  H    0.090961
    99  H    0.136750
   100  H    0.121948
 Sum of Mulliken charges =  -0.00000

 Dipole moment (field-independent basis, Debye):
    X=              2.5292    Y=             -1.1102    Z=              1.4596  Tot=              3.1240
 Quadrupole moment (field-independent basis, Debye-Ang):
   XX=           -271.8004   YY=           -257.9289   ZZ=           -278.3838
   XY=             -2.0722   XZ=             29.2963   YZ=              0.6326

 Normal termination of Gaussian 16 at Thu Aug  1 06:20:12 2019.
