 Gaussian 16, Revision A.03,
 Gaussian 16:  ES64L-G16RevA.03 25-Dec-2016

 -------------------------------------
 # td=(NStates=1) CAM-B3LYP/6-31G(d,p)
 -------------------------------------

 --
 TD
 --
 Symbolic Z-matrix:
 Charge =  0 Multiplicity = 1

                         Standard orientation:
 ---------------------------------------------------------------------
 Center     Atomic      Atomic             Coordinates (Angstroms)
 Number     Number       Type             X           Y           Z
 ---------------------------------------------------------------------
      1          8           0      -11.864696    0.430797   -1.311917
      2          8           0      -13.039444   -2.738329    1.130938
      3          8           0       10.621866   -0.989076   -2.077563
      4          8           0       14.445555   -1.209280   -0.124574
      5          6           0      -11.108482   -0.112372   -0.180082
      6          6           0      -11.737541   -0.951325   -1.277582
      7          6           0      -11.760347    0.101373    1.124121
      8          6           0      -13.063600   -1.692607   -0.957096
      9          6           0      -13.296141   -0.194615    1.007007
     10          6           0      -13.561317   -1.654092    0.417305
     11          6           0      -10.959746   -1.599387   -2.485543
     12          6           0       -9.676211    0.160257   -0.364968
     13          6           0      -11.013518   -0.533814    2.293047
     14          6           0      -11.626100    1.646272    1.487305
     15          6           0       -8.690503   -0.645432    0.067424
     16          6           0       -7.270745   -0.573397    0.048806
     17          6           0       -6.378455   -1.843814    0.089793
     18          6           0       -6.700161    0.647932   -0.140091
     19          6           0       -5.274256    0.870474   -0.205857
     20          6           0       11.998105   -0.006836    1.334121
     21          6           0       11.688726   -0.644600   -1.210416
     22          6           0       12.633465   -1.396804    1.499877
     23          6           0       13.343533   -1.923555    0.351453
     24          6           0       12.375609   -1.993065   -0.862698
     25          6           0       11.077163   -0.039284    0.065044
     26          6           0       11.045616    0.230247    2.522248
     27          6           0       13.175436    1.029998    1.334998
     28          6           0       12.650202    0.308115   -2.011747
     29          6           0       -4.725601    2.170323   -0.187568
     30          6           0        9.922667    0.564242    0.003010
     31          6           0       -3.349355    2.643523   -0.280680
     32          6           0        8.715011    1.089885   -0.136526
     33          6           0       -3.123207    4.136362   -0.538502
     34          6           0       -2.269844    1.710367   -0.216433
     35          6           0        7.475770    0.202453    0.004527
     36          6           0        7.659457   -1.339683    0.260206
     37          6           0        6.241005    0.792759   -0.156102
     38          6           0       -0.947093    2.061129   -0.402826
     39          6           0        4.935401    0.211023    0.027033
     40          6           0        0.119839    1.111915   -0.294511
     41          6           0        3.840413    0.991967   -0.123350
     42          6           0        1.523215    1.370800   -0.243233
     43          6           0        2.517867    0.423136   -0.107791
     44          6           0        2.184097   -0.974453    0.083921
     45          1           0      -12.909580   -2.804781   -1.282285
     46          1           0      -13.807778   -1.144983   -1.635108
     47          1           0      -13.638001   -0.426262    2.109758
     48          1           0      -13.939163    0.603680    0.629612
     49          1           0      -14.627333   -1.555504    0.488502
     50          1           0      -10.470407   -2.524673   -2.173957
     51          1           0      -11.738416   -1.696550   -3.282580
     52          1           0      -10.275384   -0.874917   -2.616587
     53          1           0       -9.174351    0.972973   -1.085943
     54          1           0       -9.952358   -0.079722    2.211691
     55          1           0      -11.421877   -0.348223    3.329124
     56          1           0      -11.116384   -1.623874    1.939005
     57          1           0      -12.242182    2.174468    0.825915
     58          1           0      -12.139739    1.796462    2.471325
     59          1           0      -10.616028    2.087733    1.281146
     60          1           0      -12.085561   -2.749580    0.949681
     61          1           0       -9.022577   -1.695711    0.333696
     62          1           0       -5.899987   -2.025345   -0.711969
     63          1           0       -5.715021   -1.310681    0.967811
     64          1           0       -6.867022   -2.847139    0.522019
     65          1           0       -7.261857    1.429964   -0.239291
     66          1           0       -4.608930    0.088853   -0.402330
     67          1           0       13.462688   -1.165906    2.292183
     68          1           0       11.982241   -2.137142    1.935980
     69          1           0       13.716271   -3.001110    0.771526
     70          1           0       12.636610   -2.526085   -1.910964
     71          1           0       11.487809   -2.588387   -0.371899
     72          1           0       11.638371    0.067657    3.448076
     73          1           0       10.800477    1.447289    2.589636
     74          1           0        9.988144   -0.234358    2.522570
     75          1           0       13.792542    0.694262    0.560828
     76          1           0       12.786123    1.972350    1.055189
     77          1           0       13.642271    1.118111    2.384231
     78          1           0       12.722773    0.037852   -3.079890
     79          1           0       12.317497    1.517164   -1.963889
     80          1           0       13.815886    0.411236   -1.676255
     81          1           0       -5.411833    3.020421    0.004964
     82          1           0        9.860386   -0.329027   -2.006090
     83          1           0       15.155075   -1.258060    0.585232
     84          1           0        8.434871    2.132019   -0.402429
     85          1           0       -2.333164    4.537878   -0.036046
     86          1           0       -2.673715    4.112544   -1.520870
     87          1           0       -4.004689    4.817785   -0.503475
     88          1           0       -2.553711    0.689605    0.128559
     89          1           0        6.809448   -2.039718    0.233207
     90          1           0        8.530157   -1.728544   -0.540372
     91          1           0        8.048063   -1.517755    1.351828
     92          1           0        6.203437    1.799664   -0.619261
     93          1           0       -0.647205    3.158835   -0.630942
     94          1           0        4.781840   -0.730576    0.172577
     95          1           0       -0.179665    0.079313   -0.248534
     96          1           0        3.909752    2.074977   -0.286553
     97          1           0        1.688693    2.314058   -0.164607
     98          1           0        1.028580   -1.066620    0.742184
     99          1           0        2.125249   -1.687730   -0.984389
    100          1           0        3.120171   -1.523571    0.777523
 ---------------------------------------------------------------------

 SCF Done:  E(RCAM-B3LYP) =  -1857.30134003     A.U. after   15 cycles

 Excitation energies and oscillator strengths:

 Excited State   1:      Singlet-A      2.1643 eV  572.85 nm  f=2.9059  <S**2>=0.000
     163 ->166        -0.13195
     164 ->165         0.69590
 This state for optimization and/or second-order correction.
 Total Energy, E(TD-HF/TD-DFT) =  -1857.22180248
 Copying the excited state density for this state as the 1-particle RhoCI density.

 The electronic state is 1-A.
 Alpha  occ. eigenvalues --  -19.22956 -19.22362 -19.22177 -19.20468 -10.32458
 Alpha  occ. eigenvalues --  -10.32277 -10.32230 -10.31939 -10.31196 -10.30228
 Alpha  occ. eigenvalues --  -10.28839 -10.28666 -10.28657 -10.28315 -10.27987
 Alpha  occ. eigenvalues --  -10.27900 -10.27603 -10.27470 -10.27449 -10.27440
 Alpha  occ. eigenvalues --  -10.27268 -10.27266 -10.27062 -10.26971 -10.26899
 Alpha  occ. eigenvalues --  -10.26885 -10.26777 -10.26705 -10.26533 -10.26503
 Alpha  occ. eigenvalues --  -10.26420 -10.26401 -10.26095 -10.26025 -10.25977
 Alpha  occ. eigenvalues --  -10.25950 -10.25878 -10.25597 -10.25108 -10.25065
 Alpha  occ. eigenvalues --  -10.24989 -10.24947 -10.24324 -10.23966  -1.15876
 Alpha  occ. eigenvalues --   -1.11336  -1.11056  -1.08630  -0.92869  -0.92661
 Alpha  occ. eigenvalues --   -0.92310  -0.90990  -0.90389  -0.89686  -0.87232
 Alpha  occ. eigenvalues --   -0.86412  -0.85619  -0.84780  -0.84468  -0.83099
 Alpha  occ. eigenvalues --   -0.82019  -0.80932  -0.80178  -0.78299  -0.77061
 Alpha  occ. eigenvalues --   -0.76542  -0.75859  -0.75207  -0.75120  -0.74997
 Alpha  occ. eigenvalues --   -0.74945  -0.74130  -0.72996  -0.70944  -0.69311
 Alpha  occ. eigenvalues --   -0.68494  -0.67038  -0.65406  -0.64370  -0.64158
 Alpha  occ. eigenvalues --   -0.63167  -0.62540  -0.61367  -0.60923  -0.60268
 Alpha  occ. eigenvalues --   -0.58958  -0.58455  -0.57826  -0.57677  -0.56616
 Alpha  occ. eigenvalues --   -0.55954  -0.55735  -0.55104  -0.54731  -0.54034
 Alpha  occ. eigenvalues --   -0.53676  -0.53126  -0.52939  -0.52765  -0.51842
 Alpha  occ. eigenvalues --   -0.51012  -0.50469  -0.50357  -0.50149  -0.49430
 Alpha  occ. eigenvalues --   -0.49305  -0.48771  -0.48532  -0.48443  -0.48176
 Alpha  occ. eigenvalues --   -0.48038  -0.47717  -0.47189  -0.47096  -0.46890
 Alpha  occ. eigenvalues --   -0.46601  -0.46085  -0.45946  -0.45582  -0.45241
 Alpha  occ. eigenvalues --   -0.44909  -0.44453  -0.44302  -0.44300  -0.44165
 Alpha  occ. eigenvalues --   -0.43365  -0.43199  -0.43005  -0.42905  -0.42471
 Alpha  occ. eigenvalues --   -0.42297  -0.41955  -0.41783  -0.41477  -0.41188
 Alpha  occ. eigenvalues --   -0.41140  -0.40884  -0.40660  -0.40246  -0.39831
 Alpha  occ. eigenvalues --   -0.39783  -0.39511  -0.38980  -0.38668  -0.38341
 Alpha  occ. eigenvalues --   -0.37927  -0.37653  -0.37363  -0.36946  -0.36792
 Alpha  occ. eigenvalues --   -0.36550  -0.36136  -0.35107  -0.34662  -0.33706
 Alpha  occ. eigenvalues --   -0.32469  -0.32280  -0.32133  -0.31581  -0.30274
 Alpha  occ. eigenvalues --   -0.29972  -0.27536  -0.24699  -0.19915
 Alpha virt. eigenvalues --   -0.06284  -0.00691   0.02629   0.05760   0.06405
 Alpha virt. eigenvalues --    0.09260   0.09654   0.09804   0.10729   0.11173
 Alpha virt. eigenvalues --    0.11958   0.12122   0.12979   0.13308   0.13674

 Mulliken charges:
               1
     1  O   -0.500046
     2  O   -0.532226
     3  O   -0.581580
     4  O   -0.522624
     5  C    0.219425
     6  C    0.212790
     7  C   -0.004047
     8  C   -0.203281
     9  C   -0.215446
    10  C    0.156720
    11  C   -0.311082
    12  C   -0.140018
    13  C   -0.262222
    14  C   -0.318537
    15  C   -0.075028
    16  C    0.047302
    17  C   -0.337768
    18  C   -0.071718
    19  C   -0.091169
    20  C    0.027493
    21  C    0.292149
    22  C   -0.179510
    23  C    0.163637
    24  C   -0.179078
    25  C   -0.078346
    26  C   -0.304795
    27  C   -0.311926
    28  C   -0.306037
    29  C   -0.130690
    30  C    0.152970
    31  C    0.072842
    32  C   -0.294947
    33  C   -0.381036
    34  C   -0.108499
    35  C    0.096961
    36  C   -0.366161
    37  C   -0.130138
    38  C   -0.093409
    39  C   -0.049273
    40  C   -0.106724
    41  C   -0.095684
    42  C   -0.092466
    43  C    0.150535
    44  C   -0.352390
    45  H    0.089200
    46  H    0.104213
    47  H    0.089145
    48  H    0.117324
    49  H    0.108557
    50  H    0.108412
    51  H    0.116161
    52  H    0.128954
    53  H    0.101384
    54  H    0.114370
    55  H    0.110516
    56  H    0.047045
    57  H    0.114330
    58  H    0.097910
    59  H    0.102793
    60  H    0.310410
    61  H    0.057033
    62  H    0.142605
    63  H    0.113339
    64  H    0.096369
    65  H    0.069741
    66  H    0.089965
    67  H    0.066483
    68  H    0.114426
    69  H    0.056026
    70  H    0.108664
    71  H    0.090249
    72  H    0.091144
    73  H    0.073142
    74  H    0.112092
    75  H    0.140186
    76  H    0.108585
    77  H    0.091169
    78  H    0.120074
    79  H    0.062502
    80  H    0.114293
    81  H    0.076641
    82  H    0.312013
    83  H    0.307598
    84  H    0.117684
    85  H    0.133014
    86  H    0.135877
    87  H    0.116283
    88  H    0.092925
    89  H    0.118069
    90  H    0.113490
    91  H    0.106211
    92  H    0.078151
    93  H    0.081604
    94  H    0.059217
    95  H    0.074463
    96  H    0.088302
    97  H    0.062388
    98  H    0.091921
    99  H    0.104147
   100  H    0.086267
 Sum of Mulliken charges =  -0.00000

 Dipole moment (field-independent basis, Debye):
    X=              2.8608    Y=              0.4480    Z=              1.6240  Tot=              3.3199
 Quadrupole moment (field-independent basis, Debye-Ang):
   XX=           -279.0864   YY=           -261.8164   ZZ=           -280.0114
   XY=             -5.4440   XZ=             35.3003   YZ=             -1.8953

 Normal termination of Gaussian 16 at Thu Aug  1 07:37:44 2019.
