 Gaussian 16, Revision A.03,
 Gaussian 16:  ES64L-G16RevA.03 25-Dec-2016

 -------------------------------------
 # td=(NStates=1) CAM-B3LYP/6-31G(d,p)
 -------------------------------------

 --
 TD
 --
 Symbolic Z-matrix:
 Charge =  0 Multiplicity = 1

                         Standard orientation:
 ---------------------------------------------------------------------
 Center     Atomic      Atomic             Coordinates (Angstroms)
 Number     Number       Type             X           Y           Z
 ---------------------------------------------------------------------
      1          8           0      -11.733528    0.431612   -1.454751
      2          8           0      -12.808482   -2.545467    1.214474
      3          8           0       10.476429   -0.875994   -2.062688
      4          8           0       14.395318   -0.973611   -0.121707
      5          6           0      -11.137666   -0.137083   -0.266000
      6          6           0      -11.668032   -0.974683   -1.274003
      7          6           0      -11.836187    0.252636    0.987806
      8          6           0      -13.123908   -1.687353   -1.049019
      9          6           0      -13.346704   -0.161717    0.923506
     10          6           0      -13.525087   -1.544464    0.429274
     11          6           0      -10.815725   -1.777168   -2.266152
     12          6           0       -9.558858    0.179176   -0.304528
     13          6           0      -11.120539   -0.228102    2.261299
     14          6           0      -11.838448    1.813363    1.219084
     15          6           0       -8.710093   -0.693564    0.099869
     16          6           0       -7.258684   -0.525623    0.241768
     17          6           0       -6.388558   -1.710502    0.433774
     18          6           0       -6.607143    0.740788   -0.100765
     19          6           0       -5.317402    0.914903   -0.007492
     20          6           0       11.981555    0.007976    1.335758
     21          6           0       11.643075   -0.502983   -1.264099
     22          6           0       12.720891   -1.381737    1.559923
     23          6           0       13.316489   -1.904319    0.281162
     24          6           0       12.345920   -1.894697   -1.005217
     25          6           0       11.206035    0.073330    0.134243
     26          6           0       11.041022    0.066723    2.611401
     27          6           0       12.977501    1.186980    1.388205
     28          6           0       12.617866    0.486470   -2.018106
     29          6           0       -4.711432    2.171334   -0.160623
     30          6           0        9.957734    0.468984    0.072271
     31          6           0       -3.336570    2.463830   -0.423322
     32          6           0        8.766033    1.041573   -0.106761
     33          6           0       -2.873385    3.944266   -0.784703
     34          6           0       -2.408008    1.582249   -0.322820
     35          6           0        7.526817    0.252634   -0.046541
     36          6           0        7.729997   -1.253898    0.089595
     37          6           0        6.298628    0.779343    0.020551
     38          6           0       -1.009954    1.768088   -0.449925
     39          6           0        4.961138    0.121095   -0.042430
     40          6           0        0.026294    0.792695   -0.162071
     41          6           0        3.743844    0.893935   -0.098894
     42          6           0        1.382413    1.145081   -0.172000
     43          6           0        2.433725    0.279289   -0.096388
     44          6           0        2.360085   -1.230571    0.051480
     45          1           0      -12.921929   -2.675964   -1.279718
     46          1           0      -13.768077   -1.192492   -1.719101
     47          1           0      -13.805961   -0.248752    1.996093
     48          1           0      -13.905108    0.513554    0.361000
     49          1           0      -14.580784   -1.833229    0.442030
     50          1           0      -10.472382   -2.783491   -1.687503
     51          1           0      -11.259872   -2.203158   -3.254166
     52          1           0       -9.866486   -1.331905   -2.378829
     53          1           0       -9.201937    1.183433   -0.657507
     54          1           0      -10.148523    0.434479    2.288652
     55          1           0      -11.783824   -0.022234    3.071222
     56          1           0      -10.829935   -1.345208    2.294995
     57          1           0      -12.326141    2.060958    0.394732
     58          1           0      -12.268186    2.129664    2.272308
     59          1           0      -10.871997    2.176641    1.137850
     60          1           0      -11.904684   -2.740629    0.812369
     61          1           0       -8.945554   -1.649268    0.570838
     62          1           0       -6.166521   -2.183723   -0.497614
     63          1           0       -5.490690   -1.497556    1.041841
     64          1           0       -7.014327   -2.482961    1.044583
     65          1           0       -7.341566    1.537028   -0.397498
     66          1           0       -4.676245    0.135977   -0.076363
     67          1           0       13.501268   -1.419154    2.310469
     68          1           0       11.878376   -2.225466    1.736293
     69          1           0       13.800198   -2.730908    0.182541
     70          1           0       12.979190   -2.186714   -1.896303
     71          1           0       11.464847   -2.574201   -0.666140
     72          1           0       11.522404   -0.018310    3.517052
     73          1           0       10.499836    1.041795    2.691168
     74          1           0       10.115329   -0.701260    2.438386
     75          1           0       13.498829    1.143174    0.508127
     76          1           0       12.322223    2.167095    1.681298
     77          1           0       13.775106    1.194282    2.095591
     78          1           0       12.661991   -0.024524   -3.085163
     79          1           0       12.099938    1.375452   -2.073113
     80          1           0       13.436417    0.435974   -1.319648
     81          1           0       -5.430959    3.038555   -0.358984
     82          1           0        9.952730   -0.007341   -2.291504
     83          1           0       14.868387   -0.771603    0.852613
     84          1           0        8.627523    2.215621   -0.192784
     85          1           0       -2.384652    4.323347    0.126489
     86          1           0       -2.402331    3.990890   -1.638083
     87          1           0       -3.757321    4.712269   -0.740415
     88          1           0       -2.777230    0.527752   -0.286552
     89          1           0        6.931918   -2.055303    0.085324
     90          1           0        8.402405   -1.608466   -0.903510
     91          1           0        8.433636   -1.639121    0.991150
     92          1           0        6.159183    1.807045    0.060464
     93          1           0       -0.685704    2.773193   -0.372301
     94          1           0        4.892807   -0.761068    0.063473
     95          1           0       -0.314467   -0.208838    0.087072
     96          1           0        3.764099    2.018283   -0.102113
     97          1           0        1.422469    2.147254   -0.336405
     98          1           0        1.216955   -1.711134   -0.399071
     99          1           0        3.392613   -1.831404   -0.525604
    100          1           0        2.376734   -1.620302    1.062671
 ---------------------------------------------------------------------

 SCF Done:  E(RCAM-B3LYP) =  -1857.25435198     A.U. after   15 cycles

 Excitation energies and oscillator strengths:

 Excited State   1:      Singlet-A      2.2066 eV  561.88 nm  f=2.9688  <S**2>=0.000
     163 ->166        -0.13878
     164 ->165         0.69535
 This state for optimization and/or second-order correction.
 Total Energy, E(TD-HF/TD-DFT) =  -1857.17326045
 Copying the excited state density for this state as the 1-particle RhoCI density.

 The electronic state is 1-A.
 Alpha  occ. eigenvalues --  -19.22484 -19.22174 -19.21521 -19.21431 -10.32627
 Alpha  occ. eigenvalues --  -10.32381 -10.32303 -10.30420 -10.29985 -10.29776
 Alpha  occ. eigenvalues --  -10.29141 -10.28125 -10.28093 -10.27999 -10.27780
 Alpha  occ. eigenvalues --  -10.27615 -10.27387 -10.27326 -10.27190 -10.27142
 Alpha  occ. eigenvalues --  -10.27019 -10.26973 -10.26946 -10.26919 -10.26785
 Alpha  occ. eigenvalues --  -10.26745 -10.26635 -10.26565 -10.26315 -10.26145
 Alpha  occ. eigenvalues --  -10.26057 -10.25614 -10.25529 -10.25483 -10.25396
 Alpha  occ. eigenvalues --  -10.25320 -10.25238 -10.25237 -10.25099 -10.25030
 Alpha  occ. eigenvalues --  -10.24985 -10.24963 -10.23986 -10.23564  -1.16049
 Alpha  occ. eigenvalues --   -1.07689  -1.07592  -1.07040  -0.93506  -0.92868
 Alpha  occ. eigenvalues --   -0.91730  -0.91171  -0.90543  -0.89927  -0.87430
 Alpha  occ. eigenvalues --   -0.86054  -0.85784  -0.84824  -0.84369  -0.83001
 Alpha  occ. eigenvalues --   -0.82009  -0.81101  -0.79968  -0.77894  -0.76752
 Alpha  occ. eigenvalues --   -0.76528  -0.76413  -0.75936  -0.75696  -0.75499
 Alpha  occ. eigenvalues --   -0.74463  -0.74312  -0.73204  -0.70636  -0.69584
 Alpha  occ. eigenvalues --   -0.68807  -0.66936  -0.66402  -0.65894  -0.65027
 Alpha  occ. eigenvalues --   -0.63515  -0.62406  -0.61495  -0.60137  -0.59566
 Alpha  occ. eigenvalues --   -0.58822  -0.57957  -0.57865  -0.56355  -0.55664
 Alpha  occ. eigenvalues --   -0.55340  -0.54842  -0.54582  -0.54275  -0.53555
 Alpha  occ. eigenvalues --   -0.53388  -0.53168  -0.52842  -0.52653  -0.51749
 Alpha  occ. eigenvalues --   -0.51641  -0.51477  -0.51123  -0.50600  -0.50233
 Alpha  occ. eigenvalues --   -0.50143  -0.49881  -0.49513  -0.49327  -0.48646
 Alpha  occ. eigenvalues --   -0.48036  -0.47825  -0.47413  -0.47099  -0.46727
 Alpha  occ. eigenvalues --   -0.46659  -0.46306  -0.45795  -0.45597  -0.44797
 Alpha  occ. eigenvalues --   -0.44523  -0.44372  -0.43830  -0.43703  -0.43539
 Alpha  occ. eigenvalues --   -0.43437  -0.43006  -0.42736  -0.42666  -0.42412
 Alpha  occ. eigenvalues --   -0.42177  -0.42091  -0.41804  -0.41294  -0.40940
 Alpha  occ. eigenvalues --   -0.40631  -0.40354  -0.40298  -0.39940  -0.39750
 Alpha  occ. eigenvalues --   -0.39629  -0.39505  -0.39350  -0.38981  -0.38830
 Alpha  occ. eigenvalues --   -0.38259  -0.37778  -0.37330  -0.37297  -0.36671
 Alpha  occ. eigenvalues --   -0.36305  -0.36063  -0.35448  -0.34528  -0.34379
 Alpha  occ. eigenvalues --   -0.33136  -0.32544  -0.32159  -0.31773  -0.31502
 Alpha  occ. eigenvalues --   -0.29798  -0.27969  -0.24001  -0.19709
 Alpha virt. eigenvalues --   -0.05979  -0.00982   0.03378   0.05553   0.07567
 Alpha virt. eigenvalues --    0.07695   0.08816   0.09883   0.10968   0.11915
 Alpha virt. eigenvalues --    0.12124   0.12704   0.13248   0.13709   0.14111

 Mulliken charges:
               1
     1  O   -0.501574
     2  O   -0.569034
     3  O   -0.566945
     4  O   -0.571864
     5  C    0.195839
     6  C    0.234824
     7  C   -0.010296
     8  C   -0.216416
     9  C   -0.165332
    10  C    0.150854
    11  C   -0.334396
    12  C   -0.145206
    13  C   -0.271256
    14  C   -0.295648
    15  C   -0.017126
    16  C    0.033238
    17  C   -0.374737
    18  C   -0.083791
    19  C   -0.048478
    20  C    0.013570
    21  C    0.225443
    22  C   -0.205892
    23  C    0.168185
    24  C   -0.195971
    25  C   -0.044430
    26  C   -0.302371
    27  C   -0.303862
    28  C   -0.305216
    29  C   -0.145232
    30  C    0.175113
    31  C    0.090227
    32  C   -0.294708
    33  C   -0.368609
    34  C   -0.100653
    35  C    0.148101
    36  C   -0.383140
    37  C   -0.131378
    38  C   -0.123777
    39  C   -0.026667
    40  C   -0.082533
    41  C   -0.124120
    42  C   -0.105909
    43  C    0.138310
    44  C   -0.353865
    45  H    0.108165
    46  H    0.123752
    47  H    0.092669
    48  H    0.112179
    49  H    0.096512
    50  H    0.069653
    51  H    0.118107
    52  H    0.132431
    53  H    0.108552
    54  H    0.090769
    55  H    0.107511
    56  H    0.076760
    57  H    0.124050
    58  H    0.096171
    59  H    0.103076
    60  H    0.308216
    61  H    0.069933
    62  H    0.140426
    63  H    0.125465
    64  H    0.088933
    65  H    0.075009
    66  H    0.085803
    67  H    0.098917
    68  H    0.091889
    69  H    0.097240
    70  H    0.114572
    71  H    0.107149
    72  H    0.107897
    73  H    0.100224
    74  H    0.091769
    75  H    0.127990
    76  H    0.089108
    77  H    0.093127
    78  H    0.100419
    79  H    0.098696
    80  H    0.158785
    81  H    0.074847
    82  H    0.307813
    83  H    0.293097
    84  H    0.110173
    85  H    0.129492
    86  H    0.139183
    87  H    0.090391
    88  H    0.070065
    89  H    0.107807
    90  H    0.113981
    91  H    0.097405
    92  H    0.065193
    93  H    0.085813
    94  H    0.029035
    95  H    0.078790
    96  H    0.086231
    97  H    0.079653
    98  H    0.075750
    99  H    0.086439
   100  H    0.143643
 Sum of Mulliken charges =  -0.00000

 Dipole moment (field-independent basis, Debye):
    X=              2.5173    Y=             -0.2572    Z=              1.8308  Tot=              3.1233
 Quadrupole moment (field-independent basis, Debye-Ang):
   XX=           -262.3770   YY=           -259.2464   ZZ=           -277.5273
   XY=              3.0357   XZ=             41.3372   YZ=              0.8350

 Normal termination of Gaussian 16 at Tue Jul 30 20:18:42 2019.
