 Gaussian 16, Revision A.03,
 Gaussian 16:  ES64L-G16RevA.03 25-Dec-2016

 -------------------------------------
 # td=(NStates=1) CAM-B3LYP/6-31G(d,p)
 -------------------------------------

 --
 TD
 --
 Symbolic Z-matrix:
 Charge =  0 Multiplicity = 1

                         Standard orientation:
 ---------------------------------------------------------------------
 Center     Atomic      Atomic             Coordinates (Angstroms)
 Number     Number       Type             X           Y           Z
 ---------------------------------------------------------------------
      1          8           0      -11.614338    0.211992   -1.543166
      2          8           0      -12.858357   -2.577894    1.431255
      3          8           0       10.545816   -0.945443   -2.086879
      4          8           0       14.521126   -1.076270   -0.061530
      5          6           0      -11.019163   -0.205912   -0.364571
      6          6           0      -11.639500   -1.198139   -1.239348
      7          6           0      -11.699047    0.362880    0.815386
      8          6           0      -12.963344   -1.818181   -0.879307
      9          6           0      -13.232362   -0.074702    0.959644
     10          6           0      -13.537792   -1.572935    0.509675
     11          6           0      -10.704524   -2.142483   -2.096197
     12          6           0       -9.552858    0.048593   -0.413207
     13          6           0      -11.013528    0.015625    2.266927
     14          6           0      -11.734855    1.991167    0.771200
     15          6           0       -8.600612   -0.799058    0.037347
     16          6           0       -7.128657   -0.586631    0.219336
     17          6           0       -6.375931   -1.810613    0.529433
     18          6           0       -6.548340    0.582817   -0.087361
     19          6           0       -5.205423    0.884549   -0.083628
     20          6           0       11.873106   -0.064735    1.379515
     21          6           0       11.674784   -0.584722   -1.253515
     22          6           0       12.610667   -1.415286    1.401121
     23          6           0       13.334616   -1.794105    0.199289
     24          6           0       12.347978   -1.842976   -0.983032
     25          6           0       11.086613    0.027818    0.022341
     26          6           0       11.023951    0.066100    2.635484
     27          6           0       12.853108    1.212750    1.398355
     28          6           0       12.616909    0.439277   -2.000601
     29          6           0       -4.745490    2.188291   -0.327859
     30          6           0        9.866408    0.502559    0.026293
     31          6           0       -3.405519    2.636716   -0.335324
     32          6           0        8.597285    0.960280   -0.069844
     33          6           0       -3.138532    4.128974   -0.664176
     34          6           0       -2.410761    1.700750   -0.177638
     35          6           0        7.419690    0.159581   -0.076409
     36          6           0        7.732389   -1.337295    0.142686
     37          6           0        6.194832    0.745549   -0.222058
     38          6           0       -1.038513    1.920995   -0.243115
     39          6           0        4.903141    0.179262   -0.075121
     40          6           0        0.056866    0.996278   -0.127190
     41          6           0        3.745991    0.900057   -0.123159
     42          6           0        1.312221    1.352733   -0.088448
     43          6           0        2.353868    0.418343   -0.019413
     44          6           0        2.175576   -1.046614    0.119112
     45          1           0      -13.078488   -2.754581   -1.347707
     46          1           0      -13.667125   -1.270992   -1.329861
     47          1           0      -13.553963    0.064147    1.828425
     48          1           0      -13.583042    0.495624    0.199629
     49          1           0      -14.542443   -1.837591    0.731014
     50          1           0      -10.435860   -3.068165   -1.506770
     51          1           0      -11.376955   -2.521237   -2.939650
     52          1           0       -9.694556   -1.521009   -2.573397
     53          1           0       -9.224975    0.843619   -1.023424
     54          1           0      -10.001105    0.326017    2.221131
     55          1           0      -11.563196    0.376581    3.119637
     56          1           0      -10.863895   -1.041629    2.119314
     57          1           0      -12.105264    2.364948   -0.208592
     58          1           0      -12.339902    2.362958    1.592075
     59          1           0      -10.718052    2.416904    0.780728
     60          1           0      -11.906022   -2.422719    1.075030
     61          1           0       -9.071755   -1.772468    0.401496
     62          1           0       -5.636371   -1.965785   -0.311610
     63          1           0       -5.689148   -1.718238    1.391935
     64          1           0       -6.859466   -2.926184    0.390355
     65          1           0       -7.044539    1.614052   -0.131115
     66          1           0       -4.589291    0.000699   -0.108395
     67          1           0       13.069972   -1.500494    2.261753
     68          1           0       11.683063   -2.054506    1.653581
     69          1           0       13.515761   -2.979304    0.593985
     70          1           0       12.937612   -2.063496   -1.913883
     71          1           0       11.671063   -2.578588   -0.879529
     72          1           0       11.592065    0.194182    3.622429
     73          1           0       10.264820    0.729635    2.572546
     74          1           0       10.234680   -0.835023    2.603787
     75          1           0       13.546852    0.956185    0.656897
     76          1           0       12.315180    2.111778    1.285224
     77          1           0       13.334061    1.385957    2.281123
     78          1           0       12.938125    0.135043   -2.894147
     79          1           0       11.983120    1.276355   -2.112120
     80          1           0       13.570049    0.591685   -1.509344
     81          1           0       -5.392183    3.091350   -0.504019
     82          1           0        9.901302   -0.220022   -2.261961
     83          1           0       15.158395   -1.105826    0.619652
     84          1           0        8.365908    2.140992   -0.207656
     85          1           0       -2.773537    4.705947    0.091306
     86          1           0       -2.422940    4.186086   -1.522422
     87          1           0       -4.017950    4.780007   -0.800364
     88          1           0       -2.683709    0.602016    0.192336
     89          1           0        6.797072   -1.914110    0.294064
     90          1           0        8.499516   -1.777645   -0.484259
     91          1           0        8.119895   -1.458290    1.342123
     92          1           0        6.375486    1.763606   -0.384691
     93          1           0       -0.763378    3.064085   -0.318467
     94          1           0        4.784588   -0.859142    0.250349
     95          1           0       -0.232373   -0.113922   -0.004419
     96          1           0        3.743617    1.980234   -0.359828
     97          1           0        1.862241    2.437596   -0.119825
     98          1           0        1.123609   -1.158107    0.569247
     99          1           0        2.485143   -1.688641   -0.834613
    100          1           0        2.692848   -1.534986    1.037726
 ---------------------------------------------------------------------

 SCF Done:  E(RCAM-B3LYP) =  -1857.30484654     A.U. after   15 cycles

 Excitation energies and oscillator strengths:

 Excited State   1:      Singlet-A      2.0189 eV  614.12 nm  f=3.0325  <S**2>=0.000
     163 ->166        -0.12478
     164 ->165         0.70057
     164 <-165        -0.11047
 This state for optimization and/or second-order correction.
 Total Energy, E(TD-HF/TD-DFT) =  -1857.23065306
 Copying the excited state density for this state as the 1-particle RhoCI density.

 The electronic state is 1-A.
 Alpha  occ. eigenvalues --  -19.23279 -19.22675 -19.20720 -19.20081 -10.33190
 Alpha  occ. eigenvalues --  -10.32954 -10.32037 -10.31202 -10.31026 -10.28622
 Alpha  occ. eigenvalues --  -10.28219 -10.27914 -10.27843 -10.27766 -10.27745
 Alpha  occ. eigenvalues --  -10.27725 -10.27585 -10.27565 -10.27532 -10.27321
 Alpha  occ. eigenvalues --  -10.27274 -10.27258 -10.27209 -10.27147 -10.27095
 Alpha  occ. eigenvalues --  -10.26955 -10.26922 -10.26684 -10.26587 -10.26490
 Alpha  occ. eigenvalues --  -10.26192 -10.25909 -10.25734 -10.25684 -10.25297
 Alpha  occ. eigenvalues --  -10.24992 -10.24933 -10.24526 -10.24512 -10.24416
 Alpha  occ. eigenvalues --  -10.23646 -10.23300 -10.22711 -10.22449  -1.17352
 Alpha  occ. eigenvalues --   -1.12081  -1.08440  -1.05170  -0.93238  -0.92658
 Alpha  occ. eigenvalues --   -0.92181  -0.91144  -0.90435  -0.89487  -0.87593
 Alpha  occ. eigenvalues --   -0.87308  -0.86775  -0.85602  -0.84879  -0.83341
 Alpha  occ. eigenvalues --   -0.82243  -0.80553  -0.79939  -0.79081  -0.77419
 Alpha  occ. eigenvalues --   -0.76830  -0.76677  -0.76451  -0.76181  -0.75888
 Alpha  occ. eigenvalues --   -0.75229  -0.74423  -0.73170  -0.71214  -0.70674
 Alpha  occ. eigenvalues --   -0.69077  -0.67372  -0.65942  -0.65250  -0.65085
 Alpha  occ. eigenvalues --   -0.64523  -0.62467  -0.60592  -0.60027  -0.59556
 Alpha  occ. eigenvalues --   -0.59447  -0.58012  -0.57610  -0.57410  -0.56967
 Alpha  occ. eigenvalues --   -0.55902  -0.55170  -0.54839  -0.54248  -0.54174
 Alpha  occ. eigenvalues --   -0.53274  -0.53115  -0.52978  -0.52642  -0.52076
 Alpha  occ. eigenvalues --   -0.51446  -0.51346  -0.50994  -0.50379  -0.49823
 Alpha  occ. eigenvalues --   -0.49623  -0.49508  -0.48693  -0.48579  -0.48365
 Alpha  occ. eigenvalues --   -0.48098  -0.47919  -0.47224  -0.46925  -0.46893
 Alpha  occ. eigenvalues --   -0.46717  -0.46282  -0.46045  -0.45755  -0.45239
 Alpha  occ. eigenvalues --   -0.45025  -0.44830  -0.44535  -0.44150  -0.43804
 Alpha  occ. eigenvalues --   -0.43692  -0.43483  -0.42962  -0.42823  -0.42632
 Alpha  occ. eigenvalues --   -0.42421  -0.42190  -0.42045  -0.41872  -0.41537
 Alpha  occ. eigenvalues --   -0.41191  -0.40673  -0.40328  -0.39917  -0.39869
 Alpha  occ. eigenvalues --   -0.39628  -0.39423  -0.39259  -0.38977  -0.38773
 Alpha  occ. eigenvalues --   -0.38618  -0.37955  -0.37851  -0.37736  -0.36855
 Alpha  occ. eigenvalues --   -0.35775  -0.35515  -0.34698  -0.34472  -0.33941
 Alpha  occ. eigenvalues --   -0.32969  -0.32632  -0.32427  -0.31903  -0.30333
 Alpha  occ. eigenvalues --   -0.29812  -0.27694  -0.24538  -0.19267
 Alpha virt. eigenvalues --   -0.06731  -0.00684   0.02917   0.06048   0.06937
 Alpha virt. eigenvalues --    0.09327   0.09806   0.10485   0.11049   0.11689
 Alpha virt. eigenvalues --    0.12559   0.13224   0.13429   0.13692   0.13989

 Mulliken charges:
               1
     1  O   -0.498683
     2  O   -0.564384
     3  O   -0.590700
     4  O   -0.538477
     5  C    0.196371
     6  C    0.236247
     7  C   -0.014358
     8  C   -0.221263
     9  C   -0.155486
    10  C    0.103272
    11  C   -0.329155
    12  C   -0.092730
    13  C   -0.302971
    14  C   -0.321601
    15  C   -0.093467
    16  C    0.098659
    17  C   -0.398558
    18  C   -0.104782
    19  C   -0.065750
    20  C    0.001325
    21  C    0.258158
    22  C   -0.167665
    23  C    0.164994
    24  C   -0.171375
    25  C   -0.092178
    26  C   -0.311307
    27  C   -0.311588
    28  C   -0.307471
    29  C   -0.129914
    30  C    0.154356
    31  C    0.097336
    32  C   -0.300363
    33  C   -0.385377
    34  C   -0.107368
    35  C    0.151620
    36  C   -0.369340
    37  C   -0.105175
    38  C   -0.109724
    39  C   -0.097330
    40  C   -0.116983
    41  C   -0.107894
    42  C   -0.067484
    43  C    0.107392
    44  C   -0.378280
    45  H    0.114632
    46  H    0.139519
    47  H    0.096328
    48  H    0.118836
    49  H    0.110782
    50  H    0.114693
    51  H    0.105717
    52  H    0.113554
    53  H    0.103816
    54  H    0.113000
    55  H    0.109661
    56  H    0.086170
    57  H    0.112657
    58  H    0.104554
    59  H    0.101698
    60  H    0.295602
    61  H    0.062377
    62  H    0.121817
    63  H    0.130047
    64  H    0.105660
    65  H    0.083075
    66  H    0.085418
    67  H    0.091902
    68  H    0.097765
    69  H    0.043474
    70  H    0.110310
    71  H    0.125677
    72  H    0.099507
    73  H    0.123771
    74  H    0.070054
    75  H    0.117911
    76  H    0.107042
    77  H    0.092279
    78  H    0.116640
    79  H    0.095262
    80  H    0.132323
    81  H    0.082086
    82  H    0.310457
    83  H    0.314057
    84  H    0.093606
    85  H    0.137451
    86  H    0.128640
    87  H    0.107482
    88  H    0.079360
    89  H    0.104184
    90  H    0.148315
    91  H    0.078633
    92  H    0.072791
    93  H    0.074048
    94  H    0.088983
    95  H    0.094536
    96  H    0.068536
    97  H    0.085830
    98  H    0.099649
    99  H    0.124435
   100  H    0.112842
 Sum of Mulliken charges =  -0.00000

 Dipole moment (field-independent basis, Debye):
    X=              3.5583    Y=              0.5531    Z=              1.0902  Tot=              3.7625
 Quadrupole moment (field-independent basis, Debye-Ang):
   XX=           -257.7732   YY=           -260.0899   ZZ=           -278.7096
   XY=             -7.6723   XZ=             36.7461   YZ=              1.8331

 Normal termination of Gaussian 16 at Tue Jul 30 20:27:31 2019.
