 Gaussian 16, Revision A.03,
 Gaussian 16:  ES64L-G16RevA.03 25-Dec-2016

 -------------------------------------
 # td=(NStates=1) CAM-B3LYP/6-31G(d,p)
 -------------------------------------

 --
 TD
 --
 Symbolic Z-matrix:
 Charge =  0 Multiplicity = 1

                         Standard orientation:
 ---------------------------------------------------------------------
 Center     Atomic      Atomic             Coordinates (Angstroms)
 Number     Number       Type             X           Y           Z
 ---------------------------------------------------------------------
      1          8           0      -11.836839    0.090355   -1.689705
      2          8           0      -13.084546   -2.426180    1.502995
      3          8           0       10.414267   -0.919209   -2.070167
      4          8           0       14.455466   -0.929931   -0.519091
      5          6           0      -11.187451   -0.080918   -0.430127
      6          6           0      -11.656797   -1.210909   -1.239273
      7          6           0      -11.876494    0.530622    0.819819
      8          6           0      -13.013742   -1.931419   -0.876900
      9          6           0      -13.266925    0.024719    0.681971
     10          6           0      -13.495749   -1.424333    0.556746
     11          6           0      -10.807797   -2.108625   -2.091905
     12          6           0       -9.568202    0.063529   -0.384680
     13          6           0      -11.184543    0.217288    2.205634
     14          6           0      -11.728439    2.062346    0.610496
     15          6           0       -8.666678   -0.739321    0.141176
     16          6           0       -7.218726   -0.576420    0.218242
     17          6           0       -6.428824   -1.647742    0.575085
     18          6           0       -6.696212    0.602285   -0.147226
     19          6           0       -5.274398    0.907746   -0.171367
     20          6           0       12.043823   -0.095826    1.270953
     21          6           0       11.572557   -0.457131   -1.304383
     22          6           0       12.847446   -1.399390    1.272266
     23          6           0       13.445175   -1.744341   -0.111843
     24          6           0       12.379967   -1.686439   -1.216482
     25          6           0       11.187447   -0.000834    0.021454
     26          6           0       11.112451   -0.006768    2.544103
     27          6           0       12.854639    1.194173    1.338808
     28          6           0       12.284302    0.663359   -2.085220
     29          6           0       -4.684352    2.131738   -0.499483
     30          6           0        9.902622    0.469498    0.169053
     31          6           0       -3.340677    2.488924   -0.559666
     32          6           0        8.660170    0.820458    0.075403
     33          6           0       -2.951136    3.860385   -0.670988
     34          6           0       -2.273177    1.491542   -0.259160
     35          6           0        7.436209    0.082628    0.207790
     36          6           0        7.737653   -1.325580    0.486658
     37          6           0        6.282612    0.714343    0.113344
     38          6           0       -0.931110    1.848037   -0.236785
     39          6           0        5.010308    0.093888    0.125252
     40          6           0        0.080977    0.907599    0.033831
     41          6           0        3.812769    0.822074    0.092774
     42          6           0        1.497537    1.197613   -0.123775
     43          6           0        2.513354    0.278661    0.238677
     44          6           0        2.365826   -1.124604    0.645926
     45          1           0      -12.852420   -3.101813   -0.755479
     46          1           0      -13.758363   -1.737326   -1.660369
     47          1           0      -13.747876    0.395431    1.723225
     48          1           0      -13.901416    0.512125   -0.016399
     49          1           0      -14.612757   -1.531375    0.467333
     50          1           0      -10.621999   -3.114610   -1.639557
     51          1           0      -11.449418   -2.521322   -3.017775
     52          1           0       -9.897595   -1.546934   -2.390220
     53          1           0       -9.175513    0.941132   -0.958259
     54          1           0      -10.065923    0.250235    2.151596
     55          1           0      -11.634194    0.865703    3.013069
     56          1           0      -11.439505   -0.925222    2.583755
     57          1           0      -12.122010    2.394535   -0.516632
     58          1           0      -12.302112    2.562370    1.316629
     59          1           0      -10.670571    2.416335    0.708197
     60          1           0      -12.105013   -2.796955    1.314006
     61          1           0       -9.074202   -1.711058    0.671417
     62          1           0       -5.935729   -1.988952   -0.298888
     63          1           0       -5.589271   -1.600598    1.392132
     64          1           0       -7.004210   -2.615355    0.781694
     65          1           0       -7.288752    1.322157   -0.514498
     66          1           0       -4.695063    0.091510    0.025697
     67          1           0       13.726159   -1.305010    2.029955
     68          1           0       12.161151   -2.152241    1.502963
     69          1           0       13.671660   -2.930812   -0.067637
     70          1           0       12.848162   -1.929568   -2.050311
     71          1           0       11.618368   -2.564877   -0.927910
     72          1           0       11.624721   -0.092068    3.519487
     73          1           0       10.395025    0.910800    2.570058
     74          1           0       10.588073   -0.918804    2.363369
     75          1           0       13.637894    1.345548    0.569514
     76          1           0       12.256240    1.972538    1.469164
     77          1           0       13.603810    1.324626    2.189539
     78          1           0       12.538565    0.165963   -2.992662
     79          1           0       11.608974    1.643043   -2.183968
     80          1           0       13.320341    0.999172   -1.556594
     81          1           0       -5.464646    2.965202   -0.584004
     82          1           0        9.802045   -0.204013   -2.171263
     83          1           0       15.365673   -1.142443    0.166253
     84          1           0        8.544132    1.979637    0.123941
     85          1           0       -2.530259    4.424560    0.359986
     86          1           0       -2.052655    4.256231   -1.340530
     87          1           0       -3.828066    4.374121   -0.853855
     88          1           0       -2.682358    0.546349   -0.113729
     89          1           0        7.016589   -2.043000    0.010482
     90          1           0        8.632021   -1.443602   -0.283872
     91          1           0        8.115641   -1.537633    1.497066
     92          1           0        6.108631    1.676554   -0.194490
     93          1           0       -0.606075    2.870063   -0.484796
     94          1           0        5.027562   -0.938223    0.710065
     95          1           0        0.049049   -0.236350    0.240572
     96          1           0        4.030262    1.831645    0.001382
     97          1           0        1.695814    2.231074   -0.115637
     98          1           0        1.280934   -1.412498    0.516338
     99          1           0        2.897334   -1.899417    0.150747
    100          1           0        2.697879   -1.324007    1.540267
 ---------------------------------------------------------------------

 SCF Done:  E(RCAM-B3LYP) =  -1857.31183528     A.U. after   15 cycles

 Excitation energies and oscillator strengths:

 Excited State   1:      Singlet-A      2.0144 eV  615.49 nm  f=2.7341  <S**2>=0.000
     163 ->166        -0.11980
     164 ->165         0.70216
     164 <-165        -0.11406
 This state for optimization and/or second-order correction.
 Total Energy, E(TD-HF/TD-DFT) =  -1857.23780713
 Copying the excited state density for this state as the 1-particle RhoCI density.

 The electronic state is 1-A.
 Alpha  occ. eigenvalues --  -19.24506 -19.23220 -19.22221 -19.20493 -10.32748
 Alpha  occ. eigenvalues --  -10.31874 -10.31686 -10.31181 -10.30964 -10.28212
 Alpha  occ. eigenvalues --  -10.28023 -10.27937 -10.27635 -10.27368 -10.27191
 Alpha  occ. eigenvalues --  -10.27136 -10.27070 -10.26927 -10.26852 -10.26735
 Alpha  occ. eigenvalues --  -10.26631 -10.26630 -10.26514 -10.26496 -10.26494
 Alpha  occ. eigenvalues --  -10.26482 -10.26462 -10.26429 -10.26318 -10.26273
 Alpha  occ. eigenvalues --  -10.25948 -10.25870 -10.25855 -10.25822 -10.25741
 Alpha  occ. eigenvalues --  -10.25531 -10.25451 -10.25412 -10.25079 -10.24938
 Alpha  occ. eigenvalues --  -10.24657 -10.24650 -10.24485 -10.23347  -1.17371
 Alpha  occ. eigenvalues --   -1.10860  -1.08961  -1.07401  -0.93524  -0.93174
 Alpha  occ. eigenvalues --   -0.92588  -0.91533  -0.91004  -0.90764  -0.87080
 Alpha  occ. eigenvalues --   -0.86773  -0.85609  -0.85187  -0.84550  -0.83139
 Alpha  occ. eigenvalues --   -0.82557  -0.80936  -0.80274  -0.79755  -0.77242
 Alpha  occ. eigenvalues --   -0.76818  -0.76701  -0.75857  -0.75599  -0.75222
 Alpha  occ. eigenvalues --   -0.74479  -0.73860  -0.72976  -0.70254  -0.69101
 Alpha  occ. eigenvalues --   -0.68041  -0.66915  -0.65181  -0.65049  -0.64355
 Alpha  occ. eigenvalues --   -0.63603  -0.61871  -0.61312  -0.60786  -0.60149
 Alpha  occ. eigenvalues --   -0.59090  -0.58271  -0.58089  -0.57310  -0.56569
 Alpha  occ. eigenvalues --   -0.55826  -0.55486  -0.54800  -0.54594  -0.54306
 Alpha  occ. eigenvalues --   -0.53589  -0.53127  -0.52882  -0.52762  -0.52061
 Alpha  occ. eigenvalues --   -0.51941  -0.51458  -0.50381  -0.50145  -0.49892
 Alpha  occ. eigenvalues --   -0.49551  -0.49432  -0.49259  -0.48988  -0.48811
 Alpha  occ. eigenvalues --   -0.47894  -0.47699  -0.47054  -0.46884  -0.46617
 Alpha  occ. eigenvalues --   -0.46351  -0.45752  -0.45424  -0.45302  -0.45109
 Alpha  occ. eigenvalues --   -0.45064  -0.44896  -0.44301  -0.44056  -0.44017
 Alpha  occ. eigenvalues --   -0.43712  -0.43381  -0.43102  -0.42851  -0.42677
 Alpha  occ. eigenvalues --   -0.42241  -0.42036  -0.41871  -0.41827  -0.41410
 Alpha  occ. eigenvalues --   -0.41007  -0.40538  -0.39978  -0.39787  -0.39696
 Alpha  occ. eigenvalues --   -0.39398  -0.39352  -0.39297  -0.38990  -0.38723
 Alpha  occ. eigenvalues --   -0.38172  -0.38099  -0.37811  -0.37511  -0.36742
 Alpha  occ. eigenvalues --   -0.36017  -0.35674  -0.34812  -0.34272  -0.33187
 Alpha  occ. eigenvalues --   -0.32801  -0.32363  -0.32152  -0.31847  -0.31324
 Alpha  occ. eigenvalues --   -0.28182  -0.27829  -0.24601  -0.19196
 Alpha virt. eigenvalues --   -0.06480  -0.00458   0.03336   0.05412   0.06073
 Alpha virt. eigenvalues --    0.07056   0.08476   0.10579   0.11873   0.12666
 Alpha virt. eigenvalues --    0.13033   0.13214   0.13331   0.13593   0.13664

 Mulliken charges:
               1
     1  O   -0.485712
     2  O   -0.562133
     3  O   -0.563020
     4  O   -0.523469
     5  C    0.213365
     6  C    0.250276
     7  C    0.045323
     8  C   -0.231800
     9  C   -0.184159
    10  C    0.184249
    11  C   -0.323385
    12  C   -0.149767
    13  C   -0.321632
    14  C   -0.308705
    15  C   -0.078665
    16  C    0.151697
    17  C   -0.424871
    18  C   -0.098104
    19  C   -0.072022
    20  C   -0.003838
    21  C    0.244360
    22  C   -0.170556
    23  C    0.148393
    24  C   -0.169946
    25  C   -0.015851
    26  C   -0.303689
    27  C   -0.288390
    28  C   -0.293312
    29  C   -0.139751
    30  C    0.126730
    31  C    0.112767
    32  C   -0.320466
    33  C   -0.380696
    34  C   -0.079115
    35  C    0.164939
    36  C   -0.396628
    37  C   -0.112336
    38  C   -0.097256
    39  C   -0.106931
    40  C   -0.077662
    41  C   -0.113963
    42  C   -0.126360
    43  C    0.109234
    44  C   -0.375004
    45  H    0.083421
    46  H    0.114481
    47  H    0.071461
    48  H    0.125719
    49  H    0.096061
    50  H    0.100476
    51  H    0.095788
    52  H    0.119269
    53  H    0.096822
    54  H    0.121294
    55  H    0.107097
    56  H    0.085522
    57  H    0.094372
    58  H    0.109621
    59  H    0.108398
    60  H    0.307949
    61  H    0.059763
    62  H    0.143471
    63  H    0.119587
    64  H    0.099575
    65  H    0.063689
    66  H    0.070170
    67  H    0.072183
    68  H    0.101265
    69  H    0.051417
    70  H    0.113812
    71  H    0.100852
    72  H    0.099040
    73  H    0.107009
    74  H    0.103289
    75  H    0.105167
    76  H    0.111729
    77  H    0.070232
    78  H    0.117634
    79  H    0.083973
    80  H    0.115738
    81  H    0.077516
    82  H    0.300306
    83  H    0.308103
    84  H    0.094498
    85  H    0.092355
    86  H    0.111336
    87  H    0.114353
    88  H    0.079170
    89  H    0.109115
    90  H    0.126291
    91  H    0.131795
    92  H    0.074394
    93  H    0.094936
    94  H    0.068017
    95  H    0.073800
    96  H    0.081297
    97  H    0.087366
    98  H    0.099572
    99  H    0.131538
   100  H    0.144761
 Sum of Mulliken charges =  -0.00000

 Dipole moment (field-independent basis, Debye):
    X=              4.2846    Y=             -0.7397    Z=              2.0727  Tot=              4.8167
 Quadrupole moment (field-independent basis, Debye-Ang):
   XX=           -257.2090   YY=           -256.7196   ZZ=           -282.9056
   XY=             -3.4679   XZ=             28.4140   YZ=             -1.4626

 Normal termination of Gaussian 16 at Mon Jul 29 07:49:54 2019.
