 Gaussian 16, Revision A.03,
 Gaussian 16:  ES64L-G16RevA.03 25-Dec-2016

 -------------------------------------
 # td=(NStates=1) CAM-B3LYP/6-31G(d,p)
 -------------------------------------

 --
 TD
 --
 Symbolic Z-matrix:
 Charge =  0 Multiplicity = 1

                         Standard orientation:
 ---------------------------------------------------------------------
 Center     Atomic      Atomic             Coordinates (Angstroms)
 Number     Number       Type             X           Y           Z
 ---------------------------------------------------------------------
      1          8           0      -11.701860   -0.201986   -1.657847
      2          8           0      -13.062609   -2.147388    1.779988
      3          8           0       10.388478   -1.105396   -1.970318
      4          8           0       14.357280   -1.120683   -0.284871
      5          6           0      -10.966506   -0.257283   -0.355794
      6          6           0      -11.560831   -1.551107   -1.043997
      7          6           0      -11.760565    0.425010    0.734823
      8          6           0      -12.868737   -2.004548   -0.593796
      9          6           0      -13.222303    0.088189    0.800388
     10          6           0      -13.477602   -1.311709    0.579366
     11          6           0      -10.687991   -2.499560   -1.849945
     12          6           0       -9.458317   -0.071004   -0.505529
     13          6           0      -11.115350    0.270858    2.147186
     14          6           0      -11.530806    1.992432    0.357618
     15          6           0       -8.579858   -0.776787    0.247946
     16          6           0       -7.157075   -0.483869    0.215184
     17          6           0       -6.237387   -1.648796    0.559782
     18          6           0       -6.668803    0.641111   -0.174321
     19          6           0       -5.266615    0.830651   -0.294852
     20          6           0       11.924578    0.055797    1.329899
     21          6           0       11.577449   -0.727479   -1.174072
     22          6           0       12.783529   -1.188366    1.556187
     23          6           0       13.284788   -1.885780    0.307610
     24          6           0       12.288646   -1.993732   -0.851211
     25          6           0       11.089536   -0.043790    0.058080
     26          6           0       11.074493    0.314085    2.529418
     27          6           0       12.882408    1.273320    1.171483
     28          6           0       12.399261    0.214993   -2.093039
     29          6           0       -4.754213    2.231901   -0.410068
     30          6           0        9.907226    0.439673    0.014161
     31          6           0       -3.395894    2.588333   -0.490419
     32          6           0        8.669555    1.003254   -0.036005
     33          6           0       -2.988909    4.078588   -0.731857
     34          6           0       -2.326157    1.642801   -0.317304
     35          6           0        7.407924    0.213296    0.132311
     36          6           0        7.675417   -1.280482    0.350262
     37          6           0        6.270847    0.880267    0.096969
     38          6           0       -1.016375    1.857251   -0.539184
     39          6           0        4.912618    0.212021    0.066587
     40          6           0        0.001334    0.920226   -0.327123
     41          6           0        3.767641    0.959944   -0.029656
     42          6           0        1.301102    1.328872   -0.228483
     43          6           0        2.449452    0.484199   -0.097139
     44          6           0        2.270800   -1.060708    0.066351
     45          1           0      -12.873839   -3.082311   -0.197836
     46          1           0      -13.657309   -1.774248   -1.557156
     47          1           0      -13.707722    0.596703    1.786638
     48          1           0      -13.590209    0.787197   -0.035921
     49          1           0      -14.649220   -1.549413    0.370158
     50          1           0      -10.299380   -3.207727   -1.096598
     51          1           0      -11.443306   -2.996299   -2.453266
     52          1           0      -10.061550   -1.791624   -2.443544
     53          1           0       -9.387866    0.699131   -1.192207
     54          1           0      -10.081552    1.047824    2.437058
     55          1           0      -12.001050    0.553849    2.841884
     56          1           0      -11.038677   -0.675487    2.429346
     57          1           0      -11.656484    2.320167   -0.622063
     58          1           0      -11.866809    2.464874    1.378280
     59          1           0      -10.378325    2.294228    0.537735
     60          1           0      -12.068959   -2.082839    1.812753
     61          1           0       -9.036467   -1.727114    1.059176
     62          1           0       -5.658928   -1.830780   -0.159629
     63          1           0       -5.505463   -1.322373    1.290109
     64          1           0       -6.827875   -2.651365    0.881434
     65          1           0       -7.138348    1.347899   -0.286731
     66          1           0       -4.521846    0.020557   -0.085830
     67          1           0       13.624789   -0.949290    2.371637
     68          1           0       12.002252   -1.899788    1.801855
     69          1           0       13.587106   -2.874107    0.307075
     70          1           0       12.755770   -2.308779   -1.722808
     71          1           0       11.620397   -2.807466   -0.436191
     72          1           0       11.640882    0.574941    3.423038
     73          1           0       10.418105    1.240880    2.441602
     74          1           0       10.442008   -0.394131    3.002422
     75          1           0       13.553293    1.053413    0.257582
     76          1           0       12.246056    2.169545    1.172784
     77          1           0       13.497625    1.259884    2.212337
     78          1           0       12.700857   -0.257070   -2.868896
     79          1           0       11.728700    1.038350   -2.323938
     80          1           0       13.338051    0.566509   -1.497452
     81          1           0       -5.349164    2.902123   -0.873910
     82          1           0        9.546786   -0.382282   -1.843526
     83          1           0       15.252600   -1.400261    0.361241
     84          1           0        8.564799    2.164634   -0.258557
     85          1           0       -2.636801    4.603791    0.238385
     86          1           0       -2.299789    4.005054   -1.566603
     87          1           0       -4.042968    4.638589   -1.062731
     88          1           0       -2.622087    0.590015   -0.136263
     89          1           0        6.601261   -1.689290    0.062802
     90          1           0        8.533216   -1.595150   -0.275638
     91          1           0        7.815189   -1.529583    1.412149
     92          1           0        6.126464    2.025516   -0.147822
     93          1           0       -0.642470    2.741379   -0.541299
     94          1           0        4.915661   -0.950267    0.152528
     95          1           0       -0.425933   -0.060151   -0.318359
     96          1           0        3.844884    2.141164   -0.048400
     97          1           0        1.458338    2.203989   -0.508411
     98          1           0        1.090636   -1.407450    0.306581
     99          1           0        2.550001   -1.724076   -0.743337
    100          1           0        2.774489   -1.500311    0.953810
 ---------------------------------------------------------------------

 SCF Done:  E(RCAM-B3LYP) =  -1857.13240861     A.U. after   15 cycles

 Excitation energies and oscillator strengths:

 Excited State   1:      Singlet-A      1.9427 eV  638.22 nm  f=2.7121  <S**2>=0.000
     163 ->166         0.11109
     164 ->165         0.70723
     164 <-165        -0.13393
 This state for optimization and/or second-order correction.
 Total Energy, E(TD-HF/TD-DFT) =  -1857.06101696
 Copying the excited state density for this state as the 1-particle RhoCI density.

 The electronic state is 1-A.
 Alpha  occ. eigenvalues --  -19.22785 -19.21340 -19.21264 -19.19964 -10.31955
 Alpha  occ. eigenvalues --  -10.31717 -10.31292 -10.31172 -10.30602 -10.29404
 Alpha  occ. eigenvalues --  -10.28787 -10.28486 -10.28461 -10.28237 -10.28064
 Alpha  occ. eigenvalues --  -10.27933 -10.27911 -10.27911 -10.27893 -10.27355
 Alpha  occ. eigenvalues --  -10.27308 -10.27126 -10.27064 -10.27019 -10.27004
 Alpha  occ. eigenvalues --  -10.26783 -10.26763 -10.26759 -10.26695 -10.26682
 Alpha  occ. eigenvalues --  -10.26633 -10.26621 -10.26344 -10.26176 -10.26042
 Alpha  occ. eigenvalues --  -10.25979 -10.25607 -10.25288 -10.24931 -10.24912
 Alpha  occ. eigenvalues --  -10.24444 -10.24419 -10.23148 -10.22869  -1.11180
 Alpha  occ. eigenvalues --   -1.07804  -1.06920  -1.05094  -0.93712  -0.93355
 Alpha  occ. eigenvalues --   -0.92386  -0.91251  -0.91083  -0.89827  -0.87596
 Alpha  occ. eigenvalues --   -0.87034  -0.86568  -0.85664  -0.85123  -0.82994
 Alpha  occ. eigenvalues --   -0.81865  -0.81236  -0.80540  -0.78613  -0.77214
 Alpha  occ. eigenvalues --   -0.77090  -0.76674  -0.76634  -0.75985  -0.75787
 Alpha  occ. eigenvalues --   -0.75308  -0.74180  -0.73177  -0.70586  -0.69934
 Alpha  occ. eigenvalues --   -0.68462  -0.67257  -0.65113  -0.65029  -0.64881
 Alpha  occ. eigenvalues --   -0.63221  -0.62853  -0.62134  -0.60525  -0.59267
 Alpha  occ. eigenvalues --   -0.58538  -0.57804  -0.57611  -0.56952  -0.56757
 Alpha  occ. eigenvalues --   -0.56038  -0.55664  -0.55459  -0.54334  -0.53752
 Alpha  occ. eigenvalues --   -0.53506  -0.53316  -0.52254  -0.51666  -0.51463
 Alpha  occ. eigenvalues --   -0.51233  -0.50901  -0.50668  -0.50585  -0.49931
 Alpha  occ. eigenvalues --   -0.49133  -0.49068  -0.48692  -0.48312  -0.48151
 Alpha  occ. eigenvalues --   -0.48070  -0.47539  -0.47520  -0.46728  -0.46577
 Alpha  occ. eigenvalues --   -0.46204  -0.46100  -0.45623  -0.45394  -0.45151
 Alpha  occ. eigenvalues --   -0.44938  -0.44889  -0.44030  -0.44006  -0.43937
 Alpha  occ. eigenvalues --   -0.43592  -0.43476  -0.43142  -0.42996  -0.42615
 Alpha  occ. eigenvalues --   -0.42463  -0.42114  -0.41586  -0.41340  -0.41018
 Alpha  occ. eigenvalues --   -0.40667  -0.40395  -0.40380  -0.39971  -0.39734
 Alpha  occ. eigenvalues --   -0.39538  -0.39466  -0.38841  -0.38786  -0.38736
 Alpha  occ. eigenvalues --   -0.38370  -0.37866  -0.37656  -0.36846  -0.36720
 Alpha  occ. eigenvalues --   -0.36196  -0.35875  -0.35557  -0.34553  -0.33874
 Alpha  occ. eigenvalues --   -0.32987  -0.32198  -0.31820  -0.31244  -0.30475
 Alpha  occ. eigenvalues --   -0.30088  -0.28456  -0.25403  -0.19038
 Alpha virt. eigenvalues --   -0.07015  -0.00413   0.03258   0.05771   0.06655
 Alpha virt. eigenvalues --    0.07668   0.08345   0.09590   0.10418   0.11152
 Alpha virt. eigenvalues --    0.11339   0.11812   0.12613   0.12950   0.13185

 Mulliken charges:
               1
     1  O   -0.538909
     2  O   -0.574738
     3  O   -0.612750
     4  O   -0.552858
     5  C    0.178056
     6  C    0.213732
     7  C    0.013210
     8  C   -0.191766
     9  C   -0.164472
    10  C    0.146686
    11  C   -0.311087
    12  C   -0.075527
    13  C   -0.285182
    14  C   -0.326847
    15  C   -0.094900
    16  C    0.080077
    17  C   -0.370337
    18  C    0.022520
    19  C   -0.113007
    20  C    0.010829
    21  C    0.254271
    22  C   -0.162757
    23  C    0.130041
    24  C   -0.187157
    25  C   -0.070827
    26  C   -0.318387
    27  C   -0.275656
    28  C   -0.262077
    29  C   -0.126428
    30  C    0.135844
    31  C    0.049739
    32  C   -0.278944
    33  C   -0.351008
    34  C   -0.087404
    35  C    0.101843
    36  C   -0.355477
    37  C   -0.107785
    38  C   -0.073620
    39  C   -0.101741
    40  C   -0.059382
    41  C   -0.118423
    42  C   -0.108183
    43  C    0.110629
    44  C   -0.378932
    45  H    0.119973
    46  H    0.086001
    47  H    0.100728
    48  H    0.121996
    49  H    0.094539
    50  H    0.111333
    51  H    0.115590
    52  H    0.131798
    53  H    0.116773
    54  H    0.083022
    55  H    0.097468
    56  H    0.090607
    57  H    0.136296
    58  H    0.100191
    59  H    0.078961
    60  H    0.302436
    61  H    0.064210
    62  H    0.142370
    63  H    0.120384
    64  H    0.088817
    65  H    0.012827
    66  H    0.085157
    67  H    0.085790
    68  H    0.098955
    69  H    0.097383
    70  H    0.122972
    71  H    0.102034
    72  H    0.093927
    73  H    0.105436
    74  H    0.108974
    75  H    0.127833
    76  H    0.103757
    77  H    0.068194
    78  H    0.117174
    79  H    0.094916
    80  H    0.104238
    81  H    0.087963
    82  H    0.308689
    83  H    0.293161
    84  H    0.104731
    85  H    0.127978
    86  H    0.135440
    87  H    0.079482
    88  H    0.066151
    89  H    0.088733
    90  H    0.135529
    91  H    0.132002
    92  H    0.085176
    93  H    0.066211
    94  H    0.092468
    95  H    0.080224
    96  H    0.076552
    97  H    0.068844
    98  H    0.077437
    99  H    0.130945
   100  H    0.118316
 Sum of Mulliken charges =  -0.00000

 Dipole moment (field-independent basis, Debye):
    X=              4.1219    Y=             -0.1685    Z=              2.4179  Tot=              4.7817
 Quadrupole moment (field-independent basis, Debye-Ang):
   XX=           -273.4600   YY=           -259.2352   ZZ=           -282.4440
   XY=            -18.1515   XZ=             33.8106   YZ=             -3.9364

 Normal termination of Gaussian 16 at Mon Jul 29 19:08:42 2019.
