 Gaussian 16, Revision A.03,
 Gaussian 16:  ES64L-G16RevA.03 25-Dec-2016

 -------------------------------------
 # td=(NStates=1) CAM-B3LYP/6-31G(d,p)
 -------------------------------------

 --
 TD
 --
 Symbolic Z-matrix:
 Charge =  0 Multiplicity = 1

                         Standard orientation:
 ---------------------------------------------------------------------
 Center     Atomic      Atomic             Coordinates (Angstroms)
 Number     Number       Type             X           Y           Z
 ---------------------------------------------------------------------
      1          8           0      -11.852871    0.641728   -1.436604
      2          8           0      -13.113535   -2.619774    1.013964
      3          8           0       10.649128   -0.414709   -2.248217
      4          8           0       14.601081   -0.860559   -0.118090
      5          6           0      -11.100375    0.037003   -0.268174
      6          6           0      -11.727088   -0.818064   -1.360582
      7          6           0      -11.816474    0.254423    1.056411
      8          6           0      -13.024714   -1.617514   -1.086937
      9          6           0      -13.363151   -0.199998    0.926772
     10          6           0      -13.573446   -1.569505    0.319375
     11          6           0      -10.914769   -1.490397   -2.415886
     12          6           0       -9.643279    0.238943   -0.256244
     13          6           0      -11.241056   -0.506453    2.314906
     14          6           0      -11.901146    1.819952    1.366581
     15          6           0       -8.729154   -0.716644    0.059299
     16          6           0       -7.282713   -0.614574    0.174850
     17          6           0       -6.485561   -1.870699    0.313743
     18          6           0       -6.627510    0.557320    0.003509
     19          6           0       -5.247155    0.869509   -0.015619
     20          6           0       11.965669   -0.311088    1.440553
     21          6           0       11.731188   -0.218552   -1.173309
     22          6           0       12.747033   -1.608074    1.240641
     23          6           0       13.424882   -1.741080   -0.067243
     24          6           0       12.566264   -1.573160   -1.285859
     25          6           0       11.188988    0.008254    0.155646
     26          6           0       11.007819   -0.560328    2.667646
     27          6           0       12.908048    0.884933    1.847675
     28          6           0       12.674015    0.999692   -1.695150
     29          6           0       -4.709283    2.041433   -0.111040
     30          6           0        9.894658    0.487306    0.198638
     31          6           0       -3.419452    2.438383   -0.289640
     32          6           0        8.646467    1.023292    0.278976
     33          6           0       -3.009334    3.929472   -0.257009
     34          6           0       -2.282841    1.504855   -0.281681
     35          6           0        7.498120    0.189836    0.081629
     36          6           0        7.650868   -1.312678   -0.127890
     37          6           0        6.259681    0.738142   -0.017182
     38          6           0       -0.885503    1.700224   -0.133276
     39          6           0        4.953451    0.149411   -0.230722
     40          6           0        0.078708    0.725069   -0.190203
     41          6           0        3.868310    0.901906   -0.301758
     42          6           0        1.379985    1.155297   -0.249044
     43          6           0        2.588694    0.299868   -0.337314
     44          6           0        2.499971   -1.198922   -0.248546
     45          1           0      -12.988678   -2.787429   -1.150303
     46          1           0      -13.873264   -1.341331   -1.676568
     47          1           0      -13.658985   -0.082182    2.031453
     48          1           0      -13.949426    0.546437    0.406129
     49          1           0      -14.618385   -1.537901    0.347992
     50          1           0      -10.429712   -2.580482   -2.028515
     51          1           0      -11.433995   -1.610481   -3.501263
     52          1           0      -10.067187   -0.581293   -2.597283
     53          1           0       -9.297977    1.217075   -0.639353
     54          1           0      -10.187995   -0.212880    2.491611
     55          1           0      -11.776036   -0.266796    3.205885
     56          1           0      -11.263056   -1.555256    2.291969
     57          1           0      -12.301397    2.495914    0.683752
     58          1           0      -12.431657    1.825665    2.239128
     59          1           0      -10.868019    2.180533    1.563904
     60          1           0      -12.186863   -2.699036    0.839633
     61          1           0       -9.067489   -1.438660    0.269982
     62          1           0       -5.800414   -1.938106   -0.600916
     63          1           0       -6.039744   -1.875978    1.292494
     64          1           0       -7.203348   -2.823169    0.251915
     65          1           0       -7.390302    1.379233   -0.294022
     66          1           0       -4.633459    0.025702    0.179855
     67          1           0       13.533791   -1.841611    2.038519
     68          1           0       11.822964   -2.362796    1.476814
     69          1           0       13.568857   -2.807839   -0.024743
     70          1           0       13.160289   -1.669335   -2.180552
     71          1           0       11.906428   -2.433843   -1.201090
     72          1           0       11.541857   -0.997384    3.572312
     73          1           0       10.463943    0.397330    3.003117
     74          1           0       10.267554   -1.218195    2.235953
     75          1           0       13.829238    0.883015    1.038878
     76          1           0       12.433239    1.783569    2.052803
     77          1           0       13.379162    0.591647    2.886092
     78          1           0       12.877448    0.747415   -2.727469
     79          1           0       12.250607    2.100382   -1.489229
     80          1           0       13.635406    0.872487   -1.107018
     81          1           0       -5.412943    2.828963   -0.192980
     82          1           0        9.976295    0.418432   -2.362752
     83          1           0       15.352834   -1.089296    0.536749
     84          1           0        8.470874    2.016449    0.267198
     85          1           0       -2.641376    4.131715    0.762577
     86          1           0       -2.212309    4.192310   -0.971724
     87          1           0       -3.982917    4.552648   -0.459943
     88          1           0       -2.346129    0.420666   -0.405414
     89          1           0        6.707450   -1.858708   -0.109511
     90          1           0        8.297306   -1.534889   -1.052609
     91          1           0        8.107541   -1.829039    0.837671
     92          1           0        6.014454    1.958247    0.111979
     93          1           0       -0.550789    2.808297   -0.201782
     94          1           0        4.964723   -0.717081   -0.402873
     95          1           0       -0.061105   -0.485142   -0.292286
     96          1           0        3.773275    1.930007   -0.201596
     97          1           0        1.410140    2.273162   -0.212800
     98          1           0        1.473125   -1.555772   -0.054839
     99          1           0        2.871531   -1.455836   -1.363217
    100          1           0        3.021307   -1.523786    0.618616
 ---------------------------------------------------------------------

 SCF Done:  E(RCAM-B3LYP) =  -1857.24493332     A.U. after   15 cycles

 Excitation energies and oscillator strengths:

 Excited State   1:      Singlet-A      2.0534 eV  603.79 nm  f=3.1198  <S**2>=0.000
     163 ->166        -0.12372
     164 ->165         0.70037
     164 <-165        -0.10930
 This state for optimization and/or second-order correction.
 Total Energy, E(TD-HF/TD-DFT) =  -1857.16947086
 Copying the excited state density for this state as the 1-particle RhoCI density.

 The electronic state is 1-A.
 Alpha  occ. eigenvalues --  -19.23264 -19.22517 -19.21366 -19.20780 -10.32806
 Alpha  occ. eigenvalues --  -10.32682 -10.32171 -10.31244 -10.28913 -10.28886
 Alpha  occ. eigenvalues --  -10.28347 -10.28344 -10.28118 -10.28113 -10.28100
 Alpha  occ. eigenvalues --  -10.27866 -10.27736 -10.27485 -10.27168 -10.27158
 Alpha  occ. eigenvalues --  -10.26911 -10.26868 -10.26866 -10.26832 -10.26787
 Alpha  occ. eigenvalues --  -10.26739 -10.26622 -10.26582 -10.26483 -10.26477
 Alpha  occ. eigenvalues --  -10.26011 -10.25774 -10.25551 -10.25530 -10.25456
 Alpha  occ. eigenvalues --  -10.25377 -10.25232 -10.25029 -10.24724 -10.24516
 Alpha  occ. eigenvalues --  -10.24481 -10.24352 -10.24122 -10.23381  -1.13206
 Alpha  occ. eigenvalues --   -1.11792  -1.08604  -1.03851  -0.93048  -0.92735
 Alpha  occ. eigenvalues --   -0.92548  -0.91165  -0.90450  -0.89370  -0.88633
 Alpha  occ. eigenvalues --   -0.86257  -0.86088  -0.85418  -0.84834  -0.83549
 Alpha  occ. eigenvalues --   -0.82369  -0.80649  -0.79813  -0.78426  -0.76718
 Alpha  occ. eigenvalues --   -0.76546  -0.76149  -0.75697  -0.75599  -0.75392
 Alpha  occ. eigenvalues --   -0.75001  -0.74719  -0.72574  -0.70739  -0.70031
 Alpha  occ. eigenvalues --   -0.68623  -0.67154  -0.66231  -0.64865  -0.64012
 Alpha  occ. eigenvalues --   -0.63357  -0.63035  -0.61362  -0.60760  -0.59648
 Alpha  occ. eigenvalues --   -0.59561  -0.59109  -0.58155  -0.56451  -0.56068
 Alpha  occ. eigenvalues --   -0.55684  -0.55404  -0.55237  -0.54483  -0.53742
 Alpha  occ. eigenvalues --   -0.53376  -0.53129  -0.52833  -0.52031  -0.51796
 Alpha  occ. eigenvalues --   -0.50937  -0.50557  -0.50375  -0.50224  -0.50033
 Alpha  occ. eigenvalues --   -0.49317  -0.49070  -0.48320  -0.48248  -0.48111
 Alpha  occ. eigenvalues --   -0.47943  -0.47516  -0.47031  -0.46877  -0.46496
 Alpha  occ. eigenvalues --   -0.46181  -0.45985  -0.45697  -0.45653  -0.45068
 Alpha  occ. eigenvalues --   -0.44952  -0.44910  -0.44332  -0.44120  -0.43784
 Alpha  occ. eigenvalues --   -0.43389  -0.43008  -0.42991  -0.42927  -0.42032
 Alpha  occ. eigenvalues --   -0.41966  -0.41623  -0.41517  -0.41309  -0.40960
 Alpha  occ. eigenvalues --   -0.40560  -0.40531  -0.40071  -0.39850  -0.39803
 Alpha  occ. eigenvalues --   -0.39503  -0.39096  -0.39038  -0.38947  -0.38880
 Alpha  occ. eigenvalues --   -0.38577  -0.38195  -0.38058  -0.37766  -0.37458
 Alpha  occ. eigenvalues --   -0.36323  -0.36101  -0.35194  -0.34388  -0.34045
 Alpha  occ. eigenvalues --   -0.32708  -0.32658  -0.31982  -0.31070  -0.30316
 Alpha  occ. eigenvalues --   -0.28682  -0.27685  -0.24600  -0.19133
 Alpha virt. eigenvalues --   -0.06401  -0.00369   0.03162   0.05093   0.06789
 Alpha virt. eigenvalues --    0.09018   0.10034   0.10673   0.11347   0.11546
 Alpha virt. eigenvalues --    0.11930   0.12990   0.13108   0.13562   0.14106

 Mulliken charges:
               1
     1  O   -0.519907
     2  O   -0.515193
     3  O   -0.598057
     4  O   -0.565439
     5  C    0.197611
     6  C    0.271500
     7  C   -0.003436
     8  C   -0.246818
     9  C   -0.191325
    10  C    0.167330
    11  C   -0.306564
    12  C   -0.129816
    13  C   -0.324826
    14  C   -0.307034
    15  C    0.058995
    16  C    0.065840
    17  C   -0.373729
    18  C   -0.111609
    19  C   -0.058227
    20  C    0.021514
    21  C    0.234602
    22  C   -0.172075
    23  C    0.143821
    24  C   -0.176297
    25  C   -0.031682
    26  C   -0.311106
    27  C   -0.290374
    28  C   -0.317504
    29  C   -0.079454
    30  C    0.102376
    31  C    0.060703
    32  C   -0.231304
    33  C   -0.368240
    34  C   -0.122989
    35  C    0.103235
    36  C   -0.373830
    37  C   -0.123467
    38  C   -0.111909
    39  C   -0.012951
    40  C   -0.050120
    41  C   -0.069078
    42  C   -0.126604
    43  C    0.042938
    44  C   -0.354262
    45  H    0.100219
    46  H    0.119448
    47  H    0.079683
    48  H    0.105881
    49  H    0.097537
    50  H    0.085215
    51  H    0.109158
    52  H    0.099999
    53  H    0.105366
    54  H    0.106965
    55  H    0.114846
    56  H    0.099466
    57  H    0.127536
    58  H    0.106553
    59  H    0.092698
    60  H    0.301065
    61  H   -0.025089
    62  H    0.128366
    63  H    0.136165
    64  H    0.085043
    65  H    0.060920
    66  H    0.078759
    67  H    0.082563
    68  H    0.080449
    69  H    0.097308
    70  H    0.123138
    71  H    0.119084
    72  H    0.097532
    73  H    0.100188
    74  H    0.111624
    75  H    0.106576
    76  H    0.111801
    77  H    0.069499
    78  H    0.120877
    79  H    0.085264
    80  H    0.136231
    81  H    0.070682
    82  H    0.306251
    83  H    0.317356
    84  H    0.106246
    85  H    0.133687
    86  H    0.124132
    87  H    0.097188
    88  H    0.074883
    89  H    0.109862
    90  H    0.140259
    91  H    0.098894
    92  H    0.048018
    93  H    0.075045
    94  H    0.038586
    95  H    0.087300
    96  H    0.081410
    97  H    0.081490
    98  H    0.100326
    99  H    0.119011
   100  H    0.136206
 Sum of Mulliken charges =  -0.00000

 Dipole moment (field-independent basis, Debye):
    X=              4.3198    Y=             -1.7096    Z=              2.0463  Tot=              5.0765
 Quadrupole moment (field-independent basis, Debye-Ang):
   XX=           -264.5665   YY=           -258.9115   ZZ=           -277.9993
   XY=            -11.5206   XZ=             22.4998   YZ=              0.2740

 Normal termination of Gaussian 16 at Mon Jul 29 03:36:41 2019.
