 Gaussian 16, Revision A.03,
 Gaussian 16:  ES64L-G16RevA.03 25-Dec-2016

 -------------------------------------
 # td=(NStates=1) CAM-B3LYP/6-31G(d,p)
 -------------------------------------

 --
 TD
 --
 Symbolic Z-matrix:
 Charge =  0 Multiplicity = 1

                         Standard orientation:
 ---------------------------------------------------------------------
 Center     Atomic      Atomic             Coordinates (Angstroms)
 Number     Number       Type             X           Y           Z
 ---------------------------------------------------------------------
      1          8           0      -11.859118    0.418278   -1.419366
      2          8           0      -12.630577   -2.696112    1.253208
      3          8           0       10.611688   -0.929213   -2.072746
      4          8           0       14.421477   -0.851394   -0.007674
      5          6           0      -11.053135   -0.185582   -0.324550
      6          6           0      -11.642622   -0.941107   -1.366383
      7          6           0      -11.714568    0.231294    1.020725
      8          6           0      -13.011861   -1.713523   -0.935567
      9          6           0      -13.139305   -0.222486    1.034794
     10          6           0      -13.379023   -1.697168    0.441562
     11          6           0      -10.746999   -1.667508   -2.316165
     12          6           0       -9.534629    0.099241   -0.337911
     13          6           0      -10.986384   -0.465311    2.255658
     14          6           0      -11.551844    1.807174    1.217044
     15          6           0       -8.603561   -0.721775    0.095068
     16          6           0       -7.109665   -0.525620    0.171655
     17          6           0       -6.245726   -1.684896    0.475402
     18          6           0       -6.603213    0.745886   -0.004040
     19          6           0       -5.207070    0.950548    0.017223
     20          6           0       11.776815   -0.031659    1.382036
     21          6           0       11.644122   -0.489574   -1.231437
     22          6           0       12.601576   -1.350285    1.544876
     23          6           0       13.386556   -1.822700    0.256929
     24          6           0       12.416942   -1.860140   -0.890436
     25          6           0       11.051551   -0.011041   -0.011205
     26          6           0       10.832267   -0.032985    2.626309
     27          6           0       12.747439    1.193490    1.603731
     28          6           0       12.563529    0.601830   -1.921919
     29          6           0       -4.737944    2.224293   -0.124936
     30          6           0        9.816780    0.500388   -0.002432
     31          6           0       -3.395777    2.694436   -0.337286
     32          6           0        8.603357    0.834603   -0.054910
     33          6           0       -3.136179    4.123087   -0.443480
     34          6           0       -2.376670    1.748866   -0.298457
     35          6           0        7.475219    0.148965   -0.079533
     36          6           0        7.497231   -1.480503    0.066332
     37          6           0        6.223037    0.655844   -0.162771
     38          6           0       -0.977559    1.942423   -0.337592
     39          6           0        4.930408   -0.044011   -0.142287
     40          6           0        0.015880    0.979582   -0.338313
     41          6           0        3.770172    0.845868   -0.333755
     42          6           0        1.340961    1.312241   -0.307731
     43          6           0        2.421440    0.376902   -0.179126
     44          6           0        2.169414   -1.162954   -0.176391
     45          1           0      -12.860633   -2.903778   -1.296213
     46          1           0      -13.902466   -1.148555   -1.551293
     47          1           0      -13.624893    0.021142    2.030776
     48          1           0      -13.786266    0.393300    0.246327
     49          1           0      -14.340663   -1.982370    0.439112
     50          1           0      -10.237215   -2.597822   -1.910637
     51          1           0      -11.447340   -2.195380   -3.248501
     52          1           0       -9.985546   -0.885033   -2.825511
     53          1           0       -9.313728    0.977712   -0.708177
     54          1           0       -9.853329   -0.192837    2.269805
     55          1           0      -11.477703   -0.085271    3.183995
     56          1           0      -10.788906   -1.533144    1.798840
     57          1           0      -12.194937    2.466090    0.496532
     58          1           0      -12.079900    2.068109    2.207381
     59          1           0      -10.666219    2.129846    1.454652
     60          1           0      -11.710753   -2.668960    0.853814
     61          1           0       -9.094508   -1.709132    0.544984
     62          1           0       -5.621840   -1.849313   -0.398667
     63          1           0       -5.575614   -1.533977    1.233266
     64          1           0       -6.668642   -2.721577    0.687812
     65          1           0       -7.105669    1.724307   -0.125593
     66          1           0       -4.534926    0.026248    0.102596
     67          1           0       13.265984   -1.057835    2.297266
     68          1           0       12.095220   -2.354711    1.946568
     69          1           0       13.927296   -2.575804    0.419932
     70          1           0       12.991329   -2.123254   -1.766377
     71          1           0       11.540970   -2.515311   -0.883613
     72          1           0       11.384764    0.167087    3.625039
     73          1           0       10.265954    0.762742    2.422197
     74          1           0       10.157386   -0.888705    2.648050
     75          1           0       13.637390    1.102125    0.887518
     76          1           0       12.160199    2.040083    1.648386
     77          1           0       13.420333    1.178155    2.514050
     78          1           0       12.955181   -0.026220   -2.866399
     79          1           0       11.635931    1.341079   -2.027161
     80          1           0       13.343819    0.667095   -1.280451
     81          1           0       -5.460654    3.195348   -0.284303
     82          1           0        9.998170   -0.155718   -2.402619
     83          1           0       15.126858   -0.787338    0.620133
     84          1           0        8.481290    1.769725   -0.399996
     85          1           0       -2.668864    4.498471    0.369629
     86          1           0       -2.295686    4.291760   -1.365378
     87          1           0       -4.076693    4.488700   -0.551796
     88          1           0       -2.661163    0.761761   -0.130531
     89          1           0        6.591207   -1.974460    0.132221
     90          1           0        7.988866   -1.963536   -0.844074
     91          1           0        8.281694   -1.531662    1.002108
     92          1           0        6.157882    1.719505   -0.184017
     93          1           0       -0.586995    2.960600   -0.464676
     94          1           0        4.700843   -1.174444   -0.156997
     95          1           0       -0.266603   -0.035767   -0.077682
     96          1           0        3.678044    1.834621   -0.323917
     97          1           0        1.504533    2.384458   -0.479373
     98          1           0        1.109535   -1.553596   -0.136969
     99          1           0        2.347159   -1.564895   -1.305249
    100          1           0        3.006991   -1.648924    0.581422
 ---------------------------------------------------------------------

 SCF Done:  E(RCAM-B3LYP) =  -1857.20224046     A.U. after   15 cycles

 Excitation energies and oscillator strengths:

 Excited State   1:      Singlet-A      2.1072 eV  588.37 nm  f=3.0992  <S**2>=0.000
     163 ->166        -0.13337
     164 ->165         0.69676
 This state for optimization and/or second-order correction.
 Total Energy, E(TD-HF/TD-DFT) =  -1857.12480071
 Copying the excited state density for this state as the 1-particle RhoCI density.

 The electronic state is 1-A.
 Alpha  occ. eigenvalues --  -19.22725 -19.21336 -19.21075 -19.20943 -10.32548
 Alpha  occ. eigenvalues --  -10.31747 -10.31352 -10.29935 -10.29910 -10.28874
 Alpha  occ. eigenvalues --  -10.28769 -10.28680 -10.28636 -10.28408 -10.28368
 Alpha  occ. eigenvalues --  -10.28186 -10.28136 -10.28038 -10.27749 -10.27150
 Alpha  occ. eigenvalues --  -10.27134 -10.26730 -10.26711 -10.26663 -10.26625
 Alpha  occ. eigenvalues --  -10.26598 -10.26478 -10.26415 -10.26200 -10.26146
 Alpha  occ. eigenvalues --  -10.26075 -10.25988 -10.25967 -10.25922 -10.25500
 Alpha  occ. eigenvalues --  -10.25431 -10.25415 -10.25236 -10.25202 -10.24998
 Alpha  occ. eigenvalues --  -10.24783 -10.24605 -10.24548 -10.23840  -1.16490
 Alpha  occ. eigenvalues --   -1.09807  -1.09198  -1.07084  -0.93212  -0.92900
 Alpha  occ. eigenvalues --   -0.91664  -0.91190  -0.90621  -0.89873  -0.87496
 Alpha  occ. eigenvalues --   -0.86621  -0.85574  -0.85465  -0.84974  -0.83432
 Alpha  occ. eigenvalues --   -0.82640  -0.80990  -0.80267  -0.78256  -0.76981
 Alpha  occ. eigenvalues --   -0.76633  -0.75879  -0.75787  -0.75122  -0.75061
 Alpha  occ. eigenvalues --   -0.74404  -0.74086  -0.73112  -0.71263  -0.70392
 Alpha  occ. eigenvalues --   -0.69130  -0.67249  -0.65306  -0.64952  -0.64409
 Alpha  occ. eigenvalues --   -0.63859  -0.62690  -0.61147  -0.60810  -0.60377
 Alpha  occ. eigenvalues --   -0.58834  -0.58632  -0.58426  -0.57880  -0.56932
 Alpha  occ. eigenvalues --   -0.56364  -0.55873  -0.55230  -0.54623  -0.54568
 Alpha  occ. eigenvalues --   -0.53743  -0.52911  -0.52801  -0.52119  -0.51522
 Alpha  occ. eigenvalues --   -0.51052  -0.50514  -0.50053  -0.49853  -0.49670
 Alpha  occ. eigenvalues --   -0.49650  -0.49380  -0.48919  -0.48424  -0.48143
 Alpha  occ. eigenvalues --   -0.47926  -0.47776  -0.47213  -0.47032  -0.46800
 Alpha  occ. eigenvalues --   -0.46317  -0.45759  -0.45646  -0.45339  -0.45155
 Alpha  occ. eigenvalues --   -0.44864  -0.44824  -0.44717  -0.44586  -0.43944
 Alpha  occ. eigenvalues --   -0.43696  -0.43159  -0.42944  -0.42707  -0.42378
 Alpha  occ. eigenvalues --   -0.42316  -0.42224  -0.41563  -0.41363  -0.40927
 Alpha  occ. eigenvalues --   -0.40542  -0.40161  -0.39891  -0.39817  -0.39768
 Alpha  occ. eigenvalues --   -0.39518  -0.39207  -0.38966  -0.38882  -0.38197
 Alpha  occ. eigenvalues --   -0.37928  -0.37734  -0.37180  -0.37011  -0.36780
 Alpha  occ. eigenvalues --   -0.36551  -0.36026  -0.35404  -0.34577  -0.34194
 Alpha  occ. eigenvalues --   -0.32474  -0.32416  -0.31945  -0.31442  -0.30565
 Alpha  occ. eigenvalues --   -0.28749  -0.28204  -0.24555  -0.19517
 Alpha virt. eigenvalues --   -0.06425  -0.00800   0.03397   0.06570   0.06958
 Alpha virt. eigenvalues --    0.07504   0.10024   0.10394   0.11307   0.11683
 Alpha virt. eigenvalues --    0.11702   0.12137   0.12361   0.13270   0.13801

 Mulliken charges:
               1
     1  O   -0.496711
     2  O   -0.548268
     3  O   -0.573331
     4  O   -0.577065
     5  C    0.126598
     6  C    0.314149
     7  C    0.046815
     8  C   -0.222624
     9  C   -0.188112
    10  C    0.172688
    11  C   -0.333612
    12  C   -0.073619
    13  C   -0.273129
    14  C   -0.305118
    15  C   -0.080811
    16  C    0.063213
    17  C   -0.395071
    18  C   -0.097014
    19  C   -0.060809
    20  C   -0.002580
    21  C    0.191637
    22  C   -0.179950
    23  C    0.195214
    24  C   -0.202451
    25  C   -0.011301
    26  C   -0.295889
    27  C   -0.313075
    28  C   -0.264104
    29  C   -0.143866
    30  C    0.150410
    31  C    0.094739
    32  C   -0.322938
    33  C   -0.347925
    34  C   -0.098291
    35  C    0.162187
    36  C   -0.348837
    37  C   -0.126290
    38  C   -0.101314
    39  C   -0.115334
    40  C   -0.055164
    41  C   -0.081771
    42  C   -0.129587
    43  C    0.079589
    44  C   -0.362189
    45  H    0.078182
    46  H    0.102158
    47  H    0.092702
    48  H    0.088484
    49  H    0.112265
    50  H    0.117805
    51  H    0.074295
    52  H    0.118128
    53  H    0.090695
    54  H    0.093575
    55  H    0.113194
    56  H    0.066027
    57  H    0.111011
    58  H    0.080174
    59  H    0.118436
    60  H    0.295312
    61  H    0.050258
    62  H    0.131893
    63  H    0.140657
    64  H    0.113430
    65  H    0.099375
    66  H    0.097246
    67  H    0.083317
    68  H    0.073021
    69  H    0.077958
    70  H    0.103983
    71  H    0.134188
    72  H    0.092696
    73  H    0.112776
    74  H    0.105566
    75  H    0.113620
    76  H    0.111355
    77  H    0.083122
    78  H    0.095772
    79  H    0.073450
    80  H    0.152872
    81  H    0.063281
    82  H    0.310257
    83  H    0.306862
    84  H    0.102314
    85  H    0.145534
    86  H    0.095074
    87  H    0.106444
    88  H    0.062333
    89  H    0.109008
    90  H    0.118452
    91  H    0.093776
    92  H    0.077307
    93  H    0.068412
    94  H    0.106840
    95  H    0.077767
    96  H    0.079270
    97  H    0.083252
    98  H    0.113736
    99  H    0.109169
   100  H    0.102824
 Sum of Mulliken charges =  -0.00000

 Dipole moment (field-independent basis, Debye):
    X=              3.4788    Y=              0.1513    Z=              0.9427  Tot=              3.6074
 Quadrupole moment (field-independent basis, Debye-Ang):
   XX=           -275.7264   YY=           -261.6622   ZZ=           -280.0865
   XY=             -9.9966   XZ=             27.6262   YZ=              3.7772

 Normal termination of Gaussian 16 at Tue Jul 30 06:11:28 2019.
