 Gaussian 16, Revision A.03,
 Gaussian 16:  ES64L-G16RevA.03 25-Dec-2016

 -------------------------------------
 # td=(NStates=1) CAM-B3LYP/6-31G(d,p)
 -------------------------------------

 --
 TD
 --
 Symbolic Z-matrix:
 Charge =  0 Multiplicity = 1

                         Standard orientation:
 ---------------------------------------------------------------------
 Center     Atomic      Atomic             Coordinates (Angstroms)
 Number     Number       Type             X           Y           Z
 ---------------------------------------------------------------------
      1          8           0      -11.775934    0.061263   -1.571478
      2          8           0      -12.843704   -2.210757    1.663688
      3          8           0       10.608693   -1.121064   -2.060455
      4          8           0       14.457091   -0.785620   -0.057306
      5          6           0      -11.008538   -0.267956   -0.336623
      6          6           0      -11.648366   -1.298551   -1.082987
      7          6           0      -11.695018    0.455390    0.827817
      8          6           0      -12.911817   -1.929777   -0.646396
      9          6           0      -13.160280    0.042304    0.884480
     10          6           0      -13.501745   -1.391821    0.701653
     11          6           0      -10.784750   -2.407769   -1.973642
     12          6           0       -9.598335    0.009833   -0.462082
     13          6           0      -10.978492    0.127494    2.219109
     14          6           0      -11.657634    1.977897    0.520851
     15          6           0       -8.626817   -0.760535   -0.047693
     16          6           0       -7.178872   -0.581013   -0.096040
     17          6           0       -6.250294   -1.694247    0.522751
     18          6           0       -6.630155    0.802077   -0.269000
     19          6           0       -5.185953    1.010389   -0.241694
     20          6           0       11.901311    0.072090    1.374164
     21          6           0       11.662233   -0.652150   -1.223705
     22          6           0       12.677048   -1.269041    1.510547
     23          6           0       13.467536   -1.627798    0.229926
     24          6           0       12.481644   -1.850065   -0.941934
     25          6           0       11.055966   -0.037774    0.002256
     26          6           0       10.887772    0.250321    2.516506
     27          6           0       12.810934    1.196766    1.317638
     28          6           0       12.485050    0.365155   -1.930783
     29          6           0       -4.754874    2.188258   -0.566280
     30          6           0        9.831936    0.389419   -0.073475
     31          6           0       -3.324480    2.500172   -0.570192
     32          6           0        8.554262    0.786144   -0.277705
     33          6           0       -3.070676    3.937742   -0.750617
     34          6           0       -2.255604    1.573922   -0.310758
     35          6           0        7.345037    0.074238   -0.011894
     36          6           0        7.541823   -1.406398    0.179236
     37          6           0        6.118010    0.680487   -0.211197
     38          6           0       -0.964073    1.954125   -0.218263
     39          6           0        4.869713    0.125528    0.066726
     40          6           0        0.021248    1.015761    0.103743
     41          6           0        3.717052    0.828413    0.011811
     42          6           0        1.394053    1.288635   -0.031125
     43          6           0        2.342685    0.307963    0.013269
     44          6           0        2.204703   -1.168509    0.266041
     45          1           0      -12.710907   -3.015694   -0.584127
     46          1           0      -13.561525   -1.815372   -1.509061
     47          1           0      -13.602119    0.209261    1.959459
     48          1           0      -13.942109    0.645521    0.319627
     49          1           0      -14.536656   -1.689642    0.753309
     50          1           0      -10.670594   -3.337309   -1.292957
     51          1           0      -11.232205   -2.444745   -2.981098
     52          1           0       -9.735840   -2.014480   -2.034414
     53          1           0       -9.347060    1.073585   -0.721481
     54          1           0       -9.751458    0.520737    2.107862
     55          1           0      -11.497284    0.687970    2.924859
     56          1           0      -11.015208   -0.949840    2.245379
     57          1           0      -12.147018    2.219023   -0.395233
     58          1           0      -12.171967    2.473670    1.320546
     59          1           0      -10.774242    2.554282    0.413355
     60          1           0      -12.066566   -2.443064    1.295170
     61          1           0       -8.933382   -1.823693    0.157162
     62          1           0       -5.430812   -1.928716   -0.136729
     63          1           0       -5.925778   -1.314081    1.662695
     64          1           0       -6.839546   -2.761334    0.546019
     65          1           0       -7.132475    1.656260   -0.775925
     66          1           0       -4.460417    0.152643    0.233533
     67          1           0       13.369102   -1.036073    2.327327
     68          1           0       12.036751   -2.033278    1.686295
     69          1           0       13.806189   -2.629851    0.440865
     70          1           0       12.984045   -2.131688   -1.801481
     71          1           0       11.911726   -2.714815   -0.565888
     72          1           0       11.565086    0.782260    3.236405
     73          1           0       10.277386    0.852225    2.222269
     74          1           0       10.482063   -0.624508    2.918357
     75          1           0       13.520657    1.234274    0.522557
     76          1           0       12.226787    2.186787    1.135399
     77          1           0       13.280280    1.543332    2.377958
     78          1           0       12.583055   -0.145958   -2.920294
     79          1           0       11.797715    1.138545   -1.970107
     80          1           0       13.625509    0.447275   -1.399835
     81          1           0       -5.519874    3.076937   -0.833137
     82          1           0        9.883831   -0.338532   -2.044566
     83          1           0       15.055340   -0.682997    0.796240
     84          1           0        8.386491    1.815675   -0.812630
     85          1           0       -2.500120    4.268695    0.317975
     86          1           0       -2.406684    4.112375   -1.693746
     87          1           0       -3.932898    4.545090   -0.921130
     88          1           0       -2.551354    0.684067   -0.171609
     89          1           0        6.541680   -2.156723    0.040031
     90          1           0        8.233296   -1.772700   -0.539141
     91          1           0        8.036469   -1.811665    1.051893
     92          1           0        6.217463    1.741880   -0.472598
     93          1           0       -0.424830    2.925683   -0.144121
     94          1           0        4.869268   -0.814494    0.483216
     95          1           0       -0.458320    0.160108    0.474473
     96          1           0        3.777757    1.986898   -0.092376
     97          1           0        1.744184    2.365452    0.087145
     98          1           0        1.192766   -1.466482    0.635411
     99          1           0        2.287713   -1.846660   -0.767494
    100          1           0        2.918022   -1.569419    1.126153
 ---------------------------------------------------------------------

 SCF Done:  E(RCAM-B3LYP) =  -1857.27805906     A.U. after   15 cycles

 Excitation energies and oscillator strengths:

 Excited State   1:      Singlet-A      2.1767 eV  569.59 nm  f=2.8627  <S**2>=0.000
     163 ->166        -0.13648
     164 ->165         0.69168
 This state for optimization and/or second-order correction.
 Total Energy, E(TD-HF/TD-DFT) =  -1857.19806519
 Copying the excited state density for this state as the 1-particle RhoCI density.

 The electronic state is 1-A.
 Alpha  occ. eigenvalues --  -19.23711 -19.21756 -19.20356 -19.20149 -10.32251
 Alpha  occ. eigenvalues --  -10.31133 -10.30722 -10.30277 -10.29760 -10.29727
 Alpha  occ. eigenvalues --  -10.29359 -10.28355 -10.28325 -10.28141 -10.28127
 Alpha  occ. eigenvalues --  -10.27857 -10.27703 -10.27609 -10.27478 -10.27417
 Alpha  occ. eigenvalues --  -10.27301 -10.27195 -10.27004 -10.26849 -10.26848
 Alpha  occ. eigenvalues --  -10.26764 -10.26582 -10.26561 -10.26125 -10.25993
 Alpha  occ. eigenvalues --  -10.25911 -10.25878 -10.25639 -10.25635 -10.25579
 Alpha  occ. eigenvalues --  -10.25370 -10.25321 -10.24943 -10.24756 -10.24630
 Alpha  occ. eigenvalues --  -10.23863 -10.23551 -10.23343 -10.22211  -1.13690
 Alpha  occ. eigenvalues --   -1.13190  -1.11652  -1.07751  -0.93056  -0.92746
 Alpha  occ. eigenvalues --   -0.91823  -0.91201  -0.90585  -0.89519  -0.88180
 Alpha  occ. eigenvalues --   -0.86994  -0.86417  -0.85969  -0.84727  -0.83373
 Alpha  occ. eigenvalues --   -0.82250  -0.80660  -0.80236  -0.78655  -0.77788
 Alpha  occ. eigenvalues --   -0.76462  -0.76386  -0.75875  -0.75693  -0.75538
 Alpha  occ. eigenvalues --   -0.75147  -0.74535  -0.73340  -0.70653  -0.69580
 Alpha  occ. eigenvalues --   -0.68141  -0.66781  -0.65822  -0.64433  -0.63740
 Alpha  occ. eigenvalues --   -0.63383  -0.62686  -0.61242  -0.60756  -0.59904
 Alpha  occ. eigenvalues --   -0.59035  -0.58619  -0.58200  -0.58001  -0.57146
 Alpha  occ. eigenvalues --   -0.56068  -0.55841  -0.55209  -0.55074  -0.54323
 Alpha  occ. eigenvalues --   -0.53826  -0.53478  -0.53241  -0.52046  -0.51296
 Alpha  occ. eigenvalues --   -0.50786  -0.50651  -0.50540  -0.50249  -0.49831
 Alpha  occ. eigenvalues --   -0.49215  -0.48870  -0.48643  -0.48258  -0.47984
 Alpha  occ. eigenvalues --   -0.47849  -0.47832  -0.47577  -0.47324  -0.47145
 Alpha  occ. eigenvalues --   -0.46851  -0.45996  -0.45849  -0.45522  -0.45084
 Alpha  occ. eigenvalues --   -0.44912  -0.44630  -0.44175  -0.43932  -0.43867
 Alpha  occ. eigenvalues --   -0.43517  -0.43040  -0.43008  -0.42790  -0.42489
 Alpha  occ. eigenvalues --   -0.42314  -0.42093  -0.41843  -0.41623  -0.41548
 Alpha  occ. eigenvalues --   -0.41029  -0.40656  -0.40434  -0.40301  -0.40282
 Alpha  occ. eigenvalues --   -0.39888  -0.39791  -0.39565  -0.39013  -0.38745
 Alpha  occ. eigenvalues --   -0.38082  -0.37619  -0.37425  -0.37115  -0.37074
 Alpha  occ. eigenvalues --   -0.36420  -0.36029  -0.35708  -0.34682  -0.34132
 Alpha  occ. eigenvalues --   -0.32394  -0.31947  -0.31746  -0.31687  -0.31077
 Alpha  occ. eigenvalues --   -0.30099  -0.27216  -0.24217  -0.19717
 Alpha virt. eigenvalues --   -0.05907  -0.01231   0.02258   0.06476   0.07302
 Alpha virt. eigenvalues --    0.09239   0.09726   0.10104   0.11102   0.11443
 Alpha virt. eigenvalues --    0.11703   0.12715   0.13006   0.13536   0.13560

 Mulliken charges:
               1
     1  O   -0.514491
     2  O   -0.528034
     3  O   -0.585599
     4  O   -0.523832
     5  C    0.180729
     6  C    0.224827
     7  C    0.014142
     8  C   -0.236200
     9  C   -0.167059
    10  C    0.138402
    11  C   -0.341913
    12  C   -0.076900
    13  C   -0.269151
    14  C   -0.324434
    15  C   -0.062604
    16  C    0.031791
    17  C   -0.350788
    18  C   -0.129654
    19  C   -0.041274
    20  C    0.023320
    21  C    0.241968
    22  C   -0.189254
    23  C    0.152316
    24  C   -0.175589
    25  C   -0.082748
    26  C   -0.271560
    27  C   -0.320276
    28  C   -0.289886
    29  C   -0.123572
    30  C    0.122552
    31  C    0.068014
    32  C   -0.314445
    33  C   -0.358953
    34  C   -0.074970
    35  C    0.157872
    36  C   -0.386439
    37  C   -0.109952
    38  C   -0.060879
    39  C   -0.077437
    40  C   -0.104227
    41  C   -0.126059
    42  C   -0.142589
    43  C    0.145067
    44  C   -0.368990
    45  H    0.099872
    46  H    0.118180
    47  H    0.090060
    48  H    0.106420
    49  H    0.103640
    50  H    0.095571
    51  H    0.131780
    52  H    0.121625
    53  H    0.095599
    54  H    0.071252
    55  H    0.115010
    56  H    0.101930
    57  H    0.130450
    58  H    0.098236
    59  H    0.100411
    60  H    0.294540
    61  H    0.061348
    62  H    0.135338
    63  H    0.119326
    64  H    0.091224
    65  H    0.098604
    66  H    0.095797
    67  H    0.075492
    68  H    0.100836
    69  H    0.069904
    70  H    0.111271
    71  H    0.101588
    72  H    0.079040
    73  H    0.118743
    74  H    0.104995
    75  H    0.130836
    76  H    0.091265
    77  H    0.074388
    78  H    0.109164
    79  H    0.088862
    80  H    0.131928
    81  H    0.090665
    82  H    0.300927
    83  H    0.319738
    84  H    0.103405
    85  H    0.099407
    86  H    0.115553
    87  H    0.112239
    88  H    0.049741
    89  H    0.078082
    90  H    0.142668
    91  H    0.118375
    92  H    0.075037
    93  H    0.089018
    94  H    0.082946
    95  H    0.082004
    96  H    0.071321
    97  H    0.096668
    98  H    0.112582
    99  H    0.107092
   100  H    0.116766
 Sum of Mulliken charges =  -0.00000

 Dipole moment (field-independent basis, Debye):
    X=              1.4566    Y=             -0.1856    Z=              2.5323  Tot=              2.9272
 Quadrupole moment (field-independent basis, Debye-Ang):
   XX=           -264.5542   YY=           -257.5405   ZZ=           -283.8174
   XY=              0.9088   XZ=             38.4472   YZ=             -2.0395

 Normal termination of Gaussian 16 at Tue Jul 30 03:14:43 2019.
