 Gaussian 16, Revision A.03,
 Gaussian 16:  ES64L-G16RevA.03 25-Dec-2016

 -------------------------------------
 # td=(NStates=1) CAM-B3LYP/6-31G(d,p)
 -------------------------------------

 --
 TD
 --
 Symbolic Z-matrix:
 Charge =  0 Multiplicity = 1

                         Standard orientation:
 ---------------------------------------------------------------------
 Center     Atomic      Atomic             Coordinates (Angstroms)
 Number     Number       Type             X           Y           Z
 ---------------------------------------------------------------------
      1          8           0      -11.563067   -0.022728   -1.684201
      2          8           0      -13.202225   -2.284248    1.594200
      3          8           0       10.653562   -1.139260   -2.209621
      4          8           0       14.544592   -1.066565    0.008179
      5          6           0      -11.007320   -0.202652   -0.331410
      6          6           0      -11.614030   -1.353264   -1.225077
      7          6           0      -11.819113    0.456879    0.775173
      8          6           0      -12.976674   -2.009115   -0.885900
      9          6           0      -13.296743    0.116784    0.691642
     10          6           0      -13.596503   -1.482380    0.457065
     11          6           0      -10.737129   -2.233963   -2.030384
     12          6           0       -9.566540   -0.007859   -0.466218
     13          6           0      -11.295176    0.129438    2.111810
     14          6           0      -11.749261    1.994028    0.588955
     15          6           0       -8.645209   -0.732400    0.367173
     16          6           0       -7.169510   -0.493293    0.261416
     17          6           0       -6.224371   -1.698169    0.478825
     18          6           0       -6.566239    0.699075   -0.061454
     19          6           0       -5.237705    1.019211   -0.103775
     20          6           0       11.904540    0.100308    1.241054
     21          6           0       11.624929   -0.704640   -1.228871
     22          6           0       12.568803   -1.242193    1.500229
     23          6           0       13.415395   -1.804554    0.316343
     24          6           0       12.551284   -1.894956   -0.893879
     25          6           0       11.032890   -0.078460   -0.013867
     26          6           0       10.899083    0.384850    2.430146
     27          6           0       12.924732    1.296333    1.164278
     28          6           0       12.550575    0.241347   -2.091381
     29          6           0       -4.643020    2.270430   -0.356443
     30          6           0        9.826807    0.427926   -0.023225
     31          6           0       -3.328133    2.555624   -0.549789
     32          6           0        8.662440    0.954704   -0.223872
     33          6           0       -2.997267    4.016193   -0.810212
     34          6           0       -2.295593    1.608650   -0.157134
     35          6           0        7.411757    0.225605    0.029941
     36          6           0        7.600291   -1.149077    0.456008
     37          6           0        6.201513    0.777983   -0.177643
     38          6           0       -1.022556    1.870419   -0.376692
     39          6           0        4.970655    0.172214   -0.038850
     40          6           0        0.032119    0.910648    0.058338
     41          6           0        3.743061    0.769583   -0.080414
     42          6           0        1.371878    1.165202   -0.086564
     43          6           0        2.443845    0.343064    0.147410
     44          6           0        2.262253   -1.114534    0.589404
     45          1           0      -12.696686   -3.121608   -0.938208
     46          1           0      -13.691858   -1.750642   -1.569398
     47          1           0      -13.709692    0.605175    1.742825
     48          1           0      -13.771069    0.631332   -0.148233
     49          1           0      -14.600096   -1.671428    0.165029
     50          1           0      -10.681930   -3.260893   -1.360131
     51          1           0      -11.071205   -2.564483   -2.977866
     52          1           0       -9.646545   -1.835750   -1.939137
     53          1           0       -9.341013    0.669484   -1.030404
     54          1           0      -10.274649    0.356156    2.338349
     55          1           0      -11.875549    0.681440    2.899342
     56          1           0      -11.325625   -0.944412    2.440006
     57          1           0      -12.056320    2.473177   -0.315032
     58          1           0      -12.268858    2.363279    1.358013
     59          1           0      -10.849636    2.311035    0.832604
     60          1           0      -12.306395   -2.685419    1.392916
     61          1           0       -8.983903   -1.592717    0.910719
     62          1           0       -5.489741   -1.882805   -0.414032
     63          1           0       -5.473759   -1.623877    1.159790
     64          1           0       -6.825105   -2.573841    0.591209
     65          1           0       -7.111391    1.401525   -0.347417
     66          1           0       -4.564976    0.275606    0.285554
     67          1           0       13.168349   -1.273590    2.358258
     68          1           0       11.744985   -1.941226    1.590277
     69          1           0       13.706052   -2.880472    0.759926
     70          1           0       13.191560   -2.107580   -1.869726
     71          1           0       11.741471   -2.638579   -0.664802
     72          1           0       11.532104    0.350106    3.383090
     73          1           0       10.447513    1.298327    2.085007
     74          1           0       10.101446   -0.331287    2.502834
     75          1           0       13.464305    1.125958    0.137377
     76          1           0       12.346981    2.261198    1.255974
     77          1           0       13.664341    1.111602    2.021264
     78          1           0       12.914522   -0.375301   -2.849408
     79          1           0       12.084540    1.258279   -2.411676
     80          1           0       13.540681    0.292029   -1.425925
     81          1           0       -5.423035    3.019751   -0.527278
     82          1           0       10.179499   -0.374782   -2.402402
     83          1           0       15.185269   -0.893878    0.689393
     84          1           0        8.537206    1.947567   -0.428261
     85          1           0       -2.665991    4.398277    0.178425
     86          1           0       -2.147702    3.949157   -1.581318
     87          1           0       -3.871096    4.481202   -1.344486
     88          1           0       -2.661325    0.699188    0.297749
     89          1           0        6.632444   -1.763489    0.564471
     90          1           0        8.434200   -1.598717   -0.053206
     91          1           0        7.964457   -1.115290    1.462866
     92          1           0        6.204640    1.959935   -0.707299
     93          1           0       -0.748467    2.877783   -0.734051
     94          1           0        4.802398   -0.786933    0.574470
     95          1           0       -0.361629   -0.167731    0.449312
     96          1           0        3.753976    1.793525   -0.654975
     97          1           0        1.635915    2.037154   -0.415444
     98          1           0        1.306886   -1.469194    0.709414
     99          1           0        2.655422   -1.982595   -0.051545
    100          1           0        2.826636   -1.148248    1.643787
 ---------------------------------------------------------------------

 SCF Done:  E(RCAM-B3LYP) =  -1857.31158639     A.U. after   16 cycles

 Excitation energies and oscillator strengths:

 Excited State   1:      Singlet-A      1.6884 eV  734.32 nm  f=2.7847  <S**2>=0.000
     163 ->166         0.10018
     164 ->165         0.71759
     164 <-165        -0.17054
 This state for optimization and/or second-order correction.
 Total Energy, E(TD-HF/TD-DFT) =  -1857.24953784
 Copying the excited state density for this state as the 1-particle RhoCI density.

 The electronic state is 1-A.
 Alpha  occ. eigenvalues --  -19.22578 -19.21588 -19.21569 -19.20365 -10.32305
 Alpha  occ. eigenvalues --  -10.31983 -10.31921 -10.31608 -10.31407 -10.28550
 Alpha  occ. eigenvalues --  -10.28336 -10.28175 -10.27831 -10.27402 -10.27388
 Alpha  occ. eigenvalues --  -10.27232 -10.27169 -10.27067 -10.26999 -10.26967
 Alpha  occ. eigenvalues --  -10.26964 -10.26856 -10.26726 -10.26340 -10.26291
 Alpha  occ. eigenvalues --  -10.26259 -10.26249 -10.26244 -10.26217 -10.26165
 Alpha  occ. eigenvalues --  -10.26128 -10.26109 -10.25993 -10.25934 -10.25886
 Alpha  occ. eigenvalues --  -10.25394 -10.24912 -10.24822 -10.24740 -10.24672
 Alpha  occ. eigenvalues --  -10.24449 -10.24264 -10.24041 -10.22045  -1.14095
 Alpha  occ. eigenvalues --   -1.11945  -1.10009  -1.07981  -0.93782  -0.92794
 Alpha  occ. eigenvalues --   -0.92308  -0.91873  -0.91302  -0.90410  -0.87452
 Alpha  occ. eigenvalues --   -0.86722  -0.86364  -0.85889  -0.84906  -0.83523
 Alpha  occ. eigenvalues --   -0.81913  -0.80845  -0.80685  -0.79149  -0.77564
 Alpha  occ. eigenvalues --   -0.77373  -0.77074  -0.76379  -0.75638  -0.75503
 Alpha  occ. eigenvalues --   -0.74900  -0.74818  -0.73115  -0.70876  -0.70461
 Alpha  occ. eigenvalues --   -0.69097  -0.67076  -0.66530  -0.64662  -0.64117
 Alpha  occ. eigenvalues --   -0.64031  -0.62831  -0.61445  -0.60911  -0.59622
 Alpha  occ. eigenvalues --   -0.59144  -0.58871  -0.58333  -0.57531  -0.56602
 Alpha  occ. eigenvalues --   -0.56454  -0.56239  -0.55397  -0.55243  -0.53945
 Alpha  occ. eigenvalues --   -0.53871  -0.53268  -0.52674  -0.52321  -0.52100
 Alpha  occ. eigenvalues --   -0.51666  -0.51351  -0.51099  -0.50462  -0.49915
 Alpha  occ. eigenvalues --   -0.49328  -0.49262  -0.48913  -0.48793  -0.48461
 Alpha  occ. eigenvalues --   -0.48170  -0.48102  -0.47756  -0.47619  -0.47273
 Alpha  occ. eigenvalues --   -0.46965  -0.46748  -0.46349  -0.45643  -0.45392
 Alpha  occ. eigenvalues --   -0.45245  -0.45081  -0.44476  -0.44232  -0.44222
 Alpha  occ. eigenvalues --   -0.43470  -0.43288  -0.43194  -0.42768  -0.42411
 Alpha  occ. eigenvalues --   -0.42298  -0.42045  -0.41940  -0.41800  -0.41453
 Alpha  occ. eigenvalues --   -0.41239  -0.40798  -0.40696  -0.40329  -0.40118
 Alpha  occ. eigenvalues --   -0.40045  -0.39913  -0.39328  -0.39249  -0.38738
 Alpha  occ. eigenvalues --   -0.38521  -0.38423  -0.38079  -0.37775  -0.37149
 Alpha  occ. eigenvalues --   -0.36688  -0.36050  -0.35311  -0.34504  -0.33512
 Alpha  occ. eigenvalues --   -0.32515  -0.32373  -0.31606  -0.31322  -0.30377
 Alpha  occ. eigenvalues --   -0.29618  -0.28027  -0.24829  -0.17942
 Alpha virt. eigenvalues --   -0.07800  -0.00434   0.02820   0.06020   0.06592
 Alpha virt. eigenvalues --    0.09619   0.09822   0.09923   0.11903   0.12182
 Alpha virt. eigenvalues --    0.12587   0.13059   0.13137   0.13742   0.14069

 Mulliken charges:
               1
     1  O   -0.515652
     2  O   -0.550925
     3  O   -0.551431
     4  O   -0.536522
     5  C    0.165656
     6  C    0.270414
     7  C    0.019360
     8  C   -0.238956
     9  C   -0.174263
    10  C    0.162238
    11  C   -0.323917
    12  C   -0.042669
    13  C   -0.314294
    14  C   -0.305137
    15  C   -0.113016
    16  C    0.064870
    17  C   -0.376598
    18  C   -0.058634
    19  C   -0.058335
    20  C   -0.012328
    21  C    0.222707
    22  C   -0.189158
    23  C    0.178396
    24  C   -0.192970
    25  C   -0.012323
    26  C   -0.297706
    27  C   -0.283743
    28  C   -0.313091
    29  C   -0.124947
    30  C    0.120044
    31  C    0.052490
    32  C   -0.274871
    33  C   -0.362190
    34  C   -0.065151
    35  C    0.137048
    36  C   -0.390524
    37  C   -0.105595
    38  C   -0.092579
    39  C   -0.096653
    40  C   -0.114534
    41  C   -0.131586
    42  C   -0.080344
    43  C    0.132951
    44  C   -0.371361
    45  H    0.100215
    46  H    0.124154
    47  H    0.083053
    48  H    0.107387
    49  H    0.100174
    50  H    0.052612
    51  H    0.132059
    52  H    0.117267
    53  H    0.085729
    54  H    0.112413
    55  H    0.095637
    56  H    0.097541
    57  H    0.120546
    58  H    0.103347
    59  H    0.106451
    60  H    0.308009
    61  H    0.092817
    62  H    0.107784
    63  H    0.133476
    64  H    0.104836
    65  H    0.043947
    66  H    0.060933
    67  H    0.083524
    68  H    0.102617
    69  H    0.058691
    70  H    0.106025
    71  H    0.112888
    72  H    0.086124
    73  H    0.112883
    74  H    0.107539
    75  H    0.114082
    76  H    0.101695
    77  H    0.082207
    78  H    0.124137
    79  H    0.084630
    80  H    0.113468
    81  H    0.073777
    82  H    0.300762
    83  H    0.311461
    84  H    0.105544
    85  H    0.143500
    86  H    0.112112
    87  H    0.114824
    88  H    0.086215
    89  H    0.104285
    90  H    0.137567
    91  H    0.124836
    92  H    0.054252
    93  H    0.090627
    94  H    0.077855
    95  H    0.077950
    96  H    0.056622
    97  H    0.064462
    98  H    0.112201
    99  H    0.114976
   100  H    0.101101
 Sum of Mulliken charges =  -0.00000

 Dipole moment (field-independent basis, Debye):
    X=              2.2666    Y=              0.1370    Z=              2.0700  Tot=              3.0726
 Quadrupole moment (field-independent basis, Debye-Ang):
   XX=           -260.4719   YY=           -259.3195   ZZ=           -278.9450
   XY=              4.7813   XZ=             35.8456   YZ=             -5.6695

 Normal termination of Gaussian 16 at Wed Jul 31 20:36:08 2019.
