 Gaussian 16, Revision A.03,
 Gaussian 16:  ES64L-G16RevA.03 25-Dec-2016

 -------------------------------------
 # td=(NStates=1) CAM-B3LYP/6-31G(d,p)
 -------------------------------------

 --
 TD
 --
 Symbolic Z-matrix:
 Charge =  0 Multiplicity = 1

                         Standard orientation:
 ---------------------------------------------------------------------
 Center     Atomic      Atomic             Coordinates (Angstroms)
 Number     Number       Type             X           Y           Z
 ---------------------------------------------------------------------
      1          8           0      -11.774323   -0.013791   -1.737179
      2          8           0      -13.189981   -2.264672    1.646244
      3          8           0       10.612631   -1.151021   -2.107441
      4          8           0       14.476575   -0.978473   -0.190150
      5          6           0      -11.047152   -0.199860   -0.384613
      6          6           0      -11.644272   -1.305957   -1.134344
      7          6           0      -11.823467    0.411724    0.732133
      8          6           0      -12.951641   -1.874828   -0.747084
      9          6           0      -13.326639    0.010516    0.802533
     10          6           0      -13.672143   -1.384248    0.471241
     11          6           0      -10.840875   -2.225846   -2.010872
     12          6           0       -9.579489    0.027622   -0.472724
     13          6           0      -11.051245    0.191497    2.128689
     14          6           0      -11.830118    1.983078    0.473600
     15          6           0       -8.710968   -0.728469    0.205171
     16          6           0       -7.228891   -0.589495    0.238456
     17          6           0       -6.476532   -1.795615    0.650143
     18          6           0       -6.633807    0.583364   -0.081218
     19          6           0       -5.254796    0.758033   -0.128919
     20          6           0       11.948387    0.021780    1.319331
     21          6           0       11.662883   -0.725030   -1.323890
     22          6           0       12.763627   -1.231671    1.429047
     23          6           0       13.465480   -1.837914    0.211293
     24          6           0       12.423416   -1.977782   -1.001226
     25          6           0       11.086255   -0.036108    0.076201
     26          6           0       11.145731    0.343522    2.477150
     27          6           0       12.953709    1.202440    1.231378
     28          6           0       12.385153    0.400273   -2.105478
     29          6           0       -4.772113    2.100041   -0.343717
     30          6           0        9.996003    0.524381   -0.113766
     31          6           0       -3.336195    2.532226   -0.553029
     32          6           0        8.743410    0.991431   -0.111198
     33          6           0       -3.026995    3.942621   -0.919119
     34          6           0       -2.245969    1.638235   -0.181590
     35          6           0        7.456419    0.223787    0.086562
     36          6           0        7.660374   -1.307459    0.142743
     37          6           0        6.240290    0.805164    0.031320
     38          6           0       -0.912843    1.837995   -0.211840
     39          6           0        5.012259    0.149132    0.184564
     40          6           0        0.107515    0.949193   -0.017535
     41          6           0        3.811237    0.867815    0.174547
     42          6           0        1.378928    1.256513   -0.102367
     43          6           0        2.531655    0.382718    0.187090
     44          6           0        2.360696   -1.078534    0.466086
     45          1           0      -12.973592   -2.977069   -0.845257
     46          1           0      -13.442428   -1.589345   -1.699772
     47          1           0      -13.540786    0.298434    1.859580
     48          1           0      -13.914439    0.690232    0.211910
     49          1           0      -14.751111   -1.570571    0.358567
     50          1           0      -10.189016   -3.046451   -1.476923
     51          1           0      -11.282356   -2.547371   -2.907980
     52          1           0      -10.059772   -1.621620   -2.613055
     53          1           0       -9.274016    0.841852   -1.140991
     54          1           0      -10.149005    0.738955    2.088691
     55          1           0      -11.466375    0.587095    2.974988
     56          1           0      -10.908090   -0.853522    2.310490
     57          1           0      -12.289570    2.000267   -0.626335
     58          1           0      -12.379556    2.513393    1.368927
     59          1           0      -10.601348    2.549712    0.533022
     60          1           0      -12.195529   -2.262312    1.593598
     61          1           0       -9.075411   -1.426626    1.003787
     62          1           0       -5.876314   -2.367085   -0.358608
     63          1           0       -5.841651   -1.461513    1.518932
     64          1           0       -7.092672   -2.520178    1.062867
     65          1           0       -7.105768    1.667478   -0.334768
     66          1           0       -4.488581    0.001757    0.260957
     67          1           0       13.337232   -1.047296    2.274956
     68          1           0       12.106818   -2.013737    1.728344
     69          1           0       13.848095   -2.909617    0.560684
     70          1           0       13.022422   -2.610263   -1.738646
     71          1           0       11.557780   -2.822496   -0.718057
     72          1           0       11.778090    0.405583    3.364072
     73          1           0       10.590341    1.354999    2.418582
     74          1           0       10.524890   -0.431405    2.834062
     75          1           0       13.688969    1.034086    0.333630
     76          1           0       12.277565    2.082466    1.011393
     77          1           0       13.403228    1.407925    2.136345
     78          1           0       12.516190    0.152086   -3.201389
     79          1           0       11.605692    1.210552   -2.098031
     80          1           0       13.278857    0.717177   -1.752743
     81          1           0       -5.609320    2.782279   -0.580850
     82          1           0       10.049192   -0.386560   -2.198962
     83          1           0       15.108857   -1.074988    0.645234
     84          1           0        8.352791    1.961395   -0.517328
     85          1           0       -2.851936    4.631984   -0.004480
     86          1           0       -2.250466    4.211817   -1.694626
     87          1           0       -3.984099    4.374816   -1.380480
     88          1           0       -2.530944    0.631201   -0.259057
     89          1           0        6.839611   -1.837597    0.205086
     90          1           0        8.380695   -1.607307   -0.679149
     91          1           0        8.131064   -1.412625    1.141095
     92          1           0        6.207699    1.977011   -0.208006
     93          1           0       -0.708119    2.933028   -0.463236
     94          1           0        4.801385   -0.791272    0.887492
     95          1           0       -0.152626   -0.111121    0.102439
     96          1           0        3.846073    1.925707   -0.004502
     97          1           0        1.725065    2.248954   -0.562999
     98          1           0        1.191276   -1.113130    1.136332
     99          1           0        2.176343   -1.701977   -0.654504
    100          1           0        3.035819   -1.571241    1.254372
 ---------------------------------------------------------------------

 SCF Done:  E(RCAM-B3LYP) =  -1857.28318025     A.U. after   16 cycles

 Excitation energies and oscillator strengths:

 Excited State   1:      Singlet-A      1.8287 eV  678.00 nm  f=2.9308  <S**2>=0.000
     163 ->166        -0.11414
     164 ->165         0.70803
     164 <-165        -0.14174
 This state for optimization and/or second-order correction.
 Total Energy, E(TD-HF/TD-DFT) =  -1857.21597746
 Copying the excited state density for this state as the 1-particle RhoCI density.

 The electronic state is 1-A.
 Alpha  occ. eigenvalues --  -19.23521 -19.21603 -19.21360 -19.20443 -10.32817
 Alpha  occ. eigenvalues --  -10.32670 -10.31944 -10.31767 -10.31272 -10.29943
 Alpha  occ. eigenvalues --  -10.29333 -10.28710 -10.28627 -10.28266 -10.27911
 Alpha  occ. eigenvalues --  -10.27732 -10.27716 -10.27565 -10.27532 -10.27418
 Alpha  occ. eigenvalues --  -10.27282 -10.27203 -10.27196 -10.27138 -10.27104
 Alpha  occ. eigenvalues --  -10.27010 -10.26793 -10.26793 -10.26657 -10.26403
 Alpha  occ. eigenvalues --  -10.26228 -10.26136 -10.25824 -10.25734 -10.25610
 Alpha  occ. eigenvalues --  -10.25541 -10.25416 -10.25358 -10.24284 -10.24279
 Alpha  occ. eigenvalues --  -10.24223 -10.24201 -10.24008 -10.23898  -1.12821
 Alpha  occ. eigenvalues --   -1.12174  -1.11338  -1.05498  -0.94027  -0.92434
 Alpha  occ. eigenvalues --   -0.92113  -0.90964  -0.90658  -0.89509  -0.87815
 Alpha  occ. eigenvalues --   -0.87169  -0.86114  -0.85462  -0.85051  -0.83184
 Alpha  occ. eigenvalues --   -0.82010  -0.81011  -0.80407  -0.78930  -0.77208
 Alpha  occ. eigenvalues --   -0.76904  -0.76851  -0.76288  -0.75615  -0.75565
 Alpha  occ. eigenvalues --   -0.75078  -0.73904  -0.72266  -0.70537  -0.69946
 Alpha  occ. eigenvalues --   -0.68853  -0.66857  -0.65602  -0.64668  -0.64427
 Alpha  occ. eigenvalues --   -0.62975  -0.61684  -0.60493  -0.59599  -0.59066
 Alpha  occ. eigenvalues --   -0.58730  -0.58183  -0.57334  -0.57197  -0.56696
 Alpha  occ. eigenvalues --   -0.55616  -0.55376  -0.55173  -0.54848  -0.54616
 Alpha  occ. eigenvalues --   -0.53263  -0.52490  -0.52423  -0.52276  -0.51903
 Alpha  occ. eigenvalues --   -0.51355  -0.50974  -0.50580  -0.50325  -0.49715
 Alpha  occ. eigenvalues --   -0.49316  -0.49259  -0.48892  -0.48695  -0.48592
 Alpha  occ. eigenvalues --   -0.47918  -0.47587  -0.47519  -0.47401  -0.47056
 Alpha  occ. eigenvalues --   -0.46858  -0.46329  -0.45807  -0.45261  -0.45194
 Alpha  occ. eigenvalues --   -0.45122  -0.44560  -0.44287  -0.43911  -0.43786
 Alpha  occ. eigenvalues --   -0.43425  -0.43192  -0.43001  -0.42933  -0.42427
 Alpha  occ. eigenvalues --   -0.41623  -0.41123  -0.41029  -0.41001  -0.40920
 Alpha  occ. eigenvalues --   -0.40715  -0.40613  -0.40554  -0.40023  -0.39660
 Alpha  occ. eigenvalues --   -0.39587  -0.39339  -0.38909  -0.38891  -0.38862
 Alpha  occ. eigenvalues --   -0.38152  -0.37609  -0.37258  -0.37144  -0.36836
 Alpha  occ. eigenvalues --   -0.36539  -0.36446  -0.34731  -0.34381  -0.33861
 Alpha  occ. eigenvalues --   -0.32776  -0.32585  -0.32436  -0.31866  -0.31022
 Alpha  occ. eigenvalues --   -0.30883  -0.28111  -0.24820  -0.18557
 Alpha virt. eigenvalues --   -0.07481  -0.00750   0.03108   0.05959   0.06917
 Alpha virt. eigenvalues --    0.08884   0.08956   0.09916   0.10703   0.10997
 Alpha virt. eigenvalues --    0.11298   0.11547   0.12365   0.12760   0.12986

 Mulliken charges:
               1
     1  O   -0.531362
     2  O   -0.575688
     3  O   -0.534828
     4  O   -0.515406
     5  C    0.197535
     6  C    0.257168
     7  C   -0.017115
     8  C   -0.207783
     9  C   -0.158147
    10  C    0.120789
    11  C   -0.343481
    12  C   -0.096552
    13  C   -0.313116
    14  C   -0.287104
    15  C   -0.075871
    16  C    0.047475
    17  C   -0.351293
    18  C   -0.090983
    19  C   -0.062890
    20  C    0.012903
    21  C    0.250878
    22  C   -0.178248
    23  C    0.124164
    24  C   -0.189329
    25  C   -0.054223
    26  C   -0.308134
    27  C   -0.303171
    28  C   -0.296908
    29  C   -0.133080
    30  C    0.145974
    31  C    0.069749
    32  C   -0.289849
    33  C   -0.383144
    34  C   -0.112015
    35  C    0.104393
    36  C   -0.351900
    37  C   -0.122594
    38  C   -0.071657
    39  C   -0.094605
    40  C   -0.072622
    41  C   -0.119374
    42  C   -0.107750
    43  C    0.119024
    44  C   -0.351254
    45  H    0.117934
    46  H    0.122840
    47  H    0.114483
    48  H    0.108942
    49  H    0.113079
    50  H    0.098603
    51  H    0.122682
    52  H    0.111141
    53  H    0.115415
    54  H    0.121794
    55  H    0.113421
    56  H    0.082684
    57  H    0.132960
    58  H    0.098604
    59  H    0.047992
    60  H    0.301607
    61  H    0.076876
    62  H    0.094540
    63  H    0.123824
    64  H    0.117917
    65  H    0.084376
    66  H    0.099607
    67  H    0.079519
    68  H    0.093041
    69  H    0.066424
    70  H    0.114568
    71  H    0.090522
    72  H    0.089492
    73  H    0.112032
    74  H    0.104538
    75  H    0.120363
    76  H    0.089302
    77  H    0.102216
    78  H    0.105081
    79  H    0.084301
    80  H    0.131831
    81  H    0.080027
    82  H    0.300697
    83  H    0.315817
    84  H    0.096900
    85  H    0.123161
    86  H    0.125010
    87  H    0.103636
    88  H    0.075945
    89  H    0.112328
    90  H    0.130338
    91  H    0.113176
    92  H    0.075872
    93  H    0.072798
    94  H    0.085886
    95  H    0.091820
    96  H    0.069501
    97  H    0.084802
    98  H    0.058549
    99  H    0.108523
   100  H    0.122091
 Sum of Mulliken charges =  -0.00000

 Dipole moment (field-independent basis, Debye):
    X=              3.2929    Y=             -0.0685    Z=              2.1159  Tot=              3.9147
 Quadrupole moment (field-independent basis, Debye-Ang):
   XX=           -266.4062   YY=           -262.9409   ZZ=           -276.1124
   XY=            -10.4625   XZ=             32.3245   YZ=             -2.8310

 Normal termination of Gaussian 16 at Wed Jul 31 17:57:43 2019.
