 Gaussian 16, Revision A.03,
 Gaussian 16:  ES64L-G16RevA.03 25-Dec-2016

 -------------------------------------
 # td=(NStates=1) CAM-B3LYP/6-31G(d,p)
 -------------------------------------

 --
 TD
 --
 Symbolic Z-matrix:
 Charge =  0 Multiplicity = 1

                         Standard orientation:
 ---------------------------------------------------------------------
 Center     Atomic      Atomic             Coordinates (Angstroms)
 Number     Number       Type             X           Y           Z
 ---------------------------------------------------------------------
      1          8           0      -11.739927    0.253132   -1.453619
      2          8           0      -12.940914   -2.644553    1.240986
      3          8           0       10.647561   -1.188184   -2.078526
      4          8           0       14.498422   -1.003514    0.093682
      5          6           0      -11.157290   -0.156284   -0.328935
      6          6           0      -11.705539   -1.153927   -1.274953
      7          6           0      -11.855537    0.316329    1.024519
      8          6           0      -13.104466   -1.708665   -0.909088
      9          6           0      -13.265211   -0.169079    1.047630
     10          6           0      -13.451570   -1.570747    0.542933
     11          6           0      -10.918541   -1.820140   -2.279347
     12          6           0       -9.565868    0.200421   -0.304045
     13          6           0      -11.151559   -0.112888    2.251820
     14          6           0      -11.739276    1.898422    0.923448
     15          6           0       -8.625904   -0.735994    0.091993
     16          6           0       -7.231398   -0.512493    0.177404
     17          6           0       -6.352132   -1.768882    0.515439
     18          6           0       -6.533523    0.729057   -0.007180
     19          6           0       -5.183627    0.924510   -0.052039
     20          6           0       11.861452    0.095121    1.347198
     21          6           0       11.631257   -0.617620   -1.181497
     22          6           0       12.621968   -1.208523    1.570858
     23          6           0       13.404195   -1.787434    0.463942
     24          6           0       12.476683   -1.900155   -0.805183
     25          6           0       11.102524    0.074576    0.096864
     26          6           0       11.025010    0.381047    2.581827
     27          6           0       12.856439    1.310866    1.275651
     28          6           0       12.535542    0.305866   -2.062161
     29          6           0       -4.629693    2.136306   -0.279283
     30          6           0        9.818581    0.555227   -0.016174
     31          6           0       -3.349826    2.530017   -0.556096
     32          6           0        8.589544    0.917948   -0.324004
     33          6           0       -3.118358    4.039526   -0.757577
     34          6           0       -2.280418    1.674904   -0.358746
     35          6           0        7.381594    0.067049   -0.124689
     36          6           0        7.766937   -1.318987    0.191916
     37          6           0        6.143397    0.616338   -0.203213
     38          6           0       -0.867396    1.870197   -0.336888
     39          6           0        4.891060    0.056822   -0.005823
     40          6           0        0.032756    0.889183   -0.210687
     41          6           0        3.778821    0.745787   -0.175946
     42          6           0        1.414956    1.146459   -0.120364
     43          6           0        2.454189    0.294582   -0.119350
     44          6           0        2.308706   -1.208110    0.102063
     45          1           0      -13.238373   -2.729451   -1.272621
     46          1           0      -13.724242   -1.153097   -1.580117
     47          1           0      -13.830814   -0.243000    2.117721
     48          1           0      -13.881918    0.432099    0.348579
     49          1           0      -14.553753   -1.782209    0.716841
     50          1           0      -10.367423   -2.827138   -1.901169
     51          1           0      -11.533873   -2.116510   -3.048863
     52          1           0      -10.053026   -1.054282   -2.722051
     53          1           0       -9.378570    1.272524   -0.680426
     54          1           0      -10.152257    0.307229    2.208472
     55          1           0      -11.565295    0.185639    3.252897
     56          1           0      -11.108512   -1.097687    2.433664
     57          1           0      -12.293163    2.281008    0.106550
     58          1           0      -12.478834    2.446025    1.755404
     59          1           0      -10.771178    2.311211    0.837256
     60          1           0      -11.937712   -2.647806    1.079093
     61          1           0       -8.928147   -1.657982    0.578178
     62          1           0       -5.872275   -2.101857   -0.435712
     63          1           0       -5.558337   -1.466262    1.281057
     64          1           0       -7.317469   -2.504667    0.910583
     65          1           0       -7.202547    1.643855   -0.110164
     66          1           0       -4.564277    0.276191    0.214017
     67          1           0       13.391875   -1.015267    2.434388
     68          1           0       11.950632   -1.808212    1.922797
     69          1           0       13.795683   -2.802035    0.521867
     70          1           0       13.081213   -1.967505   -1.621071
     71          1           0       11.874283   -2.939309   -0.996312
     72          1           0       11.633410    0.390433    3.381767
     73          1           0       10.570459    1.324486    2.242144
     74          1           0        9.968409   -0.355593    2.581560
     75          1           0       13.717008    1.148005    0.398372
     76          1           0       12.469670    2.205220    1.080669
     77          1           0       13.429498    1.472757    2.351575
     78          1           0       12.706256   -0.016577   -3.093714
     79          1           0       12.253760    1.273918   -2.036382
     80          1           0       13.524971    0.310890   -1.660643
     81          1           0       -5.239747    2.929063   -0.289353
     82          1           0       10.310281   -0.416694   -2.348378
     83          1           0       15.276620   -0.999910    0.631091
     84          1           0        8.521080    1.770617   -0.571103
     85          1           0       -2.458917    4.473198    0.144174
     86          1           0       -2.382848    4.421680   -1.425853
     87          1           0       -4.013584    4.645522   -0.852623
     88          1           0       -2.510294    0.736904   -0.138091
     89          1           0        7.077631   -1.977203   -0.184710
     90          1           0        8.857097   -1.608665   -0.104122
     91          1           0        7.762836   -1.341780    1.375070
     92          1           0        6.159605    1.658240   -0.433728
     93          1           0       -0.707992    2.917034   -0.389108
     94          1           0        4.962541   -1.032662    0.251105
     95          1           0       -0.156042   -0.200808   -0.175312
     96          1           0        3.967507    1.867250   -0.235771
     97          1           0        1.795146    2.102956   -0.238388
     98          1           0        1.279372   -1.437583    0.102250
     99          1           0        3.058218   -1.644663   -0.654846
    100          1           0        2.614376   -1.352388    1.047873
 ---------------------------------------------------------------------

 SCF Done:  E(RCAM-B3LYP) =  -1857.25521069     A.U. after   15 cycles

 Excitation energies and oscillator strengths:

 Excited State   1:      Singlet-A      2.2272 eV  556.69 nm  f=2.9640  <S**2>=0.000
     163 ->166        -0.13749
     164 ->165         0.69512
 This state for optimization and/or second-order correction.
 Total Energy, E(TD-HF/TD-DFT) =  -1857.17336381
 Copying the excited state density for this state as the 1-particle RhoCI density.

 The electronic state is 1-A.
 Alpha  occ. eigenvalues --  -19.22676 -19.21889 -19.21315 -19.20526 -10.32452
 Alpha  occ. eigenvalues --  -10.32433 -10.31942 -10.31112 -10.30155 -10.28040
 Alpha  occ. eigenvalues --  -10.27828 -10.27795 -10.27737 -10.27469 -10.27418
 Alpha  occ. eigenvalues --  -10.27411 -10.27334 -10.27172 -10.26946 -10.26855
 Alpha  occ. eigenvalues --  -10.26749 -10.26376 -10.26354 -10.26331 -10.26066
 Alpha  occ. eigenvalues --  -10.25889 -10.25751 -10.25706 -10.25565 -10.25504
 Alpha  occ. eigenvalues --  -10.25257 -10.25066 -10.25004 -10.24941 -10.24939
 Alpha  occ. eigenvalues --  -10.24907 -10.24720 -10.24709 -10.24619 -10.24614
 Alpha  occ. eigenvalues --  -10.24438 -10.24086 -10.22968 -10.22901  -1.19598
 Alpha  occ. eigenvalues --   -1.11451  -1.10860  -1.10583  -0.93883  -0.93273
 Alpha  occ. eigenvalues --   -0.92740  -0.91284  -0.90950  -0.89938  -0.88362
 Alpha  occ. eigenvalues --   -0.86982  -0.86307  -0.85796  -0.84774  -0.83635
 Alpha  occ. eigenvalues --   -0.82399  -0.81152  -0.80020  -0.79148  -0.77534
 Alpha  occ. eigenvalues --   -0.76829  -0.76633  -0.76465  -0.76365  -0.76040
 Alpha  occ. eigenvalues --   -0.74979  -0.74100  -0.72807  -0.70813  -0.70427
 Alpha  occ. eigenvalues --   -0.69272  -0.67997  -0.65918  -0.65591  -0.64743
 Alpha  occ. eigenvalues --   -0.64696  -0.63102  -0.61532  -0.60569  -0.60085
 Alpha  occ. eigenvalues --   -0.59790  -0.59279  -0.58671  -0.57498  -0.57006
 Alpha  occ. eigenvalues --   -0.56758  -0.56241  -0.55201  -0.55046  -0.54877
 Alpha  occ. eigenvalues --   -0.54456  -0.53713  -0.53556  -0.53375  -0.52633
 Alpha  occ. eigenvalues --   -0.51660  -0.51345  -0.51139  -0.50348  -0.49881
 Alpha  occ. eigenvalues --   -0.49466  -0.49038  -0.48799  -0.48639  -0.48486
 Alpha  occ. eigenvalues --   -0.48057  -0.47693  -0.47287  -0.47172  -0.47119
 Alpha  occ. eigenvalues --   -0.46664  -0.46408  -0.46246  -0.46076  -0.45989
 Alpha  occ. eigenvalues --   -0.45814  -0.45524  -0.44721  -0.44564  -0.44465
 Alpha  occ. eigenvalues --   -0.43648  -0.43193  -0.42974  -0.42867  -0.42748
 Alpha  occ. eigenvalues --   -0.42572  -0.41943  -0.41644  -0.41477  -0.41021
 Alpha  occ. eigenvalues --   -0.40813  -0.40633  -0.40284  -0.40064  -0.39886
 Alpha  occ. eigenvalues --   -0.39761  -0.39307  -0.39179  -0.38905  -0.38659
 Alpha  occ. eigenvalues --   -0.38608  -0.38174  -0.37907  -0.37605  -0.37386
 Alpha  occ. eigenvalues --   -0.35914  -0.35442  -0.35099  -0.34437  -0.34372
 Alpha  occ. eigenvalues --   -0.33177  -0.32687  -0.32227  -0.31822  -0.30757
 Alpha  occ. eigenvalues --   -0.28794  -0.28342  -0.24036  -0.19753
 Alpha virt. eigenvalues --   -0.05767  -0.00774   0.03469   0.05598   0.07361
 Alpha virt. eigenvalues --    0.09389   0.10605   0.10876   0.11975   0.12403
 Alpha virt. eigenvalues --    0.12795   0.13236   0.13739   0.13950   0.14307

 Mulliken charges:
               1
     1  O   -0.468001
     2  O   -0.535810
     3  O   -0.524349
     4  O   -0.549679
     5  C    0.199079
     6  C    0.221399
     7  C    0.040943
     8  C   -0.213318
     9  C   -0.190130
    10  C    0.154839
    11  C   -0.330955
    12  C   -0.136492
    13  C   -0.301199
    14  C   -0.321487
    15  C   -0.072756
    16  C    0.048231
    17  C   -0.344675
    18  C   -0.103642
    19  C   -0.003925
    20  C   -0.016222
    21  C    0.224580
    22  C   -0.145308
    23  C    0.161007
    24  C   -0.208780
    25  C   -0.009770
    26  C   -0.273623
    27  C   -0.289915
    28  C   -0.353689
    29  C   -0.119530
    30  C    0.051833
    31  C    0.123664
    32  C   -0.193424
    33  C   -0.395443
    34  C   -0.129354
    35  C    0.115761
    36  C   -0.385598
    37  C   -0.118399
    38  C   -0.057262
    39  C   -0.067682
    40  C   -0.086610
    41  C   -0.121891
    42  C   -0.109567
    43  C    0.087858
    44  C   -0.353913
    45  H    0.104666
    46  H    0.122932
    47  H    0.087107
    48  H    0.104729
    49  H    0.088590
    50  H    0.088846
    51  H    0.122907
    52  H    0.114542
    53  H    0.109687
    54  H    0.108481
    55  H    0.099626
    56  H    0.092803
    57  H    0.123359
    58  H    0.072352
    59  H    0.110300
    60  H    0.300674
    61  H    0.078557
    62  H    0.133163
    63  H    0.121663
    64  H    0.070683
    65  H    0.070105
    66  H    0.055440
    67  H    0.062085
    68  H    0.109034
    69  H    0.083496
    70  H    0.123609
    71  H    0.098451
    72  H    0.109981
    73  H    0.114111
    74  H    0.068301
    75  H    0.105202
    76  H    0.114361
    77  H    0.058443
    78  H    0.113678
    79  H    0.104854
    80  H    0.143275
    81  H    0.061021
    82  H    0.289271
    83  H    0.308278
    84  H    0.068526
    85  H    0.099140
    86  H    0.129709
    87  H    0.117661
    88  H    0.060308
    89  H    0.116965
    90  H    0.140128
    91  H    0.104747
    92  H    0.068750
    93  H    0.075074
    94  H    0.085303
    95  H    0.088049
    96  H    0.078351
    97  H    0.067060
    98  H    0.098573
    99  H    0.114775
   100  H    0.141424
 Sum of Mulliken charges =  -0.00000

 Dipole moment (field-independent basis, Debye):
    X=              4.0694    Y=              0.4622    Z=              1.0816  Tot=              4.2360
 Quadrupole moment (field-independent basis, Debye-Ang):
   XX=           -244.1270   YY=           -261.6317   ZZ=           -276.2454
   XY=             -1.8989   XZ=             26.1453   YZ=             -2.4326

 Normal termination of Gaussian 16 at Fri Aug  2 12:59:54 2019.
