 Gaussian 16, Revision A.03,
 Gaussian 16:  ES64L-G16RevA.03 25-Dec-2016

 -------------------------------------
 # td=(NStates=1) CAM-B3LYP/6-31G(d,p)
 -------------------------------------

 --
 TD
 --
 Symbolic Z-matrix:
 Charge =  0 Multiplicity = 1

                         Standard orientation:
 ---------------------------------------------------------------------
 Center     Atomic      Atomic             Coordinates (Angstroms)
 Number     Number       Type             X           Y           Z
 ---------------------------------------------------------------------
      1          8           0      -11.763513    0.581479   -1.298785
      2          8           0      -12.990886   -2.843548    0.773137
      3          8           0       10.479729   -0.894000   -2.002051
      4          8           0       14.575904   -0.885113   -0.354228
      5          6           0      -11.037719   -0.095011   -0.229580
      6          6           0      -11.632982   -0.945159   -1.438353
      7          6           0      -11.848698    0.040833    1.161155
      8          6           0      -13.098674   -1.441271   -1.248042
      9          6           0      -13.305259   -0.389822    1.094151
     10          6           0      -13.544061   -1.709773    0.205335
     11          6           0      -10.837471   -1.580435   -2.416287
     12          6           0       -9.558987    0.143055   -0.226716
     13          6           0      -11.097260   -0.729484    2.336384
     14          6           0      -11.735993    1.542950    1.560061
     15          6           0       -8.577515   -0.597956    0.171331
     16          6           0       -7.207283   -0.357730    0.191041
     17          6           0       -6.358727   -1.536632    0.347263
     18          6           0       -6.574089    0.845399   -0.032141
     19          6           0       -5.141830    1.074979   -0.107927
     20          6           0       11.893770   -0.164696    1.469997
     21          6           0       11.605517   -0.483430   -1.246020
     22          6           0       12.806339   -1.412445    1.366237
     23          6           0       13.431709   -1.770598    0.000880
     24          6           0       12.485350   -1.755635   -1.205908
     25          6           0       11.025265   -0.098269    0.160142
     26          6           0       11.083611   -0.129742    2.697539
     27          6           0       12.918724    1.021228    1.498443
     28          6           0       12.298932    0.723853   -1.825512
     29          6           0       -4.688519    2.299139   -0.331139
     30          6           0        9.891602    0.406832    0.167921
     31          6           0       -3.344305    2.667337   -0.330585
     32          6           0        8.634806    0.957676    0.061451
     33          6           0       -2.893799    4.094131   -0.595864
     34          6           0       -2.247478    1.711146   -0.275639
     35          6           0        7.483734    0.059113    0.024583
     36          6           0        7.585621   -1.435448    0.088265
     37          6           0        6.275320    0.677953   -0.076263
     38          6           0       -0.936576    1.975414   -0.243274
     39          6           0        4.953416    0.136225   -0.082188
     40          6           0       -0.009421    1.001509   -0.171232
     41          6           0        3.772908    0.778959   -0.069255
     42          6           0        1.360134    1.261096   -0.118066
     43          6           0        2.451597    0.227215   -0.125124
     44          6           0        2.255778   -1.312831   -0.043962
     45          1           0      -13.338777   -2.302293   -1.710447
     46          1           0      -13.821413   -0.689724   -1.611092
     47          1           0      -13.671127   -0.676877    2.139474
     48          1           0      -13.895036    0.401258    0.666699
     49          1           0      -14.585153   -1.626801    0.371117
     50          1           0      -10.348905   -2.362617   -2.121441
     51          1           0      -11.503035   -1.852476   -3.293448
     52          1           0      -10.118827   -1.009026   -2.648108
     53          1           0       -9.418849    1.228009   -0.526701
     54          1           0      -10.076803   -0.174208    2.678183
     55          1           0      -11.869121   -0.706256    3.278509
     56          1           0      -10.961467   -1.842825    2.127783
     57          1           0      -12.254209    2.199526    0.818068
     58          1           0      -12.568593    1.600536    2.456749
     59          1           0      -10.547195    1.977923    1.727522
     60          1           0      -12.044529   -2.566199    0.784801
     61          1           0       -8.863234   -1.597810    0.456021
     62          1           0       -5.644051   -1.466927   -0.601618
     63          1           0       -5.800822   -1.529481    1.235368
     64          1           0       -7.146778   -2.399539    0.392704
     65          1           0       -7.222218    1.610368   -0.066398
     66          1           0       -4.532088    0.204947   -0.045703
     67          1           0       13.723542   -1.570616    1.998798
     68          1           0       12.038137   -2.320290    1.521758
     69          1           0       13.935846   -2.755015    0.036512
     70          1           0       12.889766   -2.028665   -2.128767
     71          1           0       11.707877   -2.509145   -0.965263
     72          1           0       11.743107   -0.181232    3.498063
     73          1           0       10.688521    0.809349    2.871816
     74          1           0       10.248890   -0.868043    2.810105
     75          1           0       13.813961    1.114349    0.759120
     76          1           0       12.415340    2.023649    1.609537
     77          1           0       13.387802    0.820054    2.558210
     78          1           0       12.526065    0.566151   -2.987674
     79          1           0       11.537766    1.328546   -1.867137
     80          1           0       13.059851    1.134655   -1.193044
     81          1           0       -5.364779    3.124129   -0.466718
     82          1           0        9.892794   -0.011734   -2.297760
     83          1           0       15.250601   -0.938409    0.478219
     84          1           0        8.684666    1.974600   -0.198345
     85          1           0       -2.287024    4.586732    0.259540
     86          1           0       -2.321112    4.325657   -1.588220
     87          1           0       -3.786490    4.682197   -0.684313
     88          1           0       -2.618000    0.650178   -0.332146
     89          1           0        6.553864   -1.861541   -0.339126
     90          1           0        8.524286   -1.924324   -0.395061
     91          1           0        7.506550   -2.069477    1.122125
     92          1           0        6.374375    1.933911   -0.042509
     93          1           0       -0.506114    3.132362   -0.202564
     94          1           0        4.842165   -0.888817    0.003220
     95          1           0       -0.308072   -0.043813   -0.177744
     96          1           0        3.880850    1.910459   -0.097910
     97          1           0        1.426771    2.323471   -0.019705
     98          1           0        1.323328   -1.538049   -0.229778
     99          1           0        3.128302   -1.571720   -0.760434
    100          1           0        2.684001   -1.647638    1.015958
 ---------------------------------------------------------------------

 SCF Done:  E(RCAM-B3LYP) =  -1857.27907272     A.U. after   15 cycles

 Excitation energies and oscillator strengths:

 Excited State   1:      Singlet-A      1.9833 eV  625.14 nm  f=3.0392  <S**2>=0.000
     163 ->166         0.12529
     164 ->165         0.70063
     164 <-165        -0.11187
 This state for optimization and/or second-order correction.
 Total Energy, E(TD-HF/TD-DFT) =  -1857.20618755
 Copying the excited state density for this state as the 1-particle RhoCI density.

 The electronic state is 1-A.
 Alpha  occ. eigenvalues --  -19.21968 -19.21913 -19.21898 -19.21760 -10.32691
 Alpha  occ. eigenvalues --  -10.32524 -10.31966 -10.31396 -10.30019 -10.29520
 Alpha  occ. eigenvalues --  -10.29131 -10.28461 -10.28185 -10.27884 -10.27739
 Alpha  occ. eigenvalues --  -10.27621 -10.27481 -10.27442 -10.27422 -10.27254
 Alpha  occ. eigenvalues --  -10.27243 -10.27020 -10.26998 -10.26512 -10.26413
 Alpha  occ. eigenvalues --  -10.26374 -10.26321 -10.26274 -10.26178 -10.26139
 Alpha  occ. eigenvalues --  -10.26102 -10.26035 -10.26023 -10.26004 -10.25820
 Alpha  occ. eigenvalues --  -10.25802 -10.25516 -10.25298 -10.24904 -10.24802
 Alpha  occ. eigenvalues --  -10.24636 -10.23857 -10.23667 -10.23339  -1.11315
 Alpha  occ. eigenvalues --   -1.10579  -1.08469  -1.06242  -0.93198  -0.93037
 Alpha  occ. eigenvalues --   -0.92113  -0.91316  -0.90100  -0.89190  -0.88457
 Alpha  occ. eigenvalues --   -0.87851  -0.86227  -0.85842  -0.85251  -0.83613
 Alpha  occ. eigenvalues --   -0.82648  -0.81963  -0.80845  -0.79114  -0.77687
 Alpha  occ. eigenvalues --   -0.77090  -0.76376  -0.76282  -0.75363  -0.75286
 Alpha  occ. eigenvalues --   -0.73985  -0.73710  -0.72368  -0.69803  -0.69337
 Alpha  occ. eigenvalues --   -0.68695  -0.67095  -0.65002  -0.64945  -0.64185
 Alpha  occ. eigenvalues --   -0.63041  -0.61946  -0.61100  -0.60084  -0.59826
 Alpha  occ. eigenvalues --   -0.59079  -0.58405  -0.56938  -0.56685  -0.56374
 Alpha  occ. eigenvalues --   -0.55811  -0.55286  -0.54964  -0.54738  -0.54045
 Alpha  occ. eigenvalues --   -0.53521  -0.53031  -0.52992  -0.52361  -0.52006
 Alpha  occ. eigenvalues --   -0.51693  -0.51415  -0.50572  -0.50108  -0.49853
 Alpha  occ. eigenvalues --   -0.49744  -0.49451  -0.49285  -0.48854  -0.48503
 Alpha  occ. eigenvalues --   -0.48319  -0.48070  -0.47437  -0.47205  -0.47139
 Alpha  occ. eigenvalues --   -0.46994  -0.46178  -0.45903  -0.45301  -0.44954
 Alpha  occ. eigenvalues --   -0.44869  -0.44594  -0.43990  -0.43829  -0.43553
 Alpha  occ. eigenvalues --   -0.43319  -0.43207  -0.42949  -0.42800  -0.42209
 Alpha  occ. eigenvalues --   -0.42052  -0.41993  -0.41772  -0.41586  -0.41302
 Alpha  occ. eigenvalues --   -0.40920  -0.40749  -0.40474  -0.40455  -0.40252
 Alpha  occ. eigenvalues --   -0.40197  -0.39816  -0.39447  -0.39004  -0.38950
 Alpha  occ. eigenvalues --   -0.38627  -0.38425  -0.37840  -0.37318  -0.37121
 Alpha  occ. eigenvalues --   -0.36680  -0.36534  -0.35311  -0.34623  -0.33463
 Alpha  occ. eigenvalues --   -0.32882  -0.32447  -0.31653  -0.31297  -0.30712
 Alpha  occ. eigenvalues --   -0.30260  -0.27484  -0.24354  -0.19046
 Alpha virt. eigenvalues --   -0.06680  -0.00550   0.02907   0.06537   0.08132
 Alpha virt. eigenvalues --    0.09214   0.09804   0.10087   0.10681   0.10888
 Alpha virt. eigenvalues --    0.11539   0.11896   0.12073   0.12891   0.13840

 Mulliken charges:
               1
     1  O   -0.524840
     2  O   -0.525946
     3  O   -0.571929
     4  O   -0.564963
     5  C    0.191470
     6  C    0.205799
     7  C    0.037858
     8  C   -0.187352
     9  C   -0.217613
    10  C    0.125454
    11  C   -0.328504
    12  C   -0.127662
    13  C   -0.295571
    14  C   -0.295222
    15  C   -0.059383
    16  C    0.085246
    17  C   -0.369224
    18  C   -0.094330
    19  C   -0.064693
    20  C    0.028477
    21  C    0.239903
    22  C   -0.173597
    23  C    0.136357
    24  C   -0.173437
    25  C   -0.139758
    26  C   -0.307788
    27  C   -0.312797
    28  C   -0.273702
    29  C   -0.096552
    30  C    0.183614
    31  C    0.067334
    32  C   -0.256500
    33  C   -0.376216
    34  C   -0.111820
    35  C    0.144675
    36  C   -0.378107
    37  C   -0.105231
    38  C   -0.071090
    39  C   -0.097776
    40  C   -0.062566
    41  C   -0.076326
    42  C   -0.116835
    43  C    0.035201
    44  C   -0.336196
    45  H    0.105842
    46  H    0.118238
    47  H    0.098301
    48  H    0.107991
    49  H    0.104578
    50  H    0.129182
    51  H    0.110123
    52  H    0.133719
    53  H    0.101466
    54  H    0.103389
    55  H    0.089377
    56  H    0.081178
    57  H    0.120996
    58  H    0.080735
    59  H    0.084475
    60  H    0.308508
    61  H    0.068993
    62  H    0.111891
    63  H    0.135984
    64  H    0.085397
    65  H    0.060568
    66  H    0.087198
    67  H    0.081349
    68  H    0.082180
    69  H    0.089658
    70  H    0.118644
    71  H    0.109982
    72  H    0.104121
    73  H    0.119235
    74  H    0.111370
    75  H    0.129155
    76  H    0.096282
    77  H    0.074311
    78  H    0.089871
    79  H    0.089975
    80  H    0.130506
    81  H    0.087636
    82  H    0.309157
    83  H    0.296275
    84  H    0.115145
    85  H    0.112093
    86  H    0.115726
    87  H    0.103878
    88  H    0.075496
    89  H    0.098119
    90  H    0.140020
    91  H    0.097745
    92  H    0.058426
    93  H    0.081567
    94  H    0.066318
    95  H    0.074726
    96  H    0.076158
    97  H    0.080582
    98  H    0.120722
    99  H    0.124007
   100  H    0.123571
 Sum of Mulliken charges =  -0.00000

 Dipole moment (field-independent basis, Debye):
    X=              3.6176    Y=             -0.0955    Z=              1.5375  Tot=              3.9319
 Quadrupole moment (field-independent basis, Debye-Ang):
   XX=           -275.1326   YY=           -265.1066   ZZ=           -275.2209
   XY=             -3.9393   XZ=             27.1708   YZ=             -0.9188

 Normal termination of Gaussian 16 at Thu Aug  1 05:43:11 2019.
