 Gaussian 16, Revision A.03,
 Gaussian 16:  ES64L-G16RevA.03 25-Dec-2016

 -------------------------------------
 # td=(NStates=1) CAM-B3LYP/6-31G(d,p)
 -------------------------------------

 --
 TD
 --
 Symbolic Z-matrix:
 Charge =  0 Multiplicity = 1

                         Standard orientation:
 ---------------------------------------------------------------------
 Center     Atomic      Atomic             Coordinates (Angstroms)
 Number     Number       Type             X           Y           Z
 ---------------------------------------------------------------------
      1          8           0      -11.720062    0.511430   -1.359519
      2          8           0      -12.903063   -2.653921    1.117489
      3          8           0       10.604346   -1.148720   -2.036279
      4          8           0       14.578696   -0.969822   -0.127967
      5          6           0      -11.043163   -0.055732   -0.282298
      6          6           0      -11.614457   -1.039432   -1.300519
      7          6           0      -11.768800    0.202417    1.099212
      8          6           0      -13.057747   -1.646020   -1.085307
      9          6           0      -13.320859   -0.190449    1.031021
     10          6           0      -13.503508   -1.515126    0.417299
     11          6           0      -10.922981   -1.582534   -2.376647
     12          6           0       -9.568408    0.290358   -0.139879
     13          6           0      -11.089411   -0.453045    2.272655
     14          6           0      -11.794374    1.695734    1.232205
     15          6           0       -8.659432   -0.614135    0.099412
     16          6           0       -7.236634   -0.472957    0.107692
     17          6           0       -6.368072   -1.695765    0.374916
     18          6           0       -6.591060    0.734706   -0.121197
     19          6           0       -5.296224    0.930769   -0.201777
     20          6           0       12.003534    0.203552    1.320075
     21          6           0       11.661818   -0.620324   -1.222559
     22          6           0       12.790719   -1.162291    1.534691
     23          6           0       13.482990   -1.793115    0.319214
     24          6           0       12.489349   -1.812672   -0.789955
     25          6           0       11.110141    0.103769    0.097176
     26          6           0       11.081970    0.323048    2.565134
     27          6           0       12.856879    1.353691    1.134977
     28          6           0       12.534872    0.376856   -2.031297
     29          6           0       -4.777927    2.255883   -0.470241
     30          6           0        9.880368    0.509157   -0.003075
     31          6           0       -3.347906    2.552721   -0.389112
     32          6           0        8.581545    0.885045   -0.172402
     33          6           0       -2.846976    4.027790   -0.572651
     34          6           0       -2.366191    1.621627   -0.322284
     35          6           0        7.438726    0.017554    0.026028
     36          6           0        7.700946   -1.473780    0.110780
     37          6           0        6.248627    0.616734   -0.083011
     38          6           0       -1.006431    1.895437   -0.267152
     39          6           0        4.900479    0.045979   -0.030543
     40          6           0       -0.029709    0.753141   -0.196699
     41          6           0        3.784013    0.777376   -0.095058
     42          6           0        1.311206    1.012649   -0.218584
     43          6           0        2.453694    0.201367   -0.048841
     44          6           0        2.089339   -1.183947    0.378697
     45          1           0      -12.933280   -2.702105   -1.488364
     46          1           0      -13.845745   -0.973472   -1.744293
     47          1           0      -13.648444   -0.285687    2.186491
     48          1           0      -13.836301    0.649905    0.519566
     49          1           0      -14.545463   -1.918980    0.352759
     50          1           0      -10.879559   -2.612284   -2.186581
     51          1           0      -11.558491   -1.766509   -3.296052
     52          1           0       -9.953493   -1.117706   -2.516319
     53          1           0       -9.312072    1.257324   -0.551024
     54          1           0      -10.086677   -0.017834    2.430072
     55          1           0      -11.614378   -0.312037    3.291565
     56          1           0      -10.837627   -1.566760    2.091010
     57          1           0      -12.249606    2.178721    0.425422
     58          1           0      -12.355124    2.071983    2.048540
     59          1           0      -10.754271    1.984814    1.449839
     60          1           0      -11.900259   -2.702945    0.963212
     61          1           0       -9.089375   -1.619284    0.353777
     62          1           0       -5.900256   -2.036753   -0.493294
     63          1           0       -5.835640   -1.513704    1.106115
     64          1           0       -7.225067   -2.541202    0.814545
     65          1           0       -7.308501    1.519059   -0.281941
     66          1           0       -4.727261    0.053320   -0.075707
     67          1           0       13.463038   -1.140216    2.317836
     68          1           0       12.033241   -1.972401    1.780535
     69          1           0       13.832670   -2.753837    0.607755
     70          1           0       12.889943   -2.474583   -1.825438
     71          1           0       11.845715   -2.539602   -0.265624
     72          1           0       11.581223    0.510135    3.565043
     73          1           0       10.400091    1.128913    2.493045
     74          1           0       10.568099   -0.619637    2.524495
     75          1           0       13.590525    1.151953    0.432181
     76          1           0       12.456927    2.450095    1.148201
     77          1           0       13.282074    1.369728    2.222593
     78          1           0       12.952953    0.092211   -2.988332
     79          1           0       12.029908    1.168790   -2.288171
     80          1           0       13.464575    0.806118   -1.514194
     81          1           0       -5.430321    3.131922   -0.591812
     82          1           0       10.186348   -0.365214   -2.534041
     83          1           0       15.099620   -0.961130    0.731043
     84          1           0        8.287655    1.866786   -0.429762
     85          1           0       -2.365958    4.435846    0.472832
     86          1           0       -2.283995    3.995302   -1.447025
     87          1           0       -3.655455    4.736346   -0.888071
     88          1           0       -2.719869    0.447029   -0.100394
     89          1           0        6.833207   -2.046940   -0.115592
     90          1           0        8.401768   -1.710772   -0.596223
     91          1           0        8.009650   -1.643535    1.139361
     92          1           0        6.301651    1.757694   -0.221133
     93          1           0       -0.777205    2.798038   -0.524256
     94          1           0        4.869688   -0.959933    0.218607
     95          1           0       -0.506293   -0.338322   -0.361111
     96          1           0        4.147084    1.988186   -0.424522
     97          1           0        1.726243    2.048239   -0.402714
     98          1           0        0.948811   -1.435004    0.438546
     99          1           0        2.786460   -1.705131   -0.330955
    100          1           0        2.521820   -1.612877    1.407583
 ---------------------------------------------------------------------

 SCF Done:  E(RCAM-B3LYP) =  -1857.29364780     A.U. after   15 cycles

 Excitation energies and oscillator strengths:

 Excited State   1:      Singlet-A      1.9562 eV  633.81 nm  f=2.8747  <S**2>=0.000
     163 ->166        -0.11518
     164 ->165         0.70501
     164 <-165        -0.12280
 This state for optimization and/or second-order correction.
 Total Energy, E(TD-HF/TD-DFT) =  -1857.22175976
 Copying the excited state density for this state as the 1-particle RhoCI density.

 The electronic state is 1-A.
 Alpha  occ. eigenvalues --  -19.22452 -19.22243 -19.21104 -19.20721 -10.33394
 Alpha  occ. eigenvalues --  -10.32265 -10.31838 -10.31187 -10.30724 -10.28608
 Alpha  occ. eigenvalues --  -10.28526 -10.28194 -10.28126 -10.27871 -10.27848
 Alpha  occ. eigenvalues --  -10.27352 -10.27273 -10.27023 -10.26936 -10.26876
 Alpha  occ. eigenvalues --  -10.26859 -10.26796 -10.26695 -10.26693 -10.26551
 Alpha  occ. eigenvalues --  -10.26488 -10.26425 -10.26340 -10.26139 -10.26078
 Alpha  occ. eigenvalues --  -10.26059 -10.25983 -10.25960 -10.25825 -10.25521
 Alpha  occ. eigenvalues --  -10.25478 -10.25253 -10.24990 -10.24871 -10.24746
 Alpha  occ. eigenvalues --  -10.24553 -10.23845 -10.23481 -10.22808  -1.12596
 Alpha  occ. eigenvalues --   -1.09857  -1.09137  -1.06762  -0.93779  -0.92791
 Alpha  occ. eigenvalues --   -0.91876  -0.91027  -0.90389  -0.89946  -0.87768
 Alpha  occ. eigenvalues --   -0.87225  -0.86830  -0.86003  -0.84732  -0.83490
 Alpha  occ. eigenvalues --   -0.82334  -0.81700  -0.80898  -0.77982  -0.77652
 Alpha  occ. eigenvalues --   -0.77083  -0.76548  -0.76510  -0.76180  -0.75454
 Alpha  occ. eigenvalues --   -0.75403  -0.74036  -0.72315  -0.70481  -0.69793
 Alpha  occ. eigenvalues --   -0.68490  -0.66753  -0.65464  -0.64937  -0.64205
 Alpha  occ. eigenvalues --   -0.63637  -0.61286  -0.60038  -0.59916  -0.59371
 Alpha  occ. eigenvalues --   -0.58552  -0.58314  -0.57755  -0.56976  -0.55814
 Alpha  occ. eigenvalues --   -0.55680  -0.54811  -0.54604  -0.54461  -0.54392
 Alpha  occ. eigenvalues --   -0.53743  -0.53350  -0.52786  -0.52649  -0.52279
 Alpha  occ. eigenvalues --   -0.51894  -0.51309  -0.50867  -0.50821  -0.50761
 Alpha  occ. eigenvalues --   -0.49885  -0.49639  -0.49337  -0.49201  -0.48951
 Alpha  occ. eigenvalues --   -0.48600  -0.48157  -0.47663  -0.47521  -0.47184
 Alpha  occ. eigenvalues --   -0.46499  -0.46199  -0.45904  -0.45589  -0.45346
 Alpha  occ. eigenvalues --   -0.44681  -0.44181  -0.43952  -0.43609  -0.43397
 Alpha  occ. eigenvalues --   -0.43100  -0.42746  -0.42519  -0.42274  -0.42034
 Alpha  occ. eigenvalues --   -0.41717  -0.41598  -0.41504  -0.41463  -0.41249
 Alpha  occ. eigenvalues --   -0.40956  -0.40559  -0.40485  -0.39896  -0.39782
 Alpha  occ. eigenvalues --   -0.39617  -0.39319  -0.39229  -0.39184  -0.38861
 Alpha  occ. eigenvalues --   -0.38455  -0.38067  -0.38029  -0.37748  -0.37541
 Alpha  occ. eigenvalues --   -0.37449  -0.36047  -0.34682  -0.33927  -0.33492
 Alpha  occ. eigenvalues --   -0.33243  -0.32782  -0.31997  -0.31394  -0.30733
 Alpha  occ. eigenvalues --   -0.30309  -0.27164  -0.24283  -0.18753
 Alpha virt. eigenvalues --   -0.06599  -0.00571   0.03134   0.07196   0.07634
 Alpha virt. eigenvalues --    0.08763   0.09734   0.09759   0.11195   0.11559
 Alpha virt. eigenvalues --    0.11666   0.12026   0.12455   0.13225   0.13609

 Mulliken charges:
               1
     1  O   -0.530473
     2  O   -0.572254
     3  O   -0.561696
     4  O   -0.536302
     5  C    0.247461
     6  C    0.214876
     7  C    0.013426
     8  C   -0.206547
     9  C   -0.171830
    10  C    0.169483
    11  C   -0.349477
    12  C   -0.128438
    13  C   -0.297738
    14  C   -0.317581
    15  C   -0.060594
    16  C    0.028103
    17  C   -0.347662
    18  C   -0.055725
    19  C   -0.067448
    20  C    0.017577
    21  C    0.273604
    22  C   -0.208334
    23  C    0.137896
    24  C   -0.162629
    25  C   -0.129423
    26  C   -0.302768
    27  C   -0.289026
    28  C   -0.328725
    29  C   -0.132904
    30  C    0.184288
    31  C    0.064050
    32  C   -0.288369
    33  C   -0.378421
    34  C   -0.089677
    35  C    0.126142
    36  C   -0.366540
    37  C   -0.136031
    38  C   -0.072738
    39  C   -0.067752
    40  C   -0.116165
    41  C   -0.101843
    42  C   -0.103834
    43  C    0.086109
    44  C   -0.360192
    45  H    0.097703
    46  H    0.102527
    47  H    0.094202
    48  H    0.110890
    49  H    0.099620
    50  H    0.113313
    51  H    0.121004
    52  H    0.129590
    53  H    0.110034
    54  H    0.107603
    55  H    0.102092
    56  H    0.069405
    57  H    0.129077
    58  H    0.101691
    59  H    0.093679
    60  H    0.299250
    61  H    0.064779
    62  H    0.135700
    63  H    0.141214
    64  H    0.062287
    65  H    0.069241
    66  H    0.086328
    67  H    0.092182
    68  H    0.097195
    69  H    0.099285
    70  H    0.078107
    71  H    0.099278
    72  H    0.088433
    73  H    0.117550
    74  H    0.107626
    75  H    0.132897
    76  H    0.103450
    77  H    0.069947
    78  H    0.109607
    79  H    0.102462
    80  H    0.125736
    81  H    0.094759
    82  H    0.315982
    83  H    0.300047
    84  H    0.102205
    85  H    0.113478
    86  H    0.141327
    87  H    0.099989
    88  H    0.055027
    89  H    0.106056
    90  H    0.150735
    91  H    0.121118
    92  H    0.061833
    93  H    0.086048
    94  H    0.080852
    95  H    0.097307
    96  H    0.072995
    97  H    0.077273
    98  H    0.115117
    99  H    0.114308
   100  H    0.104690
 Sum of Mulliken charges =  -0.00000

 Dipole moment (field-independent basis, Debye):
    X=              4.4136    Y=             -0.0844    Z=              0.9970  Tot=              4.5256
 Quadrupole moment (field-independent basis, Debye-Ang):
   XX=           -270.8767   YY=           -261.7381   ZZ=           -272.2689
   XY=             -2.1366   XZ=             31.6554   YZ=             -1.7471

 Normal termination of Gaussian 16 at Wed Jul 31 19:02:05 2019.
