 Gaussian 16, Revision A.03,
 Gaussian 16:  ES64L-G16RevA.03 25-Dec-2016

 -------------------------------------
 # td=(NStates=1) CAM-B3LYP/6-31G(d,p)
 -------------------------------------

 --
 TD
 --
 Symbolic Z-matrix:
 Charge =  0 Multiplicity = 1

                         Standard orientation:
 ---------------------------------------------------------------------
 Center     Atomic      Atomic             Coordinates (Angstroms)
 Number     Number       Type             X           Y           Z
 ---------------------------------------------------------------------
      1          8           0      -11.639272    0.330397   -1.566312
      2          8           0      -12.952941   -2.618542    1.234890
      3          8           0       10.674207   -0.951850   -2.186520
      4          8           0       14.546765   -1.199893    0.051604
      5          6           0      -11.039831   -0.058439   -0.334558
      6          6           0      -11.605980   -1.035883   -1.248765
      7          6           0      -11.863848    0.342880    1.050928
      8          6           0      -12.945763   -1.802120   -1.024299
      9          6           0      -13.188583   -0.064590    0.859207
     10          6           0      -13.500164   -1.590110    0.446877
     11          6           0      -10.664645   -1.782284   -2.257677
     12          6           0       -9.588897    0.139694   -0.348932
     13          6           0      -11.087476   -0.248798    2.265125
     14          6           0      -11.788263    1.772211    0.970559
     15          6           0       -8.640139   -0.716669    0.084611
     16          6           0       -7.185099   -0.564072    0.236322
     17          6           0       -6.369852   -1.807760    0.481193
     18          6           0       -6.691950    0.666967    0.043494
     19          6           0       -5.270542    0.890056    0.000764
     20          6           0       11.845747   -0.003343    1.338784
     21          6           0       11.692753   -0.604822   -1.328070
     22          6           0       12.460612   -1.331338    1.513446
     23          6           0       13.293141   -1.878743    0.297364
     24          6           0       12.470836   -1.969893   -0.968034
     25          6           0       11.081858    0.030436   -0.014939
     26          6           0       10.879795    0.181255    2.509619
     27          6           0       12.854933    1.072858    1.491580
     28          6           0       12.546180    0.540909   -1.912041
     29          6           0       -4.738079    2.143354   -0.189439
     30          6           0        9.892622    0.597105   -0.043030
     31          6           0       -3.345820    2.554200   -0.349644
     32          6           0        8.624713    0.972890   -0.297150
     33          6           0       -3.012048    3.984998   -0.527767
     34          6           0       -2.302149    1.576112   -0.237170
     35          6           0        7.419029    0.261977   -0.196835
     36          6           0        7.641714   -1.226940    0.302666
     37          6           0        6.237692    0.784722   -0.339675
     38          6           0       -0.998835    1.766631   -0.318399
     39          6           0        4.924688    0.273321   -0.046067
     40          6           0        0.029498    0.902151   -0.105088
     41          6           0        3.792476    0.942667   -0.055723
     42          6           0        1.399479    1.281765   -0.165468
     43          6           0        2.497783    0.485956   -0.003005
     44          6           0        2.296667   -1.044302    0.137561
     45          1           0      -12.714907   -2.996322   -1.167252
     46          1           0      -13.665018   -1.446151   -1.820073
     47          1           0      -13.622364   -0.026519    1.780518
     48          1           0      -13.832229    0.528836    0.037193
     49          1           0      -14.561836   -1.704413    0.350994
     50          1           0       -9.855757   -2.548612   -1.629693
     51          1           0      -11.230966   -2.554408   -3.170356
     52          1           0       -9.915288   -1.073172   -2.865853
     53          1           0       -9.315944    1.131540   -0.750702
     54          1           0       -9.933969   -0.008074    2.481034
     55          1           0      -11.545190    0.073955    3.053770
     56          1           0      -11.339501   -1.379031    2.286496
     57          1           0      -12.297107    2.229624    0.198048
     58          1           0      -12.339692    2.310193    1.608042
     59          1           0      -10.773006    2.127455    1.263337
     60          1           0      -11.975879   -2.679911    1.246128
     61          1           0       -8.880981   -1.785760    0.371733
     62          1           0       -5.711839   -2.039574   -0.323177
     63          1           0       -5.774785   -1.809470    1.502767
     64          1           0       -7.099022   -2.696443    0.567554
     65          1           0       -7.340676    1.452889   -0.088442
     66          1           0       -4.618417    0.022634   -0.072335
     67          1           0       12.959007   -1.424332    2.626938
     68          1           0       11.468420   -2.068075    1.778652
     69          1           0       13.643484   -3.000240    0.473503
     70          1           0       13.045100   -2.443650   -1.803338
     71          1           0       11.733014   -2.730110   -0.630701
     72          1           0       11.164587    0.027581    3.687876
     73          1           0       10.399470    1.127365    2.448893
     74          1           0       10.092039   -0.553427    2.275898
     75          1           0       13.717634    0.912669    0.748495
     76          1           0       12.252756    2.043863    1.117502
     77          1           0       13.282993    1.253968    2.453546
     78          1           0       13.073861   -0.079267   -2.719320
     79          1           0       12.159282    1.484012   -2.140595
     80          1           0       13.558423    0.698552   -1.203349
     81          1           0       -5.376860    3.008379   -0.316142
     82          1           0       10.271445   -0.088270   -2.164164
     83          1           0       14.971852   -1.182567    0.938505
     84          1           0        8.392737    2.050018   -0.622274
     85          1           0       -2.542922    4.457391    0.481245
     86          1           0       -2.370668    4.308310   -1.256326
     87          1           0       -3.969496    4.488614   -1.011527
     88          1           0       -2.688544    0.565757   -0.147166
     89          1           0        6.586302   -1.780293    0.650513
     90          1           0        8.016721   -1.622730   -0.751118
     91          1           0        8.564728   -1.331964    0.993898
     92          1           0        6.198733    1.783266   -0.447212
     93          1           0       -0.383959    2.803153   -0.713216
     94          1           0        4.920695   -0.800912   -0.220706
     95          1           0       -0.192116   -0.109018   -0.024822
     96          1           0        3.832417    1.841388   -0.144000
     97          1           0        1.525208    2.283727   -0.220075
     98          1           0        1.235880   -1.283043    0.259028
     99          1           0        2.701808   -1.404886   -0.782231
    100          1           0        2.744746   -1.455453    0.944792
 ---------------------------------------------------------------------

 SCF Done:  E(RCAM-B3LYP) =  -1857.23561495     A.U. after   15 cycles

 Excitation energies and oscillator strengths:

 Excited State   1:      Singlet-A      2.2835 eV  542.96 nm  f=3.0597  <S**2>=0.000
     163 ->166        -0.13374
     164 ->165         0.69488
 This state for optimization and/or second-order correction.
 Total Energy, E(TD-HF/TD-DFT) =  -1857.15169871
 Copying the excited state density for this state as the 1-particle RhoCI density.

 The electronic state is 1-A.
 Alpha  occ. eigenvalues --  -19.22388 -19.22139 -19.21894 -19.21610 -10.33447
 Alpha  occ. eigenvalues --  -10.32673 -10.31970 -10.31395 -10.31224 -10.29039
 Alpha  occ. eigenvalues --  -10.28695 -10.28196 -10.28178 -10.27969 -10.27843
 Alpha  occ. eigenvalues --  -10.27756 -10.27589 -10.27532 -10.27308 -10.27112
 Alpha  occ. eigenvalues --  -10.27108 -10.27020 -10.26956 -10.26916 -10.26788
 Alpha  occ. eigenvalues --  -10.26779 -10.26724 -10.26714 -10.26683 -10.26142
 Alpha  occ. eigenvalues --  -10.25900 -10.25780 -10.25701 -10.25635 -10.25606
 Alpha  occ. eigenvalues --  -10.25405 -10.25376 -10.25325 -10.25269 -10.25167
 Alpha  occ. eigenvalues --  -10.24515 -10.24012 -10.23557 -10.22470  -1.16505
 Alpha  occ. eigenvalues --   -1.12959  -1.09901  -1.09618  -0.93969  -0.93303
 Alpha  occ. eigenvalues --   -0.93270  -0.92249  -0.91605  -0.90678  -0.87997
 Alpha  occ. eigenvalues --   -0.85997  -0.85931  -0.85065  -0.84389  -0.83293
 Alpha  occ. eigenvalues --   -0.81990  -0.80448  -0.79282  -0.79036  -0.78557
 Alpha  occ. eigenvalues --   -0.77313  -0.76897  -0.75847  -0.75523  -0.75112
 Alpha  occ. eigenvalues --   -0.74878  -0.74351  -0.73717  -0.70891  -0.70041
 Alpha  occ. eigenvalues --   -0.68870  -0.67582  -0.65708  -0.64379  -0.64008
 Alpha  occ. eigenvalues --   -0.63703  -0.62680  -0.62095  -0.61049  -0.60513
 Alpha  occ. eigenvalues --   -0.59440  -0.58644  -0.58191  -0.57210  -0.56636
 Alpha  occ. eigenvalues --   -0.56123  -0.55949  -0.55141  -0.55115  -0.54789
 Alpha  occ. eigenvalues --   -0.54011  -0.53271  -0.53025  -0.52741  -0.52251
 Alpha  occ. eigenvalues --   -0.51511  -0.51368  -0.50858  -0.50432  -0.50106
 Alpha  occ. eigenvalues --   -0.49940  -0.49433  -0.49078  -0.49014  -0.48907
 Alpha  occ. eigenvalues --   -0.48536  -0.48133  -0.47729  -0.46918  -0.46774
 Alpha  occ. eigenvalues --   -0.46427  -0.46364  -0.45596  -0.45347  -0.44982
 Alpha  occ. eigenvalues --   -0.44379  -0.44353  -0.44090  -0.43872  -0.43700
 Alpha  occ. eigenvalues --   -0.43638  -0.43290  -0.43168  -0.43111  -0.42741
 Alpha  occ. eigenvalues --   -0.42553  -0.42468  -0.42102  -0.41657  -0.41320
 Alpha  occ. eigenvalues --   -0.40752  -0.40540  -0.40397  -0.40113  -0.39796
 Alpha  occ. eigenvalues --   -0.39572  -0.39386  -0.39255  -0.39109  -0.38949
 Alpha  occ. eigenvalues --   -0.38309  -0.37865  -0.37766  -0.37316  -0.37124
 Alpha  occ. eigenvalues --   -0.36382  -0.35978  -0.35237  -0.34481  -0.34308
 Alpha  occ. eigenvalues --   -0.33009  -0.32190  -0.31899  -0.31437  -0.30532
 Alpha  occ. eigenvalues --   -0.30316  -0.27972  -0.25147  -0.20085
 Alpha virt. eigenvalues --   -0.05897  -0.00645   0.02788   0.05829   0.06923
 Alpha virt. eigenvalues --    0.09024   0.09836   0.10573   0.11747   0.12675
 Alpha virt. eigenvalues --    0.12781   0.12983   0.13352   0.13901   0.13918

 Mulliken charges:
               1
     1  O   -0.495008
     2  O   -0.547454
     3  O   -0.522484
     4  O   -0.544596
     5  C    0.190762
     6  C    0.260372
     7  C    0.056593
     8  C   -0.228070
     9  C   -0.217873
    10  C    0.162276
    11  C   -0.298882
    12  C   -0.112535
    13  C   -0.312753
    14  C   -0.304058
    15  C   -0.074123
    16  C    0.088052
    17  C   -0.378924
    18  C   -0.082868
    19  C   -0.079217
    20  C    0.025167
    21  C    0.238641
    22  C   -0.187067
    23  C    0.154350
    24  C   -0.194383
    25  C   -0.060740
    26  C   -0.301564
    27  C   -0.288201
    28  C   -0.315394
    29  C   -0.117376
    30  C    0.080968
    31  C    0.089238
    32  C   -0.275915
    33  C   -0.368299
    34  C   -0.127256
    35  C    0.187649
    36  C   -0.359466
    37  C   -0.148703
    38  C   -0.058831
    39  C   -0.095227
    40  C   -0.064607
    41  C   -0.029036
    42  C   -0.127902
    43  C    0.085382
    44  C   -0.367491
    45  H    0.094961
    46  H    0.108844
    47  H    0.109026
    48  H    0.105671
    49  H    0.107654
    50  H    0.063900
    51  H    0.067392
    52  H    0.116097
    53  H    0.105304
    54  H    0.115604
    55  H    0.122792
    56  H    0.069009
    57  H    0.122627
    58  H    0.098274
    59  H    0.096081
    60  H    0.315875
    61  H    0.056026
    62  H    0.138531
    63  H    0.116420
    64  H    0.099287
    65  H    0.082184
    66  H    0.090036
    67  H    0.077291
    68  H    0.068259
    69  H    0.069066
    70  H    0.120926
    71  H    0.123307
    72  H    0.084754
    73  H    0.115625
    74  H    0.101569
    75  H    0.104052
    76  H    0.078587
    77  H    0.105692
    78  H    0.109271
    79  H    0.118936
    80  H    0.114158
    81  H    0.076931
    82  H    0.299211
    83  H    0.310737
    84  H    0.097320
    85  H    0.115922
    86  H    0.138134
    87  H    0.088535
    88  H    0.077867
    89  H    0.092344
    90  H    0.123949
    91  H    0.119616
    92  H    0.066164
    93  H    0.058979
    94  H    0.077868
    95  H    0.073612
    96  H    0.033668
    97  H    0.068478
    98  H    0.099694
    99  H    0.128056
   100  H    0.126682
 Sum of Mulliken charges =  -0.00000

 Dipole moment (field-independent basis, Debye):
    X=              1.3248    Y=              0.5632    Z=              2.6410  Tot=              3.0078
 Quadrupole moment (field-independent basis, Debye-Ang):
   XX=           -274.5097   YY=           -262.4746   ZZ=           -277.1756
   XY=             -6.3257   XZ=             19.3508   YZ=             -3.8083

 Normal termination of Gaussian 16 at Tue Jul 30 13:24:02 2019.
