 Gaussian 16, Revision A.03,
 Gaussian 16:  ES64L-G16RevA.03 25-Dec-2016

 -------------------------------------
 # td=(NStates=1) CAM-B3LYP/6-31G(d,p)
 -------------------------------------

 --
 TD
 --
 Symbolic Z-matrix:
 Charge =  0 Multiplicity = 1

                         Standard orientation:
 ---------------------------------------------------------------------
 Center     Atomic      Atomic             Coordinates (Angstroms)
 Number     Number       Type             X           Y           Z
 ---------------------------------------------------------------------
      1          8           0      -11.743411   -0.029813   -1.535959
      2          8           0      -12.877894   -2.453316    1.598990
      3          8           0       10.524387   -1.199147   -2.006167
      4          8           0       14.565945   -1.212319   -0.118865
      5          6           0      -11.112579   -0.190148   -0.275615
      6          6           0      -11.640960   -1.382550   -1.142015
      7          6           0      -11.846021    0.354292    0.835972
      8          6           0      -12.895770   -2.080345   -0.780802
      9          6           0      -13.353339   -0.173054    0.882128
     10          6           0      -13.553248   -1.708856    0.461556
     11          6           0      -10.724803   -2.234080   -2.068047
     12          6           0       -9.616800    0.059668   -0.352323
     13          6           0      -11.168833    0.074869    2.167986
     14          6           0      -11.853129    1.908410    0.743627
     15          6           0       -8.625305   -0.693831    0.106965
     16          6           0       -7.193922   -0.475949    0.101677
     17          6           0       -6.322778   -1.639210    0.375751
     18          6           0       -6.651022    0.797737   -0.175781
     19          6           0       -5.229641    1.152061   -0.093266
     20          6           0       11.949282   -0.001388    1.266376
     21          6           0       11.563152   -0.699033   -1.246161
     22          6           0       12.646263   -1.302947    1.423459
     23          6           0       13.364620   -1.960880    0.281982
     24          6           0       12.367651   -2.005315   -0.896396
     25          6           0       11.073983    0.051260    0.029103
     26          6           0       11.019330    0.313442    2.490049
     27          6           0       12.914645    1.144921    1.317520
     28          6           0       12.510595    0.216315   -2.045912
     29          6           0       -4.713142    2.430916   -0.337210
     30          6           0        9.907942    0.628069   -0.106404
     31          6           0       -3.336159    2.701441   -0.430549
     32          6           0        8.648765    1.130242   -0.182487
     33          6           0       -2.994225    4.204079   -0.777753
     34          6           0       -2.230239    1.717116   -0.275930
     35          6           0        7.434244    0.255013    0.081346
     36          6           0        7.691274   -1.220194    0.271429
     37          6           0        6.264150    0.841501   -0.043242
     38          6           0       -0.892369    2.015918   -0.387817
     39          6           0        5.016200    0.188064   -0.062278
     40          6           0        0.053358    0.998319   -0.195214
     41          6           0        3.786083    0.946538   -0.160996
     42          6           0        1.393852    1.248704   -0.235891
     43          6           0        2.443539    0.390142    0.058218
     44          6           0        2.156012   -1.094512    0.519978
     45          1           0      -12.552000   -3.354376   -0.850477
     46          1           0      -13.575746   -1.837284   -1.834398
     47          1           0      -13.747662   -0.060403    1.852882
     48          1           0      -13.948455    0.536111    0.278247
     49          1           0      -14.649118   -1.916418    0.465730
     50          1           0      -10.354932   -3.072224   -1.565477
     51          1           0      -11.343186   -2.625912   -2.996479
     52          1           0       -9.924942   -1.602023   -2.350216
     53          1           0       -9.580248    1.171513   -0.636902
     54          1           0      -10.070903    0.233564    2.220649
     55          1           0      -11.690609    0.896538    2.877975
     56          1           0      -11.454605   -1.040740    2.572176
     57          1           0      -12.171820    2.544892   -0.363285
     58          1           0      -12.430556    2.344596    1.651546
     59          1           0      -10.778528    2.208341    0.889085
     60          1           0      -12.086040   -2.740846    0.933137
     61          1           0       -8.895594   -1.684734    0.444120
     62          1           0       -5.639885   -1.695832   -0.586758
     63          1           0       -5.567081   -1.564417    1.154609
     64          1           0       -6.795757   -2.606057    0.663891
     65          1           0       -7.271680    1.698089   -0.557631
     66          1           0       -4.569577    0.224647    0.217348
     67          1           0       13.319408   -1.259844    2.238381
     68          1           0       11.936540   -2.097150    1.834203
     69          1           0       13.463431   -3.093855    0.388715
     70          1           0       12.821025   -2.429730   -1.576245
     71          1           0       11.596100   -2.808666   -0.417818
     72          1           0       11.621490    0.246230    3.486073
     73          1           0       10.631646    1.215419    2.515833
     74          1           0       10.339982   -0.507826    2.799789
     75          1           0       13.429504    1.076192    0.398751
     76          1           0       12.425748    2.204637    1.212239
     77          1           0       13.381200    1.148511    2.332636
     78          1           0       12.473684   -0.158672   -3.250772
     79          1           0       11.814441    1.084115   -2.277727
     80          1           0       13.406505    0.346573   -1.541289
     81          1           0       -5.595762    3.107026   -0.752201
     82          1           0        9.742700   -0.598891   -2.026320
     83          1           0       14.925749   -1.158037    0.812293
     84          1           0        8.535138    2.095872   -0.223309
     85          1           0       -2.238212    4.500081   -0.057454
     86          1           0       -2.446000    4.138799   -1.707122
     87          1           0       -3.883928    4.910476   -0.628789
     88          1           0       -2.383670    0.760208   -0.071621
     89          1           0        6.736699   -1.830672   -0.083271
     90          1           0        8.482725   -1.513707   -0.288011
     91          1           0        8.056132   -1.469858    1.413923
     92          1           0        6.371194    1.649887   -0.205768
     93          1           0       -0.568651    2.959488   -0.813773
     94          1           0        4.990633   -0.951346    0.187591
     95          1           0       -0.163828    0.143643    0.449842
     96          1           0        4.314478    1.898285   -0.424781
     97          1           0        1.816046    2.192264   -0.448531
     98          1           0        1.132438   -1.175547    0.803384
     99          1           0        2.500388   -1.631418   -0.211499
    100          1           0        2.857785   -1.333212    1.290695
 ---------------------------------------------------------------------

 SCF Done:  E(RCAM-B3LYP) =  -1857.17392213     A.U. after   15 cycles

 Excitation energies and oscillator strengths:

 Excited State   1:      Singlet-A      1.9475 eV  636.64 nm  f=2.8107  <S**2>=0.000
     163 ->166        -0.12053
     164 ->165         0.70263
     164 <-165        -0.11890
 This state for optimization and/or second-order correction.
 Total Energy, E(TD-HF/TD-DFT) =  -1857.10235315
 Copying the excited state density for this state as the 1-particle RhoCI density.

 The electronic state is 1-A.
 Alpha  occ. eigenvalues --  -19.22931 -19.22496 -19.22351 -19.20969 -10.32535
 Alpha  occ. eigenvalues --  -10.32129 -10.32009 -10.31722 -10.31431 -10.30136
 Alpha  occ. eigenvalues --  -10.29179 -10.28713 -10.28401 -10.28396 -10.28180
 Alpha  occ. eigenvalues --  -10.27986 -10.27792 -10.27711 -10.27613 -10.27592
 Alpha  occ. eigenvalues --  -10.27426 -10.27307 -10.27248 -10.27227 -10.27225
 Alpha  occ. eigenvalues --  -10.27134 -10.27125 -10.27039 -10.26752 -10.26364
 Alpha  occ. eigenvalues --  -10.26187 -10.26175 -10.26148 -10.25978 -10.25828
 Alpha  occ. eigenvalues --  -10.25683 -10.25658 -10.25216 -10.25090 -10.24833
 Alpha  occ. eigenvalues --  -10.24782 -10.24656 -10.23936 -10.22987  -1.16209
 Alpha  occ. eigenvalues --   -1.10400  -1.09275  -1.06773  -0.94049  -0.92642
 Alpha  occ. eigenvalues --   -0.92025  -0.91639  -0.90680  -0.89633  -0.87429
 Alpha  occ. eigenvalues --   -0.87228  -0.86343  -0.86077  -0.84516  -0.83402
 Alpha  occ. eigenvalues --   -0.81979  -0.80866  -0.80460  -0.79556  -0.77760
 Alpha  occ. eigenvalues --   -0.77406  -0.76812  -0.76484  -0.76120  -0.75900
 Alpha  occ. eigenvalues --   -0.74598  -0.73529  -0.73266  -0.70445  -0.69582
 Alpha  occ. eigenvalues --   -0.68730  -0.67011  -0.65914  -0.65122  -0.63750
 Alpha  occ. eigenvalues --   -0.63530  -0.62815  -0.62161  -0.60774  -0.59538
 Alpha  occ. eigenvalues --   -0.58730  -0.58437  -0.57947  -0.57301  -0.57004
 Alpha  occ. eigenvalues --   -0.56262  -0.55775  -0.55130  -0.54868  -0.54375
 Alpha  occ. eigenvalues --   -0.53429  -0.53099  -0.52854  -0.52605  -0.51832
 Alpha  occ. eigenvalues --   -0.51388  -0.51053  -0.50935  -0.50156  -0.50047
 Alpha  occ. eigenvalues --   -0.49920  -0.49387  -0.49088  -0.48902  -0.48529
 Alpha  occ. eigenvalues --   -0.48053  -0.47859  -0.47608  -0.47218  -0.47146
 Alpha  occ. eigenvalues --   -0.46888  -0.46599  -0.46321  -0.45844  -0.45225
 Alpha  occ. eigenvalues --   -0.45032  -0.44942  -0.44643  -0.44615  -0.44267
 Alpha  occ. eigenvalues --   -0.44154  -0.43961  -0.43505  -0.42781  -0.42695
 Alpha  occ. eigenvalues --   -0.42188  -0.41643  -0.41633  -0.41460  -0.41152
 Alpha  occ. eigenvalues --   -0.40736  -0.40585  -0.40055  -0.39975  -0.39751
 Alpha  occ. eigenvalues --   -0.39624  -0.39360  -0.38996  -0.38793  -0.38718
 Alpha  occ. eigenvalues --   -0.38520  -0.38390  -0.38349  -0.37934  -0.37169
 Alpha  occ. eigenvalues --   -0.36779  -0.36446  -0.35911  -0.34561  -0.33469
 Alpha  occ. eigenvalues --   -0.33432  -0.32538  -0.32015  -0.31606  -0.30591
 Alpha  occ. eigenvalues --   -0.29727  -0.28075  -0.24654  -0.19063
 Alpha virt. eigenvalues --   -0.06870  -0.00932   0.02729   0.06122   0.07025
 Alpha virt. eigenvalues --    0.07945   0.09199   0.09872   0.09972   0.11817
 Alpha virt. eigenvalues --    0.12062   0.12376   0.12664   0.13370   0.13573

 Mulliken charges:
               1
     1  O   -0.497479
     2  O   -0.545870
     3  O   -0.561302
     4  O   -0.538364
     5  C    0.215362
     6  C    0.229487
     7  C    0.028495
     8  C   -0.234856
     9  C   -0.179891
    10  C    0.143500
    11  C   -0.324157
    12  C   -0.101198
    13  C   -0.311052
    14  C   -0.302926
    15  C   -0.078977
    16  C    0.104243
    17  C   -0.395823
    18  C   -0.127228
    19  C   -0.054855
    20  C    0.021143
    21  C    0.263852
    22  C   -0.200229
    23  C    0.108126
    24  C   -0.138005
    25  C   -0.060127
    26  C   -0.296117
    27  C   -0.288860
    28  C   -0.299506
    29  C   -0.134629
    30  C    0.093816
    31  C    0.049304
    32  C   -0.255632
    33  C   -0.374269
    34  C   -0.081610
    35  C    0.083800
    36  C   -0.358998
    37  C    0.033701
    38  C   -0.069542
    39  C   -0.120554
    40  C   -0.115137
    41  C   -0.120534
    42  C   -0.080885
    43  C    0.034302
    44  C   -0.349244
    45  H    0.075008
    46  H    0.103427
    47  H    0.117457
    48  H    0.103209
    49  H    0.105662
    50  H    0.109206
    51  H    0.099586
    52  H    0.132039
    53  H    0.097568
    54  H    0.110945
    55  H    0.072660
    56  H    0.121673
    57  H    0.079253
    58  H    0.101824
    59  H    0.103576
    60  H    0.306057
    61  H    0.078317
    62  H    0.123009
    63  H    0.132957
    64  H    0.114221
    65  H    0.083407
    66  H    0.078809
    67  H    0.085073
    68  H    0.099525
    69  H    0.091905
    70  H    0.102343
    71  H    0.072085
    72  H    0.068461
    73  H    0.123782
    74  H    0.097849
    75  H    0.119191
    76  H    0.089439
    77  H    0.101031
    78  H    0.084894
    79  H    0.085718
    80  H    0.142548
    81  H    0.091364
    82  H    0.305299
    83  H    0.310470
    84  H    0.101870
    85  H    0.127966
    86  H    0.134735
    87  H    0.115108
    88  H    0.071185
    89  H    0.096094
    90  H    0.130075
    91  H    0.099217
    92  H   -0.009275
    93  H    0.087589
    94  H    0.068208
    95  H    0.085914
    96  H    0.098301
    97  H    0.079805
    98  H    0.113234
    99  H    0.144408
   100  H    0.123442
 Sum of Mulliken charges =  -0.00000

 Dipole moment (field-independent basis, Debye):
    X=              0.6213    Y=             -0.2021    Z=              1.9561  Tot=              2.0623
 Quadrupole moment (field-independent basis, Debye-Ang):
   XX=           -295.2813   YY=           -257.7038   ZZ=           -281.6084
   XY=              5.2949   XZ=             46.3240   YZ=             -2.3834

 Normal termination of Gaussian 16 at Thu Aug  1 12:18:58 2019.
