 Gaussian 16, Revision A.03,
 Gaussian 16:  ES64L-G16RevA.03 25-Dec-2016

 -------------------------------------
 # td=(NStates=1) CAM-B3LYP/6-31G(d,p)
 -------------------------------------

 --
 TD
 --
 Symbolic Z-matrix:
 Charge =  0 Multiplicity = 1

                         Standard orientation:
 ---------------------------------------------------------------------
 Center     Atomic      Atomic             Coordinates (Angstroms)
 Number     Number       Type             X           Y           Z
 ---------------------------------------------------------------------
      1          8           0      -11.589144    0.120079   -1.602365
      2          8           0      -13.138296   -2.491591    1.452150
      3          8           0       10.506522   -1.038182   -2.098435
      4          8           0       14.470710   -1.139296   -0.361769
      5          6           0      -11.042279   -0.208828   -0.341970
      6          6           0      -11.605664   -1.185217   -1.271540
      7          6           0      -11.766053    0.261110    0.894497
      8          6           0      -12.923450   -1.780651   -0.987946
      9          6           0      -13.316090   -0.090194    0.778866
     10          6           0      -13.643481   -1.635847    0.392183
     11          6           0      -10.734652   -2.078551   -2.220769
     12          6           0       -9.524109    0.094719   -0.374612
     13          6           0      -11.230378   -0.222803    2.271823
     14          6           0      -11.769904    1.775827    0.885842
     15          6           0       -8.623623   -0.764814    0.190401
     16          6           0       -7.282340   -0.467176    0.177184
     17          6           0       -6.396546   -1.672160    0.703774
     18          6           0       -6.631371    0.738382   -0.181325
     19          6           0       -5.301746    1.038695   -0.129940
     20          6           0       12.027651   -0.084404    1.318472
     21          6           0       11.635373   -0.608653   -1.216983
     22          6           0       12.800572   -1.462962    1.416706
     23          6           0       13.352996   -1.910195    0.032165
     24          6           0       12.331141   -1.867610   -1.065371
     25          6           0       11.116374   -0.107448    0.105428
     26          6           0       11.140779    0.032531    2.528787
     27          6           0       12.901424    1.151088    1.292805
     28          6           0       12.328375    0.402668   -2.157221
     29          6           0       -4.715083    2.300313   -0.428657
     30          6           0        9.901333    0.502186    0.027893
     31          6           0       -3.350426    2.581913   -0.503020
     32          6           0        8.722195    0.996685    0.036905
     33          6           0       -3.021558    4.136203   -0.669070
     34          6           0       -2.293291    1.730220   -0.288171
     35          6           0        7.519009    0.268463    0.143299
     36          6           0        7.566571   -1.183938    0.370055
     37          6           0        6.247061    0.937098    0.082138
     38          6           0       -0.916161    2.011802   -0.306064
     39          6           0        5.034842    0.286444    0.179779
     40          6           0        0.099806    1.040320   -0.054398
     41          6           0        3.811385    0.830911    0.096934
     42          6           0        1.406813    1.314647   -0.063554
     43          6           0        2.461182    0.390898    0.073362
     44          6           0        2.370304   -1.046271    0.375320
     45          1           0      -13.047227   -2.857927   -1.439156
     46          1           0      -13.793906   -1.373227   -1.779541
     47          1           0      -13.911015    0.207454    1.675055
     48          1           0      -13.805553    0.587402    0.154263
     49          1           0      -14.809054   -1.789397    0.256014
     50          1           0      -10.359261   -3.141630   -1.807195
     51          1           0      -11.215455   -2.274270   -3.212496
     52          1           0       -9.747384   -1.462171   -2.360450
     53          1           0       -9.309669    0.953255   -1.102867
     54          1           0      -10.162830    0.292811    2.347091
     55          1           0      -11.828330    0.158992    3.034327
     56          1           0      -11.038305   -1.286817    2.296204
     57          1           0      -12.252398    2.097250    0.122560
     58          1           0      -12.097368    2.199017    1.812230
     59          1           0      -10.634471    2.086697    0.843938
     60          1           0      -12.207268   -2.962528    1.066869
     61          1           0       -8.853614   -1.721579    0.705705
     62          1           0       -5.853239   -2.247962   -0.265468
     63          1           0       -5.553919   -1.330355    1.413419
     64          1           0       -7.177055   -2.496815    1.227108
     65          1           0       -7.295420    1.643115   -0.560494
     66          1           0       -4.638726    0.163871    0.242802
     67          1           0       13.603530   -1.436297    2.150461
     68          1           0       12.162261   -2.243946    1.656262
     69          1           0       13.504008   -2.856744    0.094034
     70          1           0       12.960500   -2.394586   -1.990088
     71          1           0       11.605055   -2.766681   -0.973126
     72          1           0       11.783240    0.074301    3.504047
     73          1           0       10.606590    0.982512    2.559554
     74          1           0       10.543127   -0.773068    2.616600
     75          1           0       13.771198    1.152633    0.651250
     76          1           0       12.295303    2.047635    1.108265
     77          1           0       13.390692    1.161071    2.373186
     78          1           0       12.356233   -0.079669   -3.122059
     79          1           0       11.816530    1.377503   -2.159837
     80          1           0       13.477381    0.411852   -1.628915
     81          1           0       -5.565232    3.061000   -0.621393
     82          1           0        9.993150   -0.359695   -2.233876
     83          1           0       15.030566   -1.095025    0.319553
     84          1           0        8.421613    2.090262   -0.082183
     85          1           0       -2.522252    4.643856    0.178921
     86          1           0       -2.244885    4.278818   -1.548150
     87          1           0       -4.061173    4.647170   -0.705492
     88          1           0       -2.620465    0.610562   -0.263289
     89          1           0        6.614027   -1.357093    0.137145
     90          1           0        8.257438   -1.592714   -0.304306
     91          1           0        7.969849   -1.452139    1.398987
     92          1           0        6.062206    1.930020   -0.461619
     93          1           0       -0.770325    3.105895   -0.465390
     94          1           0        4.869770   -0.828392    0.347675
     95          1           0       -0.251155    0.090158    0.161917
     96          1           0        3.766943    1.911773   -0.134073
     97          1           0        1.857683    2.428919   -0.228963
     98          1           0        1.277035   -1.307075    0.840674
     99          1           0        2.281203   -1.704721   -0.703243
    100          1           0        3.229600   -1.483773    1.056857
 ---------------------------------------------------------------------

 SCF Done:  E(RCAM-B3LYP) =  -1857.27212040     A.U. after   16 cycles

 Excitation energies and oscillator strengths:

 Excited State   1:      Singlet-A      1.8342 eV  675.95 nm  f=3.1772  <S**2>=0.000
     163 ->166        -0.12602
     164 ->165         0.70269
     164 <-165        -0.12241
 This state for optimization and/or second-order correction.
 Total Energy, E(TD-HF/TD-DFT) =  -1857.20471392
 Copying the excited state density for this state as the 1-particle RhoCI density.

 The electronic state is 1-A.
 Alpha  occ. eigenvalues --  -19.23043 -19.22681 -19.21642 -19.18529 -10.32768
 Alpha  occ. eigenvalues --  -10.32640 -10.32098 -10.31225 -10.29601 -10.29522
 Alpha  occ. eigenvalues --  -10.28847 -10.28376 -10.28174 -10.28099 -10.27937
 Alpha  occ. eigenvalues --  -10.27882 -10.27861 -10.27842 -10.27708 -10.27630
 Alpha  occ. eigenvalues --  -10.27515 -10.27444 -10.27427 -10.27410 -10.27341
 Alpha  occ. eigenvalues --  -10.27315 -10.27247 -10.27234 -10.27212 -10.27041
 Alpha  occ. eigenvalues --  -10.26944 -10.26612 -10.26468 -10.26152 -10.26067
 Alpha  occ. eigenvalues --  -10.25909 -10.25634 -10.25354 -10.25080 -10.24774
 Alpha  occ. eigenvalues --  -10.24708 -10.24245 -10.23361 -10.23337  -1.19727
 Alpha  occ. eigenvalues --   -1.12611  -1.09502  -1.06543  -0.94124  -0.92789
 Alpha  occ. eigenvalues --   -0.92203  -0.91666  -0.90796  -0.90143  -0.88028
 Alpha  occ. eigenvalues --   -0.87655  -0.86159  -0.85638  -0.84890  -0.83466
 Alpha  occ. eigenvalues --   -0.81526  -0.80802  -0.79336  -0.78356  -0.77508
 Alpha  occ. eigenvalues --   -0.76528  -0.76433  -0.76180  -0.75183  -0.75123
 Alpha  occ. eigenvalues --   -0.74841  -0.74296  -0.72924  -0.71324  -0.70200
 Alpha  occ. eigenvalues --   -0.69120  -0.66955  -0.65788  -0.64972  -0.64801
 Alpha  occ. eigenvalues --   -0.63912  -0.62265  -0.61242  -0.59577  -0.59404
 Alpha  occ. eigenvalues --   -0.59062  -0.58491  -0.58308  -0.57759  -0.56226
 Alpha  occ. eigenvalues --   -0.55632  -0.55176  -0.54954  -0.54827  -0.54789
 Alpha  occ. eigenvalues --   -0.53246  -0.53215  -0.52929  -0.52771  -0.51915
 Alpha  occ. eigenvalues --   -0.51652  -0.51103  -0.50476  -0.50178  -0.49856
 Alpha  occ. eigenvalues --   -0.49292  -0.49130  -0.48650  -0.48299  -0.47705
 Alpha  occ. eigenvalues --   -0.47181  -0.47129  -0.46889  -0.46792  -0.46605
 Alpha  occ. eigenvalues --   -0.46420  -0.46122  -0.46001  -0.45805  -0.45194
 Alpha  occ. eigenvalues --   -0.44859  -0.44712  -0.44367  -0.44096  -0.43971
 Alpha  occ. eigenvalues --   -0.43485  -0.43233  -0.43066  -0.42551  -0.42376
 Alpha  occ. eigenvalues --   -0.42197  -0.42060  -0.41820  -0.41568  -0.41518
 Alpha  occ. eigenvalues --   -0.41032  -0.40829  -0.40169  -0.40025  -0.39916
 Alpha  occ. eigenvalues --   -0.39892  -0.39137  -0.39050  -0.38992  -0.38607
 Alpha  occ. eigenvalues --   -0.37899  -0.37653  -0.37367  -0.37178  -0.37092
 Alpha  occ. eigenvalues --   -0.36711  -0.36222  -0.35973  -0.35125  -0.34544
 Alpha  occ. eigenvalues --   -0.33311  -0.32924  -0.32427  -0.31544  -0.30835
 Alpha  occ. eigenvalues --   -0.29372  -0.28001  -0.24099  -0.18785
 Alpha virt. eigenvalues --   -0.07402  -0.01858   0.02423   0.04293   0.06685
 Alpha virt. eigenvalues --    0.07630   0.10802   0.11098   0.11194   0.11625
 Alpha virt. eigenvalues --    0.12118   0.12635   0.13193   0.13479   0.13732

 Mulliken charges:
               1
     1  O   -0.474594
     2  O   -0.546574
     3  O   -0.551621
     4  O   -0.521220
     5  C    0.180732
     6  C    0.293602
     7  C    0.002632
     8  C   -0.253141
     9  C   -0.195612
    10  C    0.167866
    11  C   -0.330647
    12  C   -0.129944
    13  C   -0.274217
    14  C   -0.292503
    15  C   -0.066950
    16  C    0.094151
    17  C   -0.355721
    18  C   -0.104337
    19  C   -0.058857
    20  C    0.021566
    21  C    0.231809
    22  C   -0.204997
    23  C    0.160914
    24  C   -0.199584
    25  C   -0.041950
    26  C   -0.289363
    27  C   -0.292580
    28  C   -0.299121
    29  C   -0.145896
    30  C    0.162088
    31  C    0.101772
    32  C   -0.310592
    33  C   -0.376431
    34  C   -0.109162
    35  C    0.098300
    36  C   -0.348739
    37  C   -0.138075
    38  C   -0.082560
    39  C   -0.056497
    40  C   -0.084479
    41  C   -0.150405
    42  C   -0.108694
    43  C    0.158518
    44  C   -0.380623
    45  H    0.093519
    46  H    0.096201
    47  H    0.086874
    48  H    0.103565
    49  H    0.088043
    50  H    0.083930
    51  H    0.118057
    52  H    0.110685
    53  H    0.128930
    54  H    0.078785
    55  H    0.117844
    56  H    0.094656
    57  H    0.124183
    58  H    0.105678
    59  H    0.078115
    60  H    0.307281
    61  H    0.091318
    62  H    0.101935
    63  H    0.123467
    64  H    0.081180
    65  H    0.069777
    66  H    0.077531
    67  H    0.086205
    68  H    0.106696
    69  H    0.084610
    70  H    0.096171
    71  H    0.116241
    72  H    0.074389
    73  H    0.111886
    74  H    0.110204
    75  H    0.117099
    76  H    0.112709
    77  H    0.076243
    78  H    0.129761
    79  H    0.094755
    80  H    0.106648
    81  H    0.089423
    82  H    0.275584
    83  H    0.292343
    84  H    0.103040
    85  H    0.126323
    86  H    0.110320
    87  H    0.102587
    88  H    0.067569
    89  H    0.115948
    90  H    0.137311
    91  H    0.112574
    92  H    0.093263
    93  H    0.083792
    94  H    0.076305
    95  H    0.089066
    96  H    0.047740
    97  H    0.081565
    98  H    0.091149
    99  H    0.098501
   100  H    0.122164
 Sum of Mulliken charges =  -0.00000

 Dipole moment (field-independent basis, Debye):
    X=              2.1327    Y=             -0.9367    Z=              1.6322  Tot=              2.8443
 Quadrupole moment (field-independent basis, Debye-Ang):
   XX=           -252.8743   YY=           -258.7965   ZZ=           -282.0347
   XY=             -1.5253   XZ=             38.4667   YZ=             -1.7429

 Normal termination of Gaussian 16 at Tue Jul 30 23:57:35 2019.
