 Gaussian 16, Revision A.03,
 Gaussian 16:  ES64L-G16RevA.03 25-Dec-2016

 -------------------------------------
 # td=(NStates=1) CAM-B3LYP/6-31G(d,p)
 -------------------------------------

 --
 TD
 --
 Symbolic Z-matrix:
 Charge =  0 Multiplicity = 1

                         Standard orientation:
 ---------------------------------------------------------------------
 Center     Atomic      Atomic             Coordinates (Angstroms)
 Number     Number       Type             X           Y           Z
 ---------------------------------------------------------------------
      1          8           0      -11.780758    0.195975   -1.528365
      2          8           0      -13.181663   -2.170971    1.600178
      3          8           0       10.793732   -1.183961   -2.175573
      4          8           0       14.577949   -0.888648   -0.128191
      5          6           0      -11.084302   -0.133140   -0.351292
      6          6           0      -11.734817   -1.197523   -1.289233
      7          6           0      -11.755081    0.486375    0.851371
      8          6           0      -13.096175   -1.645149   -0.836465
      9          6           0      -13.234272    0.245621    0.852395
     10          6           0      -13.498802   -1.271368    0.535698
     11          6           0      -10.916646   -1.998229   -2.148566
     12          6           0       -9.568093    0.061323   -0.454926
     13          6           0      -11.121858    0.173240    2.145707
     14          6           0      -11.501535    2.049176    0.763063
     15          6           0       -8.729103   -0.857751    0.011142
     16          6           0       -7.215797   -0.728630    0.227695
     17          6           0       -6.357020   -1.909232    0.496180
     18          6           0       -6.653137    0.568826   -0.124763
     19          6           0       -5.242335    0.740623   -0.057230
     20          6           0       11.911804    0.289623    1.296882
     21          6           0       11.706124   -0.660790   -1.278271
     22          6           0       12.731975   -0.991033    1.616473
     23          6           0       13.426652   -1.618930    0.370642
     24          6           0       12.415567   -1.829397   -0.775690
     25          6           0       11.126363    0.104653   -0.046667
     26          6           0       11.053346    0.502516    2.529941
     27          6           0       12.836452    1.415012    1.088943
     28          6           0       12.504152    0.412859   -2.040975
     29          6           0       -4.693902    1.908231   -0.311630
     30          6           0        9.874392    0.349751   -0.097202
     31          6           0       -3.340251    2.342589   -0.502417
     32          6           0        8.548234    0.862308   -0.220787
     33          6           0       -3.029793    3.738250   -0.938939
     34          6           0       -2.328589    1.459520   -0.220452
     35          6           0        7.439559    0.002808   -0.111408
     36          6           0        7.604282   -1.403979    0.264157
     37          6           0        6.150042    0.672947   -0.163051
     38          6           0       -0.946304    1.741881   -0.367037
     39          6           0        4.950819    0.040458   -0.006562
     40          6           0       -0.017648    0.799067   -0.018598
     41          6           0        3.711085    0.790340   -0.130699
     42          6           0        1.348375    0.996210   -0.201081
     43          6           0        2.448296    0.189124    0.065106
     44          6           0        2.421341   -1.203488    0.691622
     45          1           0      -12.846356   -2.649876   -0.699843
     46          1           0      -13.903254   -1.261944   -1.497383
     47          1           0      -13.584353    0.502609    1.770936
     48          1           0      -13.945447    0.853661    0.253609
     49          1           0      -14.640300   -1.520319    0.799980
     50          1           0      -10.416562   -2.763360   -1.461358
     51          1           0      -11.500684   -2.672706   -2.798508
     52          1           0      -10.202347   -1.295976   -2.653544
     53          1           0       -9.168377    0.864727   -0.969464
     54          1           0       -9.979607    0.231105    2.002025
     55          1           0      -11.466133    1.148931    2.855602
     56          1           0      -11.361811   -0.973274    2.555453
     57          1           0      -11.746626    2.364074   -0.230651
     58          1           0      -12.023204    2.600276    1.504602
     59          1           0      -10.474502    2.390114    0.816540
     60          1           0      -12.214191   -2.250981    1.508076
     61          1           0       -8.919841   -1.804504    0.489859
     62          1           0       -5.903956   -2.506254   -0.344639
     63          1           0       -5.517065   -1.445397    1.186325
     64          1           0       -7.008048   -2.852148    0.987435
     65          1           0       -7.182575    1.414428   -0.401211
     66          1           0       -4.705142   -0.248554    0.029419
     67          1           0       13.364307   -0.919646    2.453971
     68          1           0       12.066843   -1.692257    2.011452
     69          1           0       13.722886   -2.610279    0.706447
     70          1           0       12.927384   -2.278308   -1.577336
     71          1           0       11.941089   -2.585933   -0.348221
     72          1           0       11.642885    0.329008    3.614853
     73          1           0       10.433249    1.365828    2.651303
     74          1           0       10.135755   -0.181377    2.741579
     75          1           0       13.458424    1.391110    0.292529
     76          1           0       12.305380    2.469189    1.231820
     77          1           0       13.600074    1.445231    2.017557
     78          1           0       13.210746   -0.158131   -2.912012
     79          1           0       11.861219    1.079508   -2.642886
     80          1           0       13.231681    0.696344   -1.391838
     81          1           0       -5.322664    2.857916   -0.446926
     82          1           0       10.019904   -0.463544   -1.864990
     83          1           0       15.086000   -0.792401    0.665661
     84          1           0        8.541056    1.968287   -0.421258
     85          1           0       -2.115510    4.047294   -0.300024
     86          1           0       -2.516267    3.622623   -1.993084
     87          1           0       -3.904433    4.472993   -1.056159
     88          1           0       -2.365395    0.430078    0.041504
     89          1           0        6.599609   -1.920356    0.104756
     90          1           0        8.301179   -1.942060   -0.387103
     91          1           0        7.950827   -1.670201    1.253583
     92          1           0        6.197154    1.979935   -0.015335
     93          1           0       -0.650606    2.727441   -0.640878
     94          1           0        4.873525   -1.109061    0.112706
     95          1           0       -0.395177   -0.167232    0.545217
     96          1           0        3.648144    1.930661   -0.643843
     97          1           0        1.582840    1.898355   -0.747275
     98          1           0        1.365645   -1.500036    0.805683
     99          1           0        2.729419   -2.052437    0.048837
    100          1           0        3.048734   -1.380501    1.563619
 ---------------------------------------------------------------------

 SCF Done:  E(RCAM-B3LYP) =  -1857.27164062     A.U. after   16 cycles

 Excitation energies and oscillator strengths:

 Excited State   1:      Singlet-A      1.9936 eV  621.92 nm  f=3.3993  <S**2>=0.000
     163 ->166        -0.14675
     164 ->165         0.69330
 This state for optimization and/or second-order correction.
 Total Energy, E(TD-HF/TD-DFT) =  -1857.19837768
 Copying the excited state density for this state as the 1-particle RhoCI density.

 The electronic state is 1-A.
 Alpha  occ. eigenvalues --  -19.21830 -19.21550 -19.21437 -19.20339 -10.31722
 Alpha  occ. eigenvalues --  -10.31667 -10.30868 -10.30768 -10.30607 -10.29221
 Alpha  occ. eigenvalues --  -10.29085 -10.29040 -10.28843 -10.28693 -10.28678
 Alpha  occ. eigenvalues --  -10.28484 -10.28300 -10.28152 -10.27859 -10.27749
 Alpha  occ. eigenvalues --  -10.27704 -10.27281 -10.27098 -10.26935 -10.26916
 Alpha  occ. eigenvalues --  -10.26829 -10.26804 -10.26752 -10.26741 -10.26650
 Alpha  occ. eigenvalues --  -10.26549 -10.26537 -10.26301 -10.26281 -10.26020
 Alpha  occ. eigenvalues --  -10.25936 -10.25736 -10.25318 -10.25242 -10.25133
 Alpha  occ. eigenvalues --  -10.23836 -10.23692 -10.23549 -10.22742  -1.16123
 Alpha  occ. eigenvalues --   -1.09966  -1.09779  -1.09109  -0.93604  -0.93028
 Alpha  occ. eigenvalues --   -0.92054  -0.91585  -0.91075  -0.90131  -0.88064
 Alpha  occ. eigenvalues --   -0.87801  -0.86510  -0.86090  -0.85318  -0.83489
 Alpha  occ. eigenvalues --   -0.82780  -0.81631  -0.80363  -0.79138  -0.77509
 Alpha  occ. eigenvalues --   -0.77210  -0.76744  -0.76482  -0.76206  -0.76009
 Alpha  occ. eigenvalues --   -0.74978  -0.73511  -0.72461  -0.69897  -0.69278
 Alpha  occ. eigenvalues --   -0.68356  -0.66973  -0.65705  -0.64619  -0.64185
 Alpha  occ. eigenvalues --   -0.63507  -0.62683  -0.61630  -0.60179  -0.59109
 Alpha  occ. eigenvalues --   -0.58963  -0.58475  -0.58192  -0.57481  -0.57450
 Alpha  occ. eigenvalues --   -0.56712  -0.56013  -0.55845  -0.55739  -0.55051
 Alpha  occ. eigenvalues --   -0.54204  -0.53237  -0.52670  -0.51961  -0.51489
 Alpha  occ. eigenvalues --   -0.51212  -0.50903  -0.50385  -0.50017  -0.49916
 Alpha  occ. eigenvalues --   -0.49271  -0.49245  -0.48901  -0.48488  -0.48404
 Alpha  occ. eigenvalues --   -0.48196  -0.48142  -0.47751  -0.47312  -0.47147
 Alpha  occ. eigenvalues --   -0.46544  -0.46453  -0.46020  -0.45734  -0.45337
 Alpha  occ. eigenvalues --   -0.45223  -0.44804  -0.44758  -0.44263  -0.43845
 Alpha  occ. eigenvalues --   -0.43781  -0.43670  -0.43303  -0.43015  -0.42908
 Alpha  occ. eigenvalues --   -0.42192  -0.42009  -0.41982  -0.41725  -0.41154
 Alpha  occ. eigenvalues --   -0.41001  -0.40891  -0.40583  -0.40536  -0.40242
 Alpha  occ. eigenvalues --   -0.39919  -0.39765  -0.39276  -0.39168  -0.38889
 Alpha  occ. eigenvalues --   -0.38402  -0.38187  -0.38073  -0.37742  -0.37667
 Alpha  occ. eigenvalues --   -0.36128  -0.35704  -0.35367  -0.34596  -0.33365
 Alpha  occ. eigenvalues --   -0.32827  -0.32211  -0.31812  -0.31573  -0.30238
 Alpha  occ. eigenvalues --   -0.29782  -0.27976  -0.23848  -0.19412
 Alpha virt. eigenvalues --   -0.07036  -0.02082   0.02174   0.06102   0.07254
 Alpha virt. eigenvalues --    0.09197   0.09507   0.10145   0.10857   0.11212
 Alpha virt. eigenvalues --    0.11600   0.11958   0.12197   0.12970   0.13434

 Mulliken charges:
               1
     1  O   -0.502687
     2  O   -0.535515
     3  O   -0.570115
     4  O   -0.538653
     5  C    0.182841
     6  C    0.239361
     7  C    0.029975
     8  C   -0.172082
     9  C   -0.161307
    10  C    0.112853
    11  C   -0.339166
    12  C   -0.131059
    13  C   -0.274857
    14  C   -0.336009
    15  C   -0.043253
    16  C    0.030727
    17  C   -0.365027
    18  C   -0.075016
    19  C   -0.064136
    20  C    0.056078
    21  C    0.246531
    22  C   -0.207948
    23  C    0.105726
    24  C   -0.151072
    25  C   -0.078017
    26  C   -0.317589
    27  C   -0.285009
    28  C   -0.275249
    29  C   -0.124278
    30  C    0.010534
    31  C    0.095431
    32  C   -0.194384
    33  C   -0.383454
    34  C   -0.099147
    35  C    0.099364
    36  C   -0.371526
    37  C   -0.083049
    38  C   -0.077621
    39  C   -0.115376
    40  C   -0.091985
    41  C   -0.129567
    42  C   -0.137491
    43  C    0.141479
    44  C   -0.387404
    45  H    0.100412
    46  H    0.129765
    47  H    0.104330
    48  H    0.101026
    49  H    0.082636
    50  H    0.105113
    51  H    0.116572
    52  H    0.136158
    53  H    0.103738
    54  H    0.110611
    55  H    0.077700
    56  H    0.065049
    57  H    0.120093
    58  H    0.107754
    59  H    0.100192
    60  H    0.282999
    61  H    0.064793
    62  H    0.134770
    63  H    0.121379
    64  H    0.083359
    65  H    0.086113
    66  H    0.091756
    67  H    0.094285
    68  H    0.109029
    69  H    0.079618
    70  H    0.118922
    71  H    0.108578
    72  H    0.075028
    73  H    0.114141
    74  H    0.095350
    75  H    0.140911
    76  H    0.089233
    77  H    0.062570
    78  H    0.064013
    79  H    0.105377
    80  H    0.127156
    81  H    0.064443
    82  H    0.296605
    83  H    0.303224
    84  H    0.124349
    85  H    0.126016
    86  H    0.120960
    87  H    0.116820
    88  H    0.078884
    89  H    0.096699
    90  H    0.132797
    91  H    0.134457
    92  H    0.074520
    93  H    0.081246
    94  H    0.101593
    95  H    0.083242
    96  H    0.080182
    97  H    0.081385
    98  H    0.105295
    99  H    0.121892
   100  H    0.133008
 Sum of Mulliken charges =  -0.00000

 Dipole moment (field-independent basis, Debye):
    X=              1.5718    Y=              0.0736    Z=              2.4882  Tot=              2.9440
 Quadrupole moment (field-independent basis, Debye-Ang):
   XX=           -327.8429   YY=           -256.0607   ZZ=           -283.5680
   XY=             -2.5020   XZ=             57.4021   YZ=             -5.1444

 Normal termination of Gaussian 16 at Tue Jul 30 11:42:54 2019.
