 Gaussian 16, Revision A.03,
 Gaussian 16:  ES64L-G16RevA.03 25-Dec-2016

 -------------------------------------
 # td=(NStates=1) CAM-B3LYP/6-31G(d,p)
 -------------------------------------

 --
 TD
 --
 Symbolic Z-matrix:
 Charge =  0 Multiplicity = 1

                         Standard orientation:
 ---------------------------------------------------------------------
 Center     Atomic      Atomic             Coordinates (Angstroms)
 Number     Number       Type             X           Y           Z
 ---------------------------------------------------------------------
      1          8           0      -11.800445    0.285018   -1.519193
      2          8           0      -12.843025   -2.623638    1.380155
      3          8           0       10.474221   -1.366342   -1.985855
      4          8           0       14.467751   -1.137022   -0.087306
      5          6           0      -11.037030   -0.146966   -0.327642
      6          6           0      -11.654811   -1.222816   -1.269742
      7          6           0      -11.833958    0.315393    0.993259
      8          6           0      -13.041793   -1.793641   -0.932119
      9          6           0      -13.263853   -0.064922    0.946620
     10          6           0      -13.430650   -1.598224    0.573771
     11          6           0      -10.791284   -1.911913   -2.350415
     12          6           0       -9.613646    0.139641   -0.322558
     13          6           0      -11.106768   -0.160639    2.275673
     14          6           0      -11.596288    1.831466    0.967070
     15          6           0       -8.677770   -0.708596    0.069631
     16          6           0       -7.241058   -0.541783    0.087444
     17          6           0       -6.337048   -1.739469    0.409118
     18          6           0       -6.611082    0.639631   -0.120975
     19          6           0       -5.232344    0.869151   -0.063730
     20          6           0       11.974602    0.205395    1.259475
     21          6           0       11.662252   -0.840014   -1.260169
     22          6           0       12.728551   -1.153046    1.622113
     23          6           0       13.371758   -1.832101    0.359326
     24          6           0       12.470575   -1.953227   -0.760206
     25          6           0       11.111716    0.052780   -0.016588
     26          6           0       11.131673    0.530281    2.547022
     27          6           0       12.980091    1.388043    0.978029
     28          6           0       12.442032    0.019029   -2.205249
     29          6           0       -4.702465    2.150017   -0.359675
     30          6           0        9.860134    0.512249   -0.048776
     31          6           0       -3.383246    2.579551   -0.465331
     32          6           0        8.626631    0.976516   -0.271787
     33          6           0       -3.118896    3.962062   -0.886075
     34          6           0       -2.399513    1.668676   -0.239628
     35          6           0        7.456446    0.235058    0.078735
     36          6           0        7.668850   -1.282163    0.416815
     37          6           0        6.167444    0.720081   -0.062004
     38          6           0       -0.966109    1.897100   -0.374598
     39          6           0        4.958672    0.105558    0.060902
     40          6           0        0.003238    1.122686   -0.001056
     41          6           0        3.753910    0.879136   -0.232967
     42          6           0        1.451037    1.284374   -0.205204
     43          6           0        2.520619    0.384112    0.014215
     44          6           0        2.158798   -1.003966    0.600798
     45          1           0      -13.121345   -2.832597   -1.063127
     46          1           0      -13.745370   -1.152996   -1.541033
     47          1           0      -13.497654   -0.057102    1.984115
     48          1           0      -14.065163    0.401659    0.316593
     49          1           0      -14.526614   -1.713397    0.682818
     50          1           0      -10.400879   -2.742116   -2.041597
     51          1           0      -11.533919   -2.047152   -3.254067
     52          1           0      -10.064306   -1.098252   -2.684735
     53          1           0       -9.248954    1.067540   -0.537667
     54          1           0      -10.096512    0.167403    2.250987
     55          1           0      -11.734996    0.066458    3.066852
     56          1           0      -11.005128   -1.237945    2.273788
     57          1           0      -12.213413    2.419980    0.106802
     58          1           0      -12.068274    2.308705    1.888629
     59          1           0      -10.453101    2.179624    0.989374
     60          1           0      -11.852773   -2.563278    1.128398
     61          1           0       -8.893219   -1.417965    0.597168
     62          1           0       -5.570552   -2.017867   -0.248832
     63          1           0       -5.823544   -1.723254    1.647380
     64          1           0       -6.961427   -2.828658    0.474619
     65          1           0       -7.261666    1.423559   -0.478462
     66          1           0       -4.432227    0.099992    0.253980
     67          1           0       13.689762   -1.057939    2.339388
     68          1           0       12.114640   -1.860042    2.251958
     69          1           0       13.561835   -2.872773    0.778843
     70          1           0       12.930393   -2.520761   -1.527549
     71          1           0       11.716422   -2.808009   -0.648216
     72          1           0       11.914686    0.617490    3.358699
     73          1           0       10.679801    1.490249    2.698868
     74          1           0       10.149591   -0.185128    2.743358
     75          1           0       13.678083    1.218125   -0.038293
     76          1           0       12.385446    2.358817    0.869429
     77          1           0       13.627901    1.628873    1.822755
     78          1           0       12.681078   -0.615941   -3.142671
     79          1           0       11.913860    0.938648   -2.643494
     80          1           0       13.427736    0.198474   -1.773262
     81          1           0       -5.514691    2.819221   -0.433158
     82          1           0       10.045549   -0.602891   -2.523440
     83          1           0       14.962728   -0.937771    0.775350
     84          1           0        8.471187    1.993685   -0.573646
     85          1           0       -2.643730    4.441022   -0.183937
     86          1           0       -2.642707    3.951309   -2.022473
     87          1           0       -3.990641    4.415927   -0.958156
     88          1           0       -2.533261    0.662526   -0.163372
     89          1           0        6.698534   -1.684574   -0.280610
     90          1           0        8.578230   -1.547773   -0.079858
     91          1           0        7.568703   -1.374368    1.489260
     92          1           0        6.111409    1.772979   -0.446565
     93          1           0       -0.904607    3.121161   -0.406196
     94          1           0        4.822314   -0.969902    0.363605
     95          1           0       -0.193205    0.234632    0.312976
     96          1           0        4.154444    1.982070   -0.511569
     97          1           0        1.838381    2.196090   -0.533824
     98          1           0        1.055726   -1.169841    0.506072
     99          1           0        2.511060   -1.785930   -0.081313
    100          1           0        2.559868   -1.101113    1.645514
 ---------------------------------------------------------------------

 SCF Done:  E(RCAM-B3LYP) =  -1857.26530527     A.U. after   15 cycles

 Excitation energies and oscillator strengths:

 Excited State   1:      Singlet-A      2.1356 eV  580.55 nm  f=3.2601  <S**2>=0.000
     163 ->166        -0.15748
     164 ->165         0.68627
 This state for optimization and/or second-order correction.
 Total Energy, E(TD-HF/TD-DFT) =  -1857.18682221
 Copying the excited state density for this state as the 1-particle RhoCI density.

 The electronic state is 1-A.
 Alpha  occ. eigenvalues --  -19.23527 -19.22504 -19.21627 -19.21243 -10.32901
 Alpha  occ. eigenvalues --  -10.32528 -10.31898 -10.31551 -10.30773 -10.29895
 Alpha  occ. eigenvalues --  -10.28754 -10.27987 -10.27843 -10.27633 -10.27529
 Alpha  occ. eigenvalues --  -10.27427 -10.27315 -10.27214 -10.27115 -10.27029
 Alpha  occ. eigenvalues --  -10.26943 -10.26871 -10.26841 -10.26786 -10.26703
 Alpha  occ. eigenvalues --  -10.26551 -10.26466 -10.26321 -10.26111 -10.25913
 Alpha  occ. eigenvalues --  -10.25898 -10.25731 -10.25656 -10.25588 -10.25376
 Alpha  occ. eigenvalues --  -10.25321 -10.25224 -10.25210 -10.25150 -10.25022
 Alpha  occ. eigenvalues --  -10.24674 -10.24617 -10.24556 -10.23830  -1.12597
 Alpha  occ. eigenvalues --   -1.10230  -1.08827  -1.07097  -0.93064  -0.92213
 Alpha  occ. eigenvalues --   -0.92041  -0.91573  -0.90542  -0.90162  -0.87859
 Alpha  occ. eigenvalues --   -0.87152  -0.86487  -0.85378  -0.84860  -0.82617
 Alpha  occ. eigenvalues --   -0.82210  -0.80760  -0.80000  -0.78819  -0.76879
 Alpha  occ. eigenvalues --   -0.76652  -0.76331  -0.76195  -0.75815  -0.75507
 Alpha  occ. eigenvalues --   -0.74975  -0.73884  -0.73118  -0.70257  -0.69777
 Alpha  occ. eigenvalues --   -0.69046  -0.67273  -0.66023  -0.64876  -0.63590
 Alpha  occ. eigenvalues --   -0.63442  -0.62545  -0.60947  -0.60028  -0.59685
 Alpha  occ. eigenvalues --   -0.59126  -0.58734  -0.57490  -0.56994  -0.56967
 Alpha  occ. eigenvalues --   -0.56606  -0.55106  -0.54902  -0.54487  -0.53600
 Alpha  occ. eigenvalues --   -0.53241  -0.52685  -0.52454  -0.52287  -0.52016
 Alpha  occ. eigenvalues --   -0.51792  -0.51140  -0.50642  -0.50233  -0.49844
 Alpha  occ. eigenvalues --   -0.49684  -0.49553  -0.49327  -0.48998  -0.48568
 Alpha  occ. eigenvalues --   -0.48454  -0.47828  -0.47692  -0.47551  -0.47210
 Alpha  occ. eigenvalues --   -0.46807  -0.46391  -0.46101  -0.45640  -0.45438
 Alpha  occ. eigenvalues --   -0.44374  -0.44215  -0.44066  -0.43868  -0.43485
 Alpha  occ. eigenvalues --   -0.43425  -0.42794  -0.42589  -0.42263  -0.42223
 Alpha  occ. eigenvalues --   -0.42060  -0.41950  -0.41666  -0.41468  -0.41326
 Alpha  occ. eigenvalues --   -0.40921  -0.40200  -0.40040  -0.39952  -0.39871
 Alpha  occ. eigenvalues --   -0.39768  -0.39333  -0.39037  -0.38865  -0.38787
 Alpha  occ. eigenvalues --   -0.38191  -0.38089  -0.37789  -0.37505  -0.37182
 Alpha  occ. eigenvalues --   -0.36636  -0.36162  -0.35464  -0.34271  -0.34094
 Alpha  occ. eigenvalues --   -0.33165  -0.32318  -0.31668  -0.31579  -0.30352
 Alpha  occ. eigenvalues --   -0.29732  -0.28673  -0.23404  -0.19413
 Alpha virt. eigenvalues --   -0.06043  -0.01743   0.03635   0.06263   0.06650
 Alpha virt. eigenvalues --    0.09296   0.09601   0.09838   0.11442   0.11601
 Alpha virt. eigenvalues --    0.12012   0.12798   0.13151   0.13375   0.13935

 Mulliken charges:
               1
     1  O   -0.529646
     2  O   -0.540045
     3  O   -0.582038
     4  O   -0.520213
     5  C    0.224813
     6  C    0.180298
     7  C    0.029521
     8  C   -0.204131
     9  C   -0.184589
    10  C    0.126170
    11  C   -0.313169
    12  C   -0.115920
    13  C   -0.302553
    14  C   -0.299894
    15  C   -0.021663
    16  C    0.066772
    17  C   -0.351493
    18  C   -0.112483
    19  C   -0.058981
    20  C    0.037077
    21  C    0.281516
    22  C   -0.200466
    23  C    0.161439
    24  C   -0.211438
    25  C   -0.080345
    26  C   -0.309132
    27  C   -0.308620
    28  C   -0.316633
    29  C   -0.132802
    30  C    0.140296
    31  C    0.094066
    32  C   -0.252038
    33  C   -0.350291
    34  C   -0.110249
    35  C    0.066476
    36  C   -0.354850
    37  C   -0.103511
    38  C   -0.079281
    39  C   -0.089297
    40  C   -0.057354
    41  C   -0.135556
    42  C   -0.126562
    43  C    0.109665
    44  C   -0.369631
    45  H    0.112006
    46  H    0.123556
    47  H    0.101114
    48  H    0.112853
    49  H    0.094633
    50  H    0.121518
    51  H    0.102520
    52  H    0.129632
    53  H    0.094098
    54  H    0.118274
    55  H    0.117386
    56  H    0.080769
    57  H    0.101675
    58  H    0.088033
    59  H    0.088782
    60  H    0.306951
    61  H    0.046890
    62  H    0.141141
    63  H    0.070687
    64  H    0.068214
    65  H    0.082988
    66  H    0.090837
    67  H    0.053827
    68  H    0.110879
    69  H    0.071073
    70  H    0.123118
    71  H    0.117872
    72  H    0.092792
    73  H    0.111232
    74  H    0.092759
    75  H    0.104752
    76  H    0.102827
    77  H    0.096268
    78  H    0.099873
    79  H    0.090046
    80  H    0.136944
    81  H    0.075011
    82  H    0.314993
    83  H    0.311834
    84  H    0.105314
    85  H    0.137597
    86  H    0.112116
    87  H    0.115334
    88  H    0.073747
    89  H    0.085808
    90  H    0.147751
    91  H    0.126162
    92  H    0.062768
    93  H    0.060285
    94  H    0.094231
    95  H    0.056333
    96  H    0.091923
    97  H    0.071782
    98  H    0.111789
    99  H    0.123198
   100  H    0.129970
 Sum of Mulliken charges =  -0.00000

 Dipole moment (field-independent basis, Debye):
    X=              4.4863    Y=              0.4993    Z=              1.5690  Tot=              4.7789
 Quadrupole moment (field-independent basis, Debye-Ang):
   XX=           -264.0259   YY=           -264.1964   ZZ=           -273.9031
   XY=              2.3322   XZ=             22.2020   YZ=             -1.0772

 Normal termination of Gaussian 16 at Thu Aug  1 20:47:35 2019.
