 Gaussian 16, Revision A.03,
 Gaussian 16:  ES64L-G16RevA.03 25-Dec-2016

 -------------------------------------
 # td=(NStates=1) CAM-B3LYP/6-31G(d,p)
 -------------------------------------

 --
 TD
 --
 Symbolic Z-matrix:
 Charge =  0 Multiplicity = 1

                         Standard orientation:
 ---------------------------------------------------------------------
 Center     Atomic      Atomic             Coordinates (Angstroms)
 Number     Number       Type             X           Y           Z
 ---------------------------------------------------------------------
      1          8           0      -11.759217    0.149403   -1.487410
      2          8           0      -12.984507   -2.155977    1.799281
      3          8           0       10.438814   -0.865485   -2.089512
      4          8           0       14.324234   -1.076141   -0.102192
      5          6           0      -10.966908   -0.119284   -0.336324
      6          6           0      -11.731283   -1.168734   -1.100585
      7          6           0      -11.630367    0.551041    0.957736
      8          6           0      -13.100695   -1.783121   -0.673316
      9          6           0      -13.125999    0.186433    1.040821
     10          6           0      -13.529404   -1.314130    0.690928
     11          6           0      -10.965331   -2.182453   -2.094583
     12          6           0       -9.428687    0.037333   -0.464028
     13          6           0      -10.914231   -0.021642    2.263188
     14          6           0      -11.542653    2.125185    0.886958
     15          6           0       -8.549076   -0.805343   -0.018592
     16          6           0       -7.132323   -0.724998   -0.098036
     17          6           0       -6.266881   -1.898178    0.237995
     18          6           0       -6.582051    0.505832   -0.367412
     19          6           0       -5.259274    0.786427   -0.408947
     20          6           0       11.908263    0.027915    1.339436
     21          6           0       11.553356   -0.549212   -1.288329
     22          6           0       12.506124   -1.355842    1.544391
     23          6           0       13.192023   -1.859826    0.249914
     24          6           0       12.240443   -1.947632   -0.898138
     25          6           0       11.043426    0.167469    0.092252
     26          6           0       10.882511    0.294965    2.522462
     27          6           0       12.861334    1.166955    1.406577
     28          6           0       12.525851    0.381835   -2.024691
     29          6           0       -4.656306    2.035866   -0.600740
     30          6           0        9.891165    0.738076    0.044492
     31          6           0       -3.321610    2.439117   -0.633174
     32          6           0        8.687778    1.136359   -0.056069
     33          6           0       -3.176290    3.966765   -0.631447
     34          6           0       -2.262509    1.514852   -0.514076
     35          6           0        7.527145    0.118018   -0.018956
     36          6           0        7.817915   -1.305752    0.105117
     37          6           0        6.293143    0.739135    0.055165
     38          6           0       -0.948715    1.857840   -0.457643
     39          6           0        4.969399    0.094181    0.161096
     40          6           0        0.041765    0.805323   -0.224194
     41          6           0        3.792208    0.869880    0.212808
     42          6           0        1.443331    1.152901   -0.001654
     43          6           0        2.517156    0.231634    0.078117
     44          6           0        2.367515   -1.185973    0.101383
     45          1           0      -13.139067   -3.033734   -0.598586
     46          1           0      -13.812950   -1.360645   -1.556058
     47          1           0      -13.644705    0.509800    2.003690
     48          1           0      -13.849743    0.778922    0.312901
     49          1           0      -14.573985   -1.407756    0.906916
     50          1           0      -10.982134   -3.204384   -1.381836
     51          1           0      -11.705719   -2.328043   -2.987727
     52          1           0      -10.106234   -1.744206   -2.624633
     53          1           0       -9.107127    0.740200   -1.144568
     54          1           0       -9.880075   -0.029488    2.339407
     55          1           0      -11.424314    0.474338    3.214949
     56          1           0      -10.912000   -1.092711    2.293979
     57          1           0      -11.913409    2.536878   -0.117403
     58          1           0      -12.195292    2.539766    1.597453
     59          1           0      -10.530773    2.322230    0.592016
     60          1           0      -12.161670   -2.456254    1.605877
     61          1           0       -8.969843   -1.939138    0.284607
     62          1           0       -5.584122   -2.098048   -0.637224
     63          1           0       -5.721785   -1.858291    1.296601
     64          1           0       -7.035350   -2.705345    0.289215
     65          1           0       -7.291659    1.294783   -0.513341
     66          1           0       -4.594460   -0.058103   -0.135183
     67          1           0       13.098203   -1.141439    2.518904
     68          1           0       11.638466   -2.052570    1.894499
     69          1           0       13.388199   -2.946335    0.582941
     70          1           0       12.603538   -2.302934   -1.891061
     71          1           0       11.419459   -2.508578   -0.695210
     72          1           0       11.612568    0.321432    3.381924
     73          1           0       10.409290    1.218008    2.512589
     74          1           0       10.180669   -0.593900    2.637120
     75          1           0       13.765044    1.121526    0.660039
     76          1           0       12.406190    2.046665    1.287473
     77          1           0       13.337168    1.334120    2.550288
     78          1           0       13.116764   -0.015843   -2.925166
     79          1           0       12.064279    1.191612   -2.361195
     80          1           0       13.341234    0.748544   -1.455315
     81          1           0       -5.360788    2.953325   -0.681319
     82          1           0        9.717220   -0.156073   -2.067297
     83          1           0       15.115141   -1.118153    0.668252
     84          1           0        8.539489    2.134218   -0.534245
     85          1           0       -2.507775    4.086001    0.153761
     86          1           0       -2.466221    4.260303   -1.536005
     87          1           0       -4.062259    4.551863   -0.661721
     88          1           0       -2.499505    0.400403   -0.387823
     89          1           0        7.015272   -1.724215   -0.457018
     90          1           0        8.737369   -1.436919   -0.353321
     91          1           0        7.645599   -1.621062    1.167240
     92          1           0        6.301999    1.935630   -0.115969
     93          1           0       -0.758195    2.933086   -0.550394
     94          1           0        5.062993   -1.021157    0.057274
     95          1           0       -0.391686   -0.359253   -0.292631
     96          1           0        3.898355    2.077969    0.133794
     97          1           0        1.759682    2.292173   -0.062348
     98          1           0        1.386660   -1.602450    0.617369
     99          1           0        2.351690   -1.671731   -1.040474
    100          1           0        3.288164   -1.884742    0.763243
 ---------------------------------------------------------------------

 SCF Done:  E(RCAM-B3LYP) =  -1857.28026537     A.U. after   16 cycles

 Excitation energies and oscillator strengths:

 Excited State   1:      Singlet-A      1.9289 eV  642.76 nm  f=2.8427  <S**2>=0.000
     163 ->166        -0.11748
     164 ->165         0.70484
     164 <-165        -0.12307
 This state for optimization and/or second-order correction.
 Total Energy, E(TD-HF/TD-DFT) =  -1857.20937795
 Copying the excited state density for this state as the 1-particle RhoCI density.

 The electronic state is 1-A.
 Alpha  occ. eigenvalues --  -19.23657 -19.22841 -19.21301 -19.19206 -10.32996
 Alpha  occ. eigenvalues --  -10.32645 -10.32514 -10.32379 -10.30699 -10.29843
 Alpha  occ. eigenvalues --  -10.29653 -10.28957 -10.28346 -10.28235 -10.28175
 Alpha  occ. eigenvalues --  -10.28061 -10.27909 -10.27900 -10.27694 -10.27551
 Alpha  occ. eigenvalues --  -10.27533 -10.27400 -10.27321 -10.27191 -10.27093
 Alpha  occ. eigenvalues --  -10.27010 -10.26923 -10.26905 -10.26878 -10.26616
 Alpha  occ. eigenvalues --  -10.26504 -10.26277 -10.26169 -10.25972 -10.25666
 Alpha  occ. eigenvalues --  -10.25442 -10.25246 -10.25126 -10.24991 -10.24645
 Alpha  occ. eigenvalues --  -10.24545 -10.24291 -10.24144 -10.22373  -1.17423
 Alpha  occ. eigenvalues --   -1.09128  -1.08552  -1.07924  -0.92992  -0.92971
 Alpha  occ. eigenvalues --   -0.91803  -0.91248  -0.90367  -0.88682  -0.87062
 Alpha  occ. eigenvalues --   -0.85993  -0.85590  -0.85224  -0.84604  -0.82533
 Alpha  occ. eigenvalues --   -0.81797  -0.80978  -0.79372  -0.78234  -0.77261
 Alpha  occ. eigenvalues --   -0.76684  -0.76262  -0.76179  -0.75319  -0.75118
 Alpha  occ. eigenvalues --   -0.74323  -0.73928  -0.72089  -0.70122  -0.69435
 Alpha  occ. eigenvalues --   -0.68399  -0.66540  -0.64918  -0.64175  -0.63831
 Alpha  occ. eigenvalues --   -0.62905  -0.62019  -0.60149  -0.59376  -0.58616
 Alpha  occ. eigenvalues --   -0.58368  -0.57944  -0.57797  -0.57409  -0.56063
 Alpha  occ. eigenvalues --   -0.55748  -0.55135  -0.54973  -0.54126  -0.53626
 Alpha  occ. eigenvalues --   -0.52982  -0.52578  -0.52294  -0.51918  -0.51605
 Alpha  occ. eigenvalues --   -0.51360  -0.50819  -0.50253  -0.49635  -0.49376
 Alpha  occ. eigenvalues --   -0.48858  -0.48797  -0.48621  -0.48338  -0.48332
 Alpha  occ. eigenvalues --   -0.47932  -0.47459  -0.47432  -0.47274  -0.46769
 Alpha  occ. eigenvalues --   -0.46589  -0.46541  -0.45613  -0.45262  -0.44590
 Alpha  occ. eigenvalues --   -0.44351  -0.44014  -0.43757  -0.43442  -0.43347
 Alpha  occ. eigenvalues --   -0.43179  -0.43131  -0.42867  -0.42627  -0.42189
 Alpha  occ. eigenvalues --   -0.42136  -0.41775  -0.41544  -0.41482  -0.41106
 Alpha  occ. eigenvalues --   -0.40388  -0.40150  -0.40041  -0.39923  -0.39883
 Alpha  occ. eigenvalues --   -0.39495  -0.39430  -0.39242  -0.39050  -0.38688
 Alpha  occ. eigenvalues --   -0.38378  -0.37888  -0.37713  -0.37409  -0.36838
 Alpha  occ. eigenvalues --   -0.36303  -0.35978  -0.35655  -0.34643  -0.33746
 Alpha  occ. eigenvalues --   -0.32534  -0.31863  -0.31694  -0.31062  -0.30265
 Alpha  occ. eigenvalues --   -0.29798  -0.28055  -0.24453  -0.18958
 Alpha virt. eigenvalues --   -0.06970  -0.00629   0.03291   0.06890   0.07333
 Alpha virt. eigenvalues --    0.08103   0.09303   0.09604   0.10254   0.11450
 Alpha virt. eigenvalues --    0.11543   0.11978   0.12350   0.12811   0.12878

 Mulliken charges:
               1
     1  O   -0.480860
     2  O   -0.553760
     3  O   -0.584758
     4  O   -0.553250
     5  C    0.173232
     6  C    0.236813
     7  C    0.045012
     8  C   -0.206590
     9  C   -0.186369
    10  C    0.156453
    11  C   -0.312309
    12  C   -0.131855
    13  C   -0.286189
    14  C   -0.314905
    15  C   -0.059639
    16  C    0.070859
    17  C   -0.366722
    18  C   -0.071054
    19  C   -0.082773
    20  C    0.007242
    21  C    0.266005
    22  C   -0.192774
    23  C    0.171471
    24  C   -0.184686
    25  C   -0.096102
    26  C   -0.297894
    27  C   -0.282019
    28  C   -0.296862
    29  C   -0.136841
    30  C    0.186611
    31  C    0.087161
    32  C   -0.311573
    33  C   -0.374590
    34  C   -0.094295
    35  C    0.052976
    36  C   -0.357698
    37  C   -0.093120
    38  C   -0.073958
    39  C   -0.108930
    40  C   -0.116919
    41  C   -0.121951
    42  C   -0.138116
    43  C    0.177105
    44  C   -0.372306
    45  H    0.091993
    46  H    0.111680
    47  H    0.098654
    48  H    0.079354
    49  H    0.106747
    50  H    0.085030
    51  H    0.101150
    52  H    0.125314
    53  H    0.110267
    54  H    0.106928
    55  H    0.089407
    56  H    0.078635
    57  H    0.102723
    58  H    0.116977
    59  H    0.107664
    60  H    0.287430
    61  H    0.057127
    62  H    0.125520
    63  H    0.117828
    64  H    0.102405
    65  H    0.079122
    66  H    0.080071
    67  H    0.088821
    68  H    0.089894
    69  H    0.075732
    70  H    0.119557
    71  H    0.122996
    72  H    0.078143
    73  H    0.121697
    74  H    0.095386
    75  H    0.111909
    76  H    0.119316
    77  H    0.049201
    78  H    0.090072
    79  H    0.098672
    80  H    0.123437
    81  H    0.067061
    82  H    0.315377
    83  H    0.318358
    84  H    0.108170
    85  H    0.140793
    86  H    0.103637
    87  H    0.126332
    88  H    0.081556
    89  H    0.121533
    90  H    0.132411
    91  H    0.128710
    92  H    0.064910
    93  H    0.088314
    94  H    0.092457
    95  H    0.090126
    96  H    0.091045
    97  H    0.086818
    98  H    0.114358
    99  H    0.110651
   100  H    0.081243
 Sum of Mulliken charges =  -0.00000

 Dipole moment (field-independent basis, Debye):
    X=              3.6733    Y=             -0.2845    Z=              0.7305  Tot=              3.7560
 Quadrupole moment (field-independent basis, Debye-Ang):
   XX=           -277.9547   YY=           -256.7449   ZZ=           -283.7860
   XY=             -2.9247   XZ=             35.9599   YZ=             -2.5242

 Normal termination of Gaussian 16 at Tue Jul 30 18:53:31 2019.
