 Gaussian 16, Revision A.03,
 Gaussian 16:  ES64L-G16RevA.03 25-Dec-2016

 -------------------------------------
 # td=(NStates=1) CAM-B3LYP/6-31G(d,p)
 -------------------------------------

 --
 TD
 --
 Symbolic Z-matrix:
 Charge =  0 Multiplicity = 1

                         Standard orientation:
 ---------------------------------------------------------------------
 Center     Atomic      Atomic             Coordinates (Angstroms)
 Number     Number       Type             X           Y           Z
 ---------------------------------------------------------------------
      1          8           0      -11.803061    0.224202   -1.486493
      2          8           0      -13.305659   -2.457269    1.544761
      3          8           0       10.664733   -1.216124   -1.993885
      4          8           0       14.550379   -1.046141   -0.010283
      5          6           0      -11.027955   -0.255928   -0.278156
      6          6           0      -11.739390   -1.172427   -1.235547
      7          6           0      -11.761588    0.343141    1.079250
      8          6           0      -13.161041   -1.723858   -0.846501
      9          6           0      -13.245107    0.039424    0.940207
     10          6           0      -13.620784   -1.424829    0.640616
     11          6           0      -10.979059   -2.044267   -2.147516
     12          6           0       -9.578847    0.026908   -0.391656
     13          6           0      -11.097890   -0.347923    2.320259
     14          6           0      -11.601164    1.889110    1.107842
     15          6           0       -8.602763   -0.856308    0.121945
     16          6           0       -7.247830   -0.596577    0.031411
     17          6           0       -6.253067   -1.677631    0.252496
     18          6           0       -6.637285    0.703859   -0.149360
     19          6           0       -5.250254    0.951035   -0.327477
     20          6           0       11.880313    0.046773    1.455282
     21          6           0       11.703620   -0.738837   -1.105398
     22          6           0       12.745631   -1.265087    1.706064
     23          6           0       13.445757   -1.916370    0.432011
     24          6           0       12.431000   -2.011151   -0.697234
     25          6           0       11.126340    0.009794    0.050764
     26          6           0       11.018184    0.377262    2.632371
     27          6           0       12.873056    1.315686    1.352141
     28          6           0       12.673323    0.090789   -1.947789
     29          6           0       -4.714648    2.209683   -0.296989
     30          6           0        9.958654    0.500037   -0.102399
     31          6           0       -3.317679    2.598731   -0.531424
     32          6           0        8.725967    0.989540   -0.186016
     33          6           0       -3.009580    3.970041   -0.536504
     34          6           0       -2.353485    1.661948   -0.391354
     35          6           0        7.514775    0.236416   -0.139036
     36          6           0        7.686388   -1.182938    0.262422
     37          6           0        6.263962    0.899027   -0.274588
     38          6           0       -0.986277    1.916058   -0.441248
     39          6           0        4.924781    0.245315   -0.207817
     40          6           0        0.027248    0.961104   -0.365549
     41          6           0        3.696575    0.918574   -0.387755
     42          6           0        1.349448    1.097591   -0.433562
     43          6           0        2.450754    0.277183   -0.256806
     44          6           0        2.335186   -1.156758    0.177413
     45          1           0      -13.161962   -2.847893   -1.231060
     46          1           0      -14.089691   -1.069182   -1.362264
     47          1           0      -13.886651    0.323628    1.976333
     48          1           0      -13.767675    0.771920    0.116910
     49          1           0      -14.722121   -1.354235    0.423842
     50          1           0      -10.520076   -2.900113   -1.364191
     51          1           0      -11.542268   -2.588807   -2.955204
     52          1           0      -10.170260   -1.557483   -2.534011
     53          1           0       -9.454528    1.006125   -0.788719
     54          1           0      -10.050125   -0.013351    2.420203
     55          1           0      -11.799372    0.161044    3.187571
     56          1           0      -11.219052   -1.385912    2.284400
     57          1           0      -12.273250    2.536633    0.337314
     58          1           0      -11.892618    2.148727    2.151044
     59          1           0      -10.466447    2.175239    1.160612
     60          1           0      -12.409288   -2.490471    1.793127
     61          1           0       -8.905960   -1.879834    0.296102
     62          1           0       -5.720031   -1.824214   -0.678355
     63          1           0       -5.574399   -1.535308    1.147503
     64          1           0       -6.891050   -2.687135    0.245115
     65          1           0       -7.294939    1.613734   -0.153303
     66          1           0       -4.593217    0.052135   -0.391672
     67          1           0       13.513655   -0.944220    2.494143
     68          1           0       12.071305   -2.126504    2.107269
     69          1           0       13.794124   -3.029282    0.545196
     70          1           0       13.180257   -2.172686   -1.479870
     71          1           0       11.804395   -2.804026   -0.457840
     72          1           0       11.622321    0.492090    3.415185
     73          1           0       10.271286    1.421496    2.584223
     74          1           0       10.314795   -0.381255    2.760655
     75          1           0       13.602678    1.352920    0.694787
     76          1           0       12.467292    2.251790    1.304519
     77          1           0       13.392592    1.271669    2.360476
     78          1           0       13.251631   -0.374385   -2.865923
     79          1           0       12.221490    1.162966   -2.352755
     80          1           0       13.456737    0.469497   -1.325084
     81          1           0       -5.316279    3.153492   -0.318022
     82          1           0       10.211617   -0.320326   -2.216376
     83          1           0       15.175210   -0.688009    0.601642
     84          1           0        8.568036    2.095284   -0.580434
     85          1           0       -2.311756    4.174640    0.374806
     86          1           0       -2.574913    4.382848   -1.493370
     87          1           0       -3.969826    4.812531   -0.281322
     88          1           0       -2.763010    0.745745   -0.038107
     89          1           0        6.680270   -1.700723    0.528938
     90          1           0        8.268160   -1.715969   -0.596125
     91          1           0        8.434234   -1.120266    1.148533
     92          1           0        6.256937    1.762226   -0.577903
     93          1           0       -0.671341    2.933135   -0.760123
     94          1           0        4.975821   -0.812572    0.147988
     95          1           0       -0.408089   -0.085787   -0.218359
     96          1           0        3.665287    1.852294   -1.018133
     97          1           0        1.700821    2.280675   -0.700281
     98          1           0        1.191550   -1.406231    0.054534
     99          1           0        2.861455   -1.732186   -0.681792
    100          1           0        2.743477   -1.318317    1.015954
 ---------------------------------------------------------------------

 SCF Done:  E(RCAM-B3LYP) =  -1857.27830413     A.U. after   15 cycles

 Excitation energies and oscillator strengths:

 Excited State   1:      Singlet-A      2.0369 eV  608.70 nm  f=3.2340  <S**2>=0.000
     163 ->166         0.14800
     164 ->165         0.69211
 This state for optimization and/or second-order correction.
 Total Energy, E(TD-HF/TD-DFT) =  -1857.20345015
 Copying the excited state density for this state as the 1-particle RhoCI density.

 The electronic state is 1-A.
 Alpha  occ. eigenvalues --  -19.21672 -19.21317 -19.21146 -19.20847 -10.33459
 Alpha  occ. eigenvalues --  -10.31966 -10.31764 -10.31557 -10.31245 -10.30212
 Alpha  occ. eigenvalues --  -10.28882 -10.28702 -10.28139 -10.28044 -10.27693
 Alpha  occ. eigenvalues --  -10.27680 -10.27610 -10.27561 -10.27338 -10.27274
 Alpha  occ. eigenvalues --  -10.27266 -10.27057 -10.27022 -10.26932 -10.26925
 Alpha  occ. eigenvalues --  -10.26915 -10.26865 -10.26859 -10.26851 -10.26811
 Alpha  occ. eigenvalues --  -10.26784 -10.26773 -10.26682 -10.26610 -10.26561
 Alpha  occ. eigenvalues --  -10.26417 -10.26000 -10.25944 -10.25430 -10.25428
 Alpha  occ. eigenvalues --  -10.25384 -10.25105 -10.24847 -10.23898  -1.12400
 Alpha  occ. eigenvalues --   -1.10238  -1.08958  -1.08349  -0.93035  -0.92957
 Alpha  occ. eigenvalues --   -0.91975  -0.91290  -0.90786  -0.89666  -0.87369
 Alpha  occ. eigenvalues --   -0.87165  -0.85896  -0.85232  -0.84762  -0.83013
 Alpha  occ. eigenvalues --   -0.82432  -0.80948  -0.80192  -0.79169  -0.77598
 Alpha  occ. eigenvalues --   -0.77191  -0.76660  -0.75947  -0.75582  -0.75321
 Alpha  occ. eigenvalues --   -0.74605  -0.73702  -0.73179  -0.70260  -0.69748
 Alpha  occ. eigenvalues --   -0.68765  -0.66236  -0.65189  -0.65028  -0.64161
 Alpha  occ. eigenvalues --   -0.62827  -0.62063  -0.60994  -0.60129  -0.59647
 Alpha  occ. eigenvalues --   -0.58951  -0.58565  -0.57561  -0.56369  -0.55866
 Alpha  occ. eigenvalues --   -0.55739  -0.55128  -0.54910  -0.54142  -0.53701
 Alpha  occ. eigenvalues --   -0.53201  -0.53014  -0.52732  -0.52393  -0.52108
 Alpha  occ. eigenvalues --   -0.51723  -0.51313  -0.50698  -0.49990  -0.49862
 Alpha  occ. eigenvalues --   -0.49793  -0.49415  -0.49228  -0.49036  -0.48832
 Alpha  occ. eigenvalues --   -0.48278  -0.48017  -0.47458  -0.47388  -0.46719
 Alpha  occ. eigenvalues --   -0.46208  -0.45830  -0.45747  -0.45112  -0.44973
 Alpha  occ. eigenvalues --   -0.44585  -0.44531  -0.43951  -0.43770  -0.43409
 Alpha  occ. eigenvalues --   -0.43265  -0.43101  -0.42818  -0.42620  -0.42369
 Alpha  occ. eigenvalues --   -0.42078  -0.41810  -0.41577  -0.41104  -0.41075
 Alpha  occ. eigenvalues --   -0.40864  -0.40536  -0.40483  -0.40221  -0.39601
 Alpha  occ. eigenvalues --   -0.39459  -0.39190  -0.39112  -0.38890  -0.38747
 Alpha  occ. eigenvalues --   -0.38359  -0.38122  -0.37885  -0.37874  -0.37152
 Alpha  occ. eigenvalues --   -0.36093  -0.35794  -0.35039  -0.34292  -0.33617
 Alpha  occ. eigenvalues --   -0.33533  -0.32702  -0.31899  -0.31157  -0.30632
 Alpha  occ. eigenvalues --   -0.30371  -0.27438  -0.23754  -0.19373
 Alpha virt. eigenvalues --   -0.06513  -0.01867   0.02109   0.06417   0.06673
 Alpha virt. eigenvalues --    0.09838   0.09936   0.10425   0.10705   0.11700
 Alpha virt. eigenvalues --    0.11861   0.12181   0.12502   0.13372   0.13539

 Mulliken charges:
               1
     1  O   -0.517558
     2  O   -0.541350
     3  O   -0.568829
     4  O   -0.571372
     5  C    0.136401
     6  C    0.302329
     7  C    0.038285
     8  C   -0.200497
     9  C   -0.183968
    10  C    0.161784
    11  C   -0.329998
    12  C   -0.095041
    13  C   -0.287481
    14  C   -0.302396
    15  C   -0.108868
    16  C    0.086643
    17  C   -0.380847
    18  C   -0.107148
    19  C   -0.074584
    20  C    0.018362
    21  C    0.244301
    22  C   -0.199512
    23  C    0.163243
    24  C   -0.186686
    25  C   -0.073134
    26  C   -0.283072
    27  C   -0.303958
    28  C   -0.307701
    29  C   -0.123172
    30  C    0.180200
    31  C    0.124995
    32  C   -0.300427
    33  C   -0.391442
    34  C   -0.090056
    35  C    0.135581
    36  C   -0.372446
    37  C   -0.066123
    38  C   -0.104599
    39  C   -0.116019
    40  C   -0.085120
    41  C   -0.119784
    42  C   -0.114119
    43  C    0.116369
    44  C   -0.344483
    45  H    0.083980
    46  H    0.082442
    47  H    0.067577
    48  H    0.107076
    49  H    0.103672
    50  H    0.071070
    51  H    0.117128
    52  H    0.132222
    53  H    0.122248
    54  H    0.126321
    55  H    0.091045
    56  H    0.072634
    57  H    0.115167
    58  H    0.102584
    59  H    0.089896
    60  H    0.308990
    61  H    0.087877
    62  H    0.136131
    63  H    0.130684
    64  H    0.078543
    65  H    0.078094
    66  H    0.092827
    67  H    0.085028
    68  H    0.091487
    69  H    0.087763
    70  H    0.128701
    71  H    0.120533
    72  H    0.112569
    73  H    0.083045
    74  H    0.111559
    75  H    0.112729
    76  H    0.117327
    77  H    0.071330
    78  H    0.107039
    79  H    0.054289
    80  H    0.138723
    81  H    0.082205
    82  H    0.305420
    83  H    0.309553
    84  H    0.098487
    85  H    0.125916
    86  H    0.126684
    87  H    0.071526
    88  H    0.078168
    89  H    0.097558
    90  H    0.139284
    91  H    0.112463
    92  H    0.043750
    93  H    0.084781
    94  H    0.076800
    95  H    0.071469
    96  H    0.095225
    97  H    0.048842
    98  H    0.100489
    99  H    0.114920
   100  H    0.139424
 Sum of Mulliken charges =  -0.00000

 Dipole moment (field-independent basis, Debye):
    X=              5.6112    Y=              0.3817    Z=              2.7081  Tot=              6.2422
 Quadrupole moment (field-independent basis, Debye-Ang):
   XX=           -272.3628   YY=           -262.5554   ZZ=           -277.9907
   XY=              0.5538   XZ=             26.6808   YZ=             -3.1409

 Normal termination of Gaussian 16 at Thu Aug  1 23:33:05 2019.
