 Gaussian 16, Revision A.03,
 Gaussian 16:  ES64L-G16RevA.03 25-Dec-2016

 -------------------------------------
 # td=(NStates=1) CAM-B3LYP/6-31G(d,p)
 -------------------------------------

 --
 TD
 --
 Symbolic Z-matrix:
 Charge =  0 Multiplicity = 1

                         Standard orientation:
 ---------------------------------------------------------------------
 Center     Atomic      Atomic             Coordinates (Angstroms)
 Number     Number       Type             X           Y           Z
 ---------------------------------------------------------------------
      1          8           0      -11.640217    0.042907   -1.606064
      2          8           0      -12.947621   -2.426366    1.482340
      3          8           0       10.583878   -1.283923   -1.995861
      4          8           0       14.435246   -1.026944   -0.066656
      5          6           0      -11.020886   -0.216733   -0.376991
      6          6           0      -11.622484   -1.274667   -1.178418
      7          6           0      -11.788572    0.395256    0.948481
      8          6           0      -12.997531   -1.858313   -0.865388
      9          6           0      -13.254441   -0.074448    0.750845
     10          6           0      -13.475774   -1.573906    0.491346
     11          6           0      -10.853172   -2.166644   -2.049415
     12          6           0       -9.494511    0.073075   -0.385045
     13          6           0      -11.104285    0.005994    2.234926
     14          6           0      -11.707099    1.955369    0.801229
     15          6           0       -8.581688   -0.720853    0.254104
     16          6           0       -7.191021   -0.393941    0.398410
     17          6           0       -6.269456   -1.595804    0.855114
     18          6           0       -6.671808    0.775746    0.044380
     19          6           0       -5.250826    0.963920   -0.146406
     20          6           0       11.925717    0.106490    1.355018
     21          6           0       11.603388   -0.701591   -1.244331
     22          6           0       12.667891   -1.244380    1.616484
     23          6           0       13.282551   -1.844549    0.442639
     24          6           0       12.397804   -1.974460   -0.758602
     25          6           0       11.095256   -0.062981    0.095950
     26          6           0       11.045160    0.491244    2.623606
     27          6           0       12.849779    1.354138    1.229022
     28          6           0       12.457967    0.260974   -2.113101
     29          6           0       -4.713106    2.230680   -0.510945
     30          6           0        9.841442    0.466001   -0.011896
     31          6           0       -3.347523    2.605354   -0.574826
     32          6           0        8.652389    0.956159   -0.305828
     33          6           0       -3.033129    4.155612   -0.836766
     34          6           0       -2.297251    1.745528   -0.225934
     35          6           0        7.473816    0.151886    0.002251
     36          6           0        7.578035   -1.378644    0.192672
     37          6           0        6.175455    0.745052   -0.118583
     38          6           0       -0.938644    1.945654   -0.283973
     39          6           0        4.940387    0.045617   -0.096412
     40          6           0        0.049388    0.950923   -0.173089
     41          6           0        3.834542    0.835358   -0.143675
     42          6           0        1.394385    1.143433   -0.247201
     43          6           0        2.483440    0.272873   -0.176542
     44          6           0        2.251454   -1.160409   -0.058498
     45          1           0      -13.020700   -2.881969   -1.066054
     46          1           0      -13.488101   -1.467774   -1.679983
     47          1           0      -13.632693    0.006928    1.707638
     48          1           0      -13.728267    0.368146   -0.265473
     49          1           0      -14.475346   -1.620021    0.746601
     50          1           0      -10.716077   -3.130858   -1.614284
     51          1           0      -11.362172   -2.590758   -2.871394
     52          1           0       -9.918490   -1.663021   -2.485948
     53          1           0       -9.239621    1.031692   -0.853755
     54          1           0      -10.090210    0.430735    2.423660
     55          1           0      -11.757677    0.045057    2.933800
     56          1           0      -11.033516   -1.215098    2.303840
     57          1           0      -12.056293    2.055231   -0.087459
     58          1           0      -12.258666    2.312529    1.625982
     59          1           0      -10.648880    2.180151    0.776576
     60          1           0      -11.953043   -2.301658    1.155263
     61          1           0       -8.877716   -1.544353    0.843618
     62          1           0       -5.387264   -1.563602    0.185331
     63          1           0       -5.797019   -1.229693    1.790720
     64          1           0       -7.000056   -2.590454    0.821760
     65          1           0       -7.333295    1.524040   -0.332287
     66          1           0       -4.467661    0.171304   -0.009026
     67          1           0       13.450384   -1.090145    2.146839
     68          1           0       11.825673   -1.845021    1.990909
     69          1           0       13.725448   -2.932905    0.871077
     70          1           0       13.062482   -2.306549   -1.603678
     71          1           0       11.531021   -2.529263   -0.654177
     72          1           0       11.471005    0.285455    3.648767
     73          1           0       10.982016    1.787471    2.623848
     74          1           0        9.874091    0.043126    2.597325
     75          1           0       13.523242    1.237639    0.343052
     76          1           0       12.240958    2.182937    1.408516
     77          1           0       13.473011    1.568506    2.206823
     78          1           0       12.658393   -0.372254   -3.066829
     79          1           0       11.800385    1.032591   -2.281762
     80          1           0       13.378366    0.538778   -1.672348
     81          1           0       -5.529565    2.903465   -0.675322
     82          1           0       10.125536   -0.432403   -2.435863
     83          1           0       15.215902   -1.088118    0.646617
     84          1           0        8.739845    2.048790   -0.726156
     85          1           0       -2.598330    4.447443    0.201466
     86          1           0       -2.421476    4.008190   -1.612794
     87          1           0       -4.106282    4.522072   -1.102086
     88          1           0       -2.709108    0.809703    0.137064
     89          1           0        6.624083   -1.793900    0.120696
     90          1           0        8.331577   -1.884200   -0.521523
     91          1           0        8.136309   -1.642341    1.169537
     92          1           0        6.013989    1.764370   -0.452522
     93          1           0       -0.619406    3.025784   -0.310978
     94          1           0        5.071710   -0.988049    0.437378
     95          1           0       -0.299023   -0.119439   -0.106427
     96          1           0        3.769810    1.818313   -0.320101
     97          1           0        1.669325    2.396929   -0.326796
     98          1           0        1.052334   -1.312010    0.104553
     99          1           0        2.490365   -1.639762   -0.980385
    100          1           0        2.516171   -1.557222    0.908427
 ---------------------------------------------------------------------

 SCF Done:  E(RCAM-B3LYP) =  -1857.24743047     A.U. after   15 cycles

 Excitation energies and oscillator strengths:

 Excited State   1:      Singlet-A      2.1042 eV  589.23 nm  f=3.0623  <S**2>=0.000
     163 ->166        -0.13313
     164 ->165         0.69554
 This state for optimization and/or second-order correction.
 Total Energy, E(TD-HF/TD-DFT) =  -1857.17010295
 Copying the excited state density for this state as the 1-particle RhoCI density.

 The electronic state is 1-A.
 Alpha  occ. eigenvalues --  -19.22959 -19.22871 -19.22811 -19.22416 -10.32219
 Alpha  occ. eigenvalues --  -10.32185 -10.32092 -10.31924 -10.29254 -10.28559
 Alpha  occ. eigenvalues --  -10.28422 -10.28357 -10.27798 -10.27696 -10.27612
 Alpha  occ. eigenvalues --  -10.27606 -10.27378 -10.27312 -10.27254 -10.27178
 Alpha  occ. eigenvalues --  -10.27083 -10.26992 -10.26957 -10.26890 -10.26659
 Alpha  occ. eigenvalues --  -10.26614 -10.26563 -10.26463 -10.26270 -10.25912
 Alpha  occ. eigenvalues --  -10.25738 -10.25727 -10.25608 -10.25587 -10.25555
 Alpha  occ. eigenvalues --  -10.25174 -10.25002 -10.24836 -10.24798 -10.24449
 Alpha  occ. eigenvalues --  -10.24210 -10.24129 -10.24086 -10.22791  -1.18578
 Alpha  occ. eigenvalues --   -1.10518  -1.09971  -1.07010  -0.92436  -0.92160
 Alpha  occ. eigenvalues --   -0.91856  -0.90815  -0.90415  -0.89564  -0.88304
 Alpha  occ. eigenvalues --   -0.87172  -0.85536  -0.85039  -0.84318  -0.83320
 Alpha  occ. eigenvalues --   -0.82584  -0.80852  -0.80164  -0.78442  -0.77913
 Alpha  occ. eigenvalues --   -0.77604  -0.77269  -0.76420  -0.76098  -0.75639
 Alpha  occ. eigenvalues --   -0.74161  -0.73241  -0.72264  -0.70621  -0.69415
 Alpha  occ. eigenvalues --   -0.68094  -0.66796  -0.66217  -0.65110  -0.64581
 Alpha  occ. eigenvalues --   -0.63297  -0.61023  -0.60036  -0.59555  -0.59522
 Alpha  occ. eigenvalues --   -0.59095  -0.58034  -0.57107  -0.56863  -0.56329
 Alpha  occ. eigenvalues --   -0.56287  -0.55458  -0.55147  -0.54713  -0.54044
 Alpha  occ. eigenvalues --   -0.53815  -0.53647  -0.53470  -0.52785  -0.51976
 Alpha  occ. eigenvalues --   -0.51658  -0.51522  -0.51178  -0.51022  -0.50434
 Alpha  occ. eigenvalues --   -0.50201  -0.50121  -0.49262  -0.49071  -0.48769
 Alpha  occ. eigenvalues --   -0.48466  -0.47598  -0.47480  -0.47098  -0.46401
 Alpha  occ. eigenvalues --   -0.46247  -0.46058  -0.46034  -0.45706  -0.45571
 Alpha  occ. eigenvalues --   -0.45196  -0.44837  -0.44582  -0.44407  -0.44119
 Alpha  occ. eigenvalues --   -0.43846  -0.43572  -0.43559  -0.43313  -0.42804
 Alpha  occ. eigenvalues --   -0.42570  -0.42244  -0.42019  -0.41677  -0.40857
 Alpha  occ. eigenvalues --   -0.40602  -0.40374  -0.40154  -0.39885  -0.39712
 Alpha  occ. eigenvalues --   -0.39488  -0.39124  -0.38906  -0.38657  -0.38444
 Alpha  occ. eigenvalues --   -0.38152  -0.37871  -0.37640  -0.36866  -0.36757
 Alpha  occ. eigenvalues --   -0.36395  -0.36069  -0.35198  -0.34635  -0.34472
 Alpha  occ. eigenvalues --   -0.33446  -0.32622  -0.32560  -0.31659  -0.30248
 Alpha  occ. eigenvalues --   -0.28559  -0.27741  -0.24134  -0.19177
 Alpha virt. eigenvalues --   -0.06018  -0.00607   0.03162   0.06010   0.06837
 Alpha virt. eigenvalues --    0.08659   0.09112   0.10288   0.10928   0.11491
 Alpha virt. eigenvalues --    0.12371   0.12648   0.12994   0.13345   0.13778

 Mulliken charges:
               1
     1  O   -0.495103
     2  O   -0.537819
     3  O   -0.546724
     4  O   -0.567340
     5  C    0.171760
     6  C    0.240091
     7  C   -0.007489
     8  C   -0.220694
     9  C   -0.196140
    10  C    0.141364
    11  C   -0.347967
    12  C   -0.124030
    13  C   -0.291074
    14  C   -0.283271
    15  C   -0.077301
    16  C    0.076867
    17  C   -0.364059
    18  C   -0.106336
    19  C   -0.085009
    20  C    0.020305
    21  C    0.226787
    22  C   -0.116746
    23  C    0.124372
    24  C   -0.181376
    25  C   -0.057052
    26  C   -0.298698
    27  C   -0.302677
    28  C   -0.302326
    29  C   -0.126163
    30  C    0.130541
    31  C    0.027896
    32  C   -0.276519
    33  C   -0.343817
    34  C   -0.088626
    35  C    0.071536
    36  C   -0.366908
    37  C   -0.102043
    38  C   -0.102802
    39  C   -0.102194
    40  C   -0.079415
    41  C   -0.076954
    42  C   -0.110176
    43  C    0.087212
    44  C   -0.373190
    45  H    0.107171
    46  H    0.136392
    47  H    0.094291
    48  H    0.110530
    49  H    0.100524
    50  H    0.107111
    51  H    0.115998
    52  H    0.117283
    53  H    0.107221
    54  H    0.121360
    55  H    0.123034
    56  H    0.053363
    57  H    0.126212
    58  H    0.106903
    59  H    0.093462
    60  H    0.299969
    61  H    0.082317
    62  H    0.128664
    63  H    0.133312
    64  H    0.096756
    65  H    0.080960
    66  H    0.080745
    67  H    0.075234
    68  H    0.111991
    69  H    0.055384
    70  H    0.104335
    71  H    0.126435
    72  H    0.108479
    73  H    0.062900
    74  H    0.089788
    75  H    0.123226
    76  H    0.112715
    77  H    0.069928
    78  H    0.102758
    79  H    0.092930
    80  H    0.142183
    81  H    0.078432
    82  H    0.312006
    83  H    0.310104
    84  H    0.116847
    85  H    0.130051
    86  H    0.146192
    87  H    0.102819
    88  H    0.068273
    89  H    0.112846
    90  H    0.138258
    91  H    0.105400
    92  H    0.079698
    93  H    0.084301
    94  H    0.100335
    95  H    0.082932
    96  H    0.078401
    97  H    0.044494
    98  H    0.074200
    99  H    0.138807
   100  H    0.133044
 Sum of Mulliken charges =  -0.00000

 Dipole moment (field-independent basis, Debye):
    X=              2.1736    Y=             -0.1239    Z=              1.2185  Tot=              2.4949
 Quadrupole moment (field-independent basis, Debye-Ang):
   XX=           -250.3317   YY=           -266.3987   ZZ=           -274.5923
   XY=              0.8717   XZ=             26.8440   YZ=             -1.3894

 Normal termination of Gaussian 16 at Thu Aug  1 03:11:36 2019.
