 Gaussian 16, Revision A.03,
 Gaussian 16:  ES64L-G16RevA.03 25-Dec-2016

 -------------------------------------
 # td=(NStates=1) CAM-B3LYP/6-31G(d,p)
 -------------------------------------

 --
 TD
 --
 Symbolic Z-matrix:
 Charge =  0 Multiplicity = 1

                         Standard orientation:
 ---------------------------------------------------------------------
 Center     Atomic      Atomic             Coordinates (Angstroms)
 Number     Number       Type             X           Y           Z
 ---------------------------------------------------------------------
      1          8           0      -11.604757    0.071153   -1.701703
      2          8           0      -13.031883   -2.407679    1.451620
      3          8           0       10.542088   -0.994202   -2.081467
      4          8           0       14.472400   -1.097695   -0.122254
      5          6           0      -10.916633   -0.100790   -0.407245
      6          6           0      -11.527277   -1.240100   -1.157757
      7          6           0      -11.778594    0.461640    0.790181
      8          6           0      -12.970129   -1.780575   -0.925767
      9          6           0      -13.279879   -0.031002    0.738562
     10          6           0      -13.496855   -1.523397    0.484128
     11          6           0      -10.643491   -2.148127   -2.022036
     12          6           0       -9.429556   -0.024319   -0.506585
     13          6           0      -11.129014    0.085350    2.179737
     14          6           0      -11.811360    2.006726    0.687411
     15          6           0       -8.589124   -0.847429    0.159824
     16          6           0       -7.183841   -0.690169    0.277753
     17          6           0       -6.398043   -1.822966    0.568094
     18          6           0       -6.691566    0.567746    0.015072
     19          6           0       -5.329513    0.821064    0.037469
     20          6           0       11.875427   -0.020042    1.342120
     21          6           0       11.621161   -0.609562   -1.318153
     22          6           0       12.595076   -1.333929    1.467566
     23          6           0       13.296356   -1.875755    0.262459
     24          6           0       12.382833   -1.895546   -0.955457
     25          6           0       11.109824    0.033667   -0.006435
     26          6           0       10.999142    0.134470    2.484461
     27          6           0       12.993454    1.184730    1.353299
     28          6           0       12.512303    0.369202   -2.129468
     29          6           0       -4.798553    2.231117   -0.285222
     30          6           0        9.901161    0.627664   -0.042721
     31          6           0       -3.350813    2.557145   -0.364479
     32          6           0        8.614323    1.030184   -0.114320
     33          6           0       -3.134243    4.050573   -0.693245
     34          6           0       -2.364268    1.654054   -0.117463
     35          6           0        7.474665    0.258761    0.043518
     36          6           0        7.648912   -1.238076    0.254061
     37          6           0        6.298392    0.859686    0.090637
     38          6           0       -0.997999    1.897985   -0.329143
     39          6           0        5.018838    0.223588    0.104048
     40          6           0        0.033647    0.985028   -0.150271
     41          6           0        3.830619    0.831106   -0.084617
     42          6           0        1.436429    1.246009   -0.304295
     43          6           0        2.481732    0.352341   -0.076608
     44          6           0        2.268018   -1.133263    0.350120
     45          1           0      -12.892824   -2.944245   -0.936523
     46          1           0      -13.671949   -1.243627   -1.531154
     47          1           0      -13.578170   -0.034828    1.757764
     48          1           0      -13.936107    0.705605    0.271912
     49          1           0      -14.757208   -1.485712    0.576194
     50          1           0      -10.511157   -3.256161   -1.403626
     51          1           0      -11.114907   -2.346320   -2.970079
     52          1           0       -9.688601   -1.601696   -2.125193
     53          1           0       -9.092286    0.942042   -0.739928
     54          1           0      -10.179454    0.476928    2.337980
     55          1           0      -11.931268    0.589004    2.844227
     56          1           0      -11.339491   -1.075960    1.979488
     57          1           0      -12.179311    2.288022   -0.257338
     58          1           0      -12.316486    2.710698    1.461063
     59          1           0      -10.723643    2.263897    0.853608
     60          1           0      -12.155766   -2.689817    1.012802
     61          1           0       -9.107341   -1.742298    0.726583
     62          1           0       -5.896138   -2.192908   -0.413074
     63          1           0       -5.562224   -1.847799    1.209872
     64          1           0       -7.231024   -2.618750    0.979591
     65          1           0       -7.289532    1.562789   -0.079806
     66          1           0       -4.488227    0.041402    0.380140
     67          1           0       13.261525   -1.182878    2.289681
     68          1           0       11.922591   -2.188254    1.772505
     69          1           0       13.475544   -2.856793    0.390689
     70          1           0       12.863666   -2.241240   -1.805586
     71          1           0       11.417443   -2.623601   -0.853417
     72          1           0       11.410889   -0.285758    3.481672
     73          1           0       10.458016    1.181097    2.825793
     74          1           0       10.074299   -0.582374    2.322370
     75          1           0       13.691326    1.040054    0.626478
     76          1           0       12.355984    2.073694    1.189488
     77          1           0       13.373578    1.124326    2.372012
     78          1           0       12.918003   -0.121001   -3.002959
     79          1           0       11.924325    1.203972   -2.510773
     80          1           0       13.347984    0.784200   -1.504648
     81          1           0       -5.507837    2.982157   -0.490845
     82          1           0        9.823179   -0.418400   -2.405034
     83          1           0       14.980396   -0.978671    0.678888
     84          1           0        8.414000    2.070658   -0.090279
     85          1           0       -2.628092    4.348624    0.110763
     86          1           0       -2.414927    4.126436   -1.611787
     87          1           0       -3.964188    4.627119   -0.955846
     88          1           0       -2.437416    0.682563    0.231263
     89          1           0        6.699673   -1.634728    0.210262
     90          1           0        8.215382   -1.458895   -0.698801
     91          1           0        8.560556   -1.665586    1.188125
     92          1           0        6.318190    2.076984   -0.091057
     93          1           0       -0.629071    2.847384   -0.814133
     94          1           0        5.012067   -0.976083    0.005173
     95          1           0       -0.220658   -0.110985   -0.063239
     96          1           0        3.959332    1.962122   -0.152019
     97          1           0        1.755691    2.196840   -0.608957
     98          1           0        1.317813   -1.193480    0.893706
     99          1           0        2.409547   -1.597687   -0.674864
    100          1           0        3.032156   -1.213423    1.245934
 ---------------------------------------------------------------------

 SCF Done:  E(RCAM-B3LYP) =  -1857.30450208     A.U. after   15 cycles

 Excitation energies and oscillator strengths:

 Excited State   1:      Singlet-A      2.0990 eV  590.67 nm  f=2.7422  <S**2>=0.000
     163 ->166        -0.13465
     164 ->165         0.69499
 This state for optimization and/or second-order correction.
 Total Energy, E(TD-HF/TD-DFT) =  -1857.22736376
 Copying the excited state density for this state as the 1-particle RhoCI density.

 The electronic state is 1-A.
 Alpha  occ. eigenvalues --  -19.23690 -19.22156 -19.21708 -19.20685 -10.32282
 Alpha  occ. eigenvalues --  -10.32205 -10.31902 -10.31736 -10.30551 -10.28959
 Alpha  occ. eigenvalues --  -10.28533 -10.28367 -10.28196 -10.27955 -10.27864
 Alpha  occ. eigenvalues --  -10.27764 -10.27557 -10.27343 -10.27294 -10.27282
 Alpha  occ. eigenvalues --  -10.27171 -10.27139 -10.27132 -10.27089 -10.26897
 Alpha  occ. eigenvalues --  -10.26857 -10.26854 -10.26776 -10.26562 -10.26534
 Alpha  occ. eigenvalues --  -10.26434 -10.26423 -10.26078 -10.26063 -10.26052
 Alpha  occ. eigenvalues --  -10.25891 -10.25825 -10.25476 -10.25334 -10.25289
 Alpha  occ. eigenvalues --  -10.24522 -10.24459 -10.24239 -10.23735  -1.14191
 Alpha  occ. eigenvalues --   -1.11633  -1.10361  -1.09663  -0.93496  -0.93405
 Alpha  occ. eigenvalues --   -0.92454  -0.91480  -0.90222  -0.89782  -0.86855
 Alpha  occ. eigenvalues --   -0.86422  -0.86103  -0.85238  -0.84804  -0.83339
 Alpha  occ. eigenvalues --   -0.82434  -0.80391  -0.80284  -0.78704  -0.76812
 Alpha  occ. eigenvalues --   -0.76487  -0.76087  -0.75975  -0.75875  -0.75572
 Alpha  occ. eigenvalues --   -0.75117  -0.74695  -0.73317  -0.71061  -0.69692
 Alpha  occ. eigenvalues --   -0.68403  -0.66450  -0.65558  -0.64971  -0.63726
 Alpha  occ. eigenvalues --   -0.63251  -0.61683  -0.61238  -0.59762  -0.59558
 Alpha  occ. eigenvalues --   -0.58942  -0.58496  -0.58173  -0.57778  -0.56557
 Alpha  occ. eigenvalues --   -0.55755  -0.55550  -0.54990  -0.54899  -0.54329
 Alpha  occ. eigenvalues --   -0.53918  -0.53047  -0.52619  -0.52266  -0.51630
 Alpha  occ. eigenvalues --   -0.51365  -0.51357  -0.51258  -0.50955  -0.50465
 Alpha  occ. eigenvalues --   -0.50085  -0.49384  -0.49114  -0.49012  -0.48556
 Alpha  occ. eigenvalues --   -0.48231  -0.47832  -0.47458  -0.47135  -0.46479
 Alpha  occ. eigenvalues --   -0.46094  -0.45897  -0.45831  -0.45589  -0.45435
 Alpha  occ. eigenvalues --   -0.45248  -0.44850  -0.44504  -0.44145  -0.43981
 Alpha  occ. eigenvalues --   -0.43591  -0.43305  -0.43171  -0.42832  -0.42756
 Alpha  occ. eigenvalues --   -0.42707  -0.42411  -0.42034  -0.41875  -0.41530
 Alpha  occ. eigenvalues --   -0.41443  -0.40232  -0.39964  -0.39701  -0.39592
 Alpha  occ. eigenvalues --   -0.39377  -0.39197  -0.38783  -0.38600  -0.38291
 Alpha  occ. eigenvalues --   -0.38211  -0.37735  -0.37486  -0.36834  -0.36403
 Alpha  occ. eigenvalues --   -0.36247  -0.35769  -0.35304  -0.34828  -0.33843
 Alpha  occ. eigenvalues --   -0.33650  -0.32506  -0.31787  -0.31502  -0.30447
 Alpha  occ. eigenvalues --   -0.29048  -0.27896  -0.24155  -0.19875
 Alpha virt. eigenvalues --   -0.06437  -0.01468   0.02916   0.05893   0.06674
 Alpha virt. eigenvalues --    0.07574   0.08718   0.09880   0.11580   0.11710
 Alpha virt. eigenvalues --    0.12223   0.12422   0.12718   0.12846   0.13427

 Mulliken charges:
               1
     1  O   -0.506898
     2  O   -0.512303
     3  O   -0.584297
     4  O   -0.550254
     5  C    0.227234
     6  C    0.189874
     7  C   -0.011818
     8  C   -0.208285
     9  C   -0.191439
    10  C    0.146240
    11  C   -0.291642
    12  C   -0.129584
    13  C   -0.275718
    14  C   -0.312903
    15  C   -0.074553
    16  C    0.122288
    17  C   -0.378460
    18  C   -0.099734
    19  C   -0.088187
    20  C    0.037229
    21  C    0.302252
    22  C   -0.196250
    23  C    0.160553
    24  C   -0.200599
    25  C   -0.069801
    26  C   -0.311059
    27  C   -0.309080
    28  C   -0.302550
    29  C   -0.143272
    30  C    0.102714
    31  C    0.070792
    32  C   -0.286015
    33  C   -0.360943
    34  C   -0.090963
    35  C    0.169140
    36  C   -0.325612
    37  C   -0.128608
    38  C   -0.087528
    39  C   -0.109630
    40  C   -0.113227
    41  C   -0.108904
    42  C   -0.104709
    43  C    0.057380
    44  C   -0.357402
    45  H    0.083640
    46  H    0.137006
    47  H    0.113080
    48  H    0.109962
    49  H    0.056268
    50  H    0.048319
    51  H    0.125360
    52  H    0.127973
    53  H    0.096263
    54  H    0.113962
    55  H    0.099371
    56  H    0.078238
    57  H    0.125108
    58  H    0.091496
    59  H    0.079097
    60  H    0.311724
    61  H    0.072986
    62  H    0.125184
    63  H    0.134045
    64  H    0.091076
    65  H    0.101817
    66  H    0.087010
    67  H    0.086131
    68  H    0.096147
    69  H    0.100987
    70  H    0.116903
    71  H    0.099796
    72  H    0.089200
    73  H    0.094463
    74  H    0.094943
    75  H    0.127451
    76  H    0.109147
    77  H    0.094998
    78  H    0.107291
    79  H    0.089740
    80  H    0.115531
    81  H    0.086630
    82  H    0.317256
    83  H    0.305076
    84  H    0.097626
    85  H    0.147473
    86  H    0.107001
    87  H    0.119750
    88  H    0.078318
    89  H    0.105337
    90  H    0.121333
    91  H    0.082831
    92  H    0.068582
    93  H    0.079564
    94  H    0.081006
    95  H    0.080639
    96  H    0.073522
    97  H    0.076950
    98  H    0.120741
    99  H    0.138495
   100  H    0.116682
 Sum of Mulliken charges =  -0.00000

 Dipole moment (field-independent basis, Debye):
    X=              3.1962    Y=              0.0635    Z=              1.3956  Tot=              3.4882
 Quadrupole moment (field-independent basis, Debye-Ang):
   XX=           -291.7050   YY=           -260.0751   ZZ=           -279.5985
   XY=             -9.9321   XZ=             25.4517   YZ=             -2.3665

 Normal termination of Gaussian 16 at Tue Jul 30 05:30:34 2019.
