 Gaussian 16, Revision A.03,
 Gaussian 16:  ES64L-G16RevA.03 25-Dec-2016

 -------------------------------------
 # td=(NStates=1) CAM-B3LYP/6-31G(d,p)
 -------------------------------------

 --
 TD
 --
 Symbolic Z-matrix:
 Charge =  0 Multiplicity = 1

                         Standard orientation:
 ---------------------------------------------------------------------
 Center     Atomic      Atomic             Coordinates (Angstroms)
 Number     Number       Type             X           Y           Z
 ---------------------------------------------------------------------
      1          8           0      -11.793790    0.249748   -1.547870
      2          8           0      -12.913651   -2.605578    1.454335
      3          8           0       10.319292   -0.974659   -1.956493
      4          8           0       14.507225   -1.043511   -0.354474
      5          6           0      -11.018785   -0.086293   -0.340698
      6          6           0      -11.618342   -1.149709   -1.235410
      7          6           0      -11.720324    0.270292    1.013064
      8          6           0      -13.038732   -1.653330   -0.800756
      9          6           0      -13.292458   -0.175123    1.110060
     10          6           0      -13.460119   -1.535050    0.615294
     11          6           0      -10.908831   -1.977735   -2.262115
     12          6           0       -9.561188    0.092476   -0.370214
     13          6           0      -10.960902   -0.202542    2.197972
     14          6           0      -11.631204    1.893477    0.916041
     15          6           0       -8.685641   -0.756420   -0.034749
     16          6           0       -7.193345   -0.586179   -0.051427
     17          6           0       -6.371074   -1.876489    0.048780
     18          6           0       -6.525366    0.539874   -0.152683
     19          6           0       -5.187269    0.871033   -0.176381
     20          6           0       12.014528   -0.168137    1.368858
     21          6           0       11.522490   -0.552300   -1.356301
     22          6           0       12.756522   -1.419311    1.427891
     23          6           0       13.331751   -1.898609   -0.018258
     24          6           0       12.297135   -1.950772   -1.155160
     25          6           0       11.123752   -0.007026    0.035761
     26          6           0       11.070969   -0.120193    2.618109
     27          6           0       12.842590    1.201123    1.355588
     28          6           0       12.238973    0.449874   -2.159141
     29          6           0       -4.753739    2.104716   -0.490559
     30          6           0        9.946348    0.660351    0.155721
     31          6           0       -3.439140    2.605910   -0.455232
     32          6           0        8.696458    1.039701    0.136365
     33          6           0       -3.159166    4.020403   -0.709459
     34          6           0       -2.297303    1.723624   -0.266056
     35          6           0        7.508027    0.230561    0.112148
     36          6           0        7.600076   -1.319267    0.174897
     37          6           0        6.344236    0.848220    0.064335
     38          6           0       -0.912248    1.983335   -0.324487
     39          6           0        4.984188    0.337189    0.281338
     40          6           0        0.081051    1.013567   -0.082496
     41          6           0        3.758079    1.051050    0.221163
     42          6           0        1.403002    1.312617   -0.068760
     43          6           0        2.550443    0.435865    0.242275
     44          6           0        2.345677   -1.014784    0.421745
     45          1           0      -13.271716   -2.764874   -1.159938
     46          1           0      -13.692747   -1.128254   -1.537373
     47          1           0      -13.627185   -0.014958    2.153246
     48          1           0      -13.983964    0.462640    0.598847
     49          1           0      -14.674520   -1.623401    0.569649
     50          1           0      -10.817729   -3.083652   -1.968581
     51          1           0      -11.545502   -2.007959   -3.106131
     52          1           0       -9.962212   -1.562207   -2.722129
     53          1           0       -9.360455    0.957147   -0.932064
     54          1           0       -9.964272    0.368307    2.147566
     55          1           0      -11.286112    0.069250    3.203338
     56          1           0      -10.997236   -1.437224    2.239071
     57          1           0      -11.867361    2.417064   -0.030435
     58          1           0      -12.146084    2.191269    1.906486
     59          1           0      -10.584555    2.345212    0.801383
     60          1           0      -12.104536   -2.603701    1.083024
     61          1           0       -8.762338   -1.703192    0.348026
     62          1           0       -5.750609   -2.235984   -0.900325
     63          1           0       -5.602183   -1.545733    0.780190
     64          1           0       -7.131247   -2.572844    0.559394
     65          1           0       -7.125715    1.454964   -0.033001
     66          1           0       -4.539632    0.086735   -0.053844
     67          1           0       13.588098   -1.500206    2.168141
     68          1           0       11.803871   -2.194729    1.653678
     69          1           0       13.572977   -2.944014    0.229509
     70          1           0       12.782091   -2.212417   -1.947398
     71          1           0       11.427466   -2.570199   -0.894088
     72          1           0       11.816049   -0.346105    3.372645
     73          1           0       10.578266    0.969718    2.807887
     74          1           0       10.204564   -0.690097    2.439904
     75          1           0       13.555160    1.019826    0.360650
     76          1           0       12.054616    2.058005    1.276341
     77          1           0       13.575124    0.976960    2.173145
     78          1           0       12.423173    0.195064   -3.261815
     79          1           0       11.851912    1.530721   -2.014454
     80          1           0       13.386862    0.297361   -1.829630
     81          1           0       -5.422489    2.904887   -0.541046
     82          1           0        9.711175   -0.313743   -1.949670
     83          1           0       15.252857   -1.439992    0.368254
     84          1           0        8.545539    2.172041   -0.197151
     85          1           0       -2.725380    4.601001    0.262998
     86          1           0       -2.224703    4.132614   -1.566665
     87          1           0       -3.947243    4.696619   -1.126086
     88          1           0       -2.410452    0.732054    0.076433
     89          1           0        6.714560   -1.820415   -0.159803
     90          1           0        8.587415   -1.640140   -0.757138
     91          1           0        8.024034   -1.747868    1.182018
     92          1           0        6.779279    1.972942   -0.310691
     93          1           0       -0.500306    2.897205   -0.482199
     94          1           0        4.922444   -0.854016    0.710402
     95          1           0       -0.275763    0.250772    0.089045
     96          1           0        3.775283    2.220042   -0.132395
     97          1           0        1.524076    2.427487   -0.068627
     98          1           0        1.268204   -1.387449    0.186767
     99          1           0        2.956069   -1.588659   -0.311364
    100          1           0        2.583750   -1.297790    1.439639
 ---------------------------------------------------------------------

 SCF Done:  E(RCAM-B3LYP) =  -1857.15570681     A.U. after   16 cycles

 Excitation energies and oscillator strengths:

 Excited State   1:      Singlet-A      1.9231 eV  644.71 nm  f=2.9697  <S**2>=0.000
     163 ->166         0.11406
     164 ->165         0.70609
     164 <-165        -0.13065
 This state for optimization and/or second-order correction.
 Total Energy, E(TD-HF/TD-DFT) =  -1857.08503399
 Copying the excited state density for this state as the 1-particle RhoCI density.

 The electronic state is 1-A.
 Alpha  occ. eigenvalues --  -19.24420 -19.22347 -19.21408 -19.20350 -10.32437
 Alpha  occ. eigenvalues --  -10.32412 -10.32240 -10.32159 -10.31580 -10.29317
 Alpha  occ. eigenvalues --  -10.28682 -10.28313 -10.28128 -10.28052 -10.27898
 Alpha  occ. eigenvalues --  -10.27846 -10.27825 -10.27797 -10.27796 -10.27669
 Alpha  occ. eigenvalues --  -10.27381 -10.27248 -10.27213 -10.26925 -10.26751
 Alpha  occ. eigenvalues --  -10.26718 -10.26716 -10.26647 -10.26413 -10.26309
 Alpha  occ. eigenvalues --  -10.26208 -10.26198 -10.25966 -10.25919 -10.25847
 Alpha  occ. eigenvalues --  -10.25817 -10.25780 -10.25407 -10.25344 -10.25328
 Alpha  occ. eigenvalues --  -10.25228 -10.24852 -10.24599 -10.24047  -1.13790
 Alpha  occ. eigenvalues --   -1.11720  -1.11317  -1.07269  -0.93074  -0.92473
 Alpha  occ. eigenvalues --   -0.92167  -0.91308  -0.90851  -0.90033  -0.88644
 Alpha  occ. eigenvalues --   -0.87225  -0.86400  -0.85688  -0.84779  -0.83129
 Alpha  occ. eigenvalues --   -0.81949  -0.81633  -0.79884  -0.78710  -0.76503
 Alpha  occ. eigenvalues --   -0.76121  -0.75881  -0.75752  -0.75323  -0.75183
 Alpha  occ. eigenvalues --   -0.74392  -0.74345  -0.72725  -0.70171  -0.69513
 Alpha  occ. eigenvalues --   -0.68875  -0.67665  -0.66389  -0.65483  -0.64585
 Alpha  occ. eigenvalues --   -0.64248  -0.62724  -0.60837  -0.59667  -0.59317
 Alpha  occ. eigenvalues --   -0.58726  -0.58399  -0.57550  -0.57120  -0.56579
 Alpha  occ. eigenvalues --   -0.56272  -0.55085  -0.54783  -0.54703  -0.54332
 Alpha  occ. eigenvalues --   -0.54128  -0.53318  -0.52725  -0.52289  -0.51608
 Alpha  occ. eigenvalues --   -0.50994  -0.50903  -0.50643  -0.50122  -0.49341
 Alpha  occ. eigenvalues --   -0.49209  -0.49033  -0.48549  -0.47993  -0.47798
 Alpha  occ. eigenvalues --   -0.47645  -0.47372  -0.47182  -0.47003  -0.46610
 Alpha  occ. eigenvalues --   -0.46173  -0.46060  -0.45808  -0.45532  -0.45417
 Alpha  occ. eigenvalues --   -0.45215  -0.45034  -0.44854  -0.44087  -0.43719
 Alpha  occ. eigenvalues --   -0.43474  -0.43212  -0.43168  -0.43109  -0.42488
 Alpha  occ. eigenvalues --   -0.42193  -0.42016  -0.41885  -0.41335  -0.41177
 Alpha  occ. eigenvalues --   -0.40750  -0.40654  -0.39977  -0.39729  -0.39609
 Alpha  occ. eigenvalues --   -0.39510  -0.39283  -0.38974  -0.38508  -0.38255
 Alpha  occ. eigenvalues --   -0.37998  -0.37782  -0.37373  -0.36889  -0.36695
 Alpha  occ. eigenvalues --   -0.36169  -0.36080  -0.35205  -0.34940  -0.34035
 Alpha  occ. eigenvalues --   -0.32678  -0.32539  -0.32061  -0.31391  -0.30689
 Alpha  occ. eigenvalues --   -0.28755  -0.28552  -0.25183  -0.18937
 Alpha virt. eigenvalues --   -0.07198  -0.00392   0.03452   0.04915   0.06481
 Alpha virt. eigenvalues --    0.06874   0.09867   0.10560   0.11139   0.11534
 Alpha virt. eigenvalues --    0.12473   0.12848   0.13021   0.13494   0.13760

 Mulliken charges:
               1
     1  O   -0.515768
     2  O   -0.521138
     3  O   -0.534530
     4  O   -0.545447
     5  C    0.213777
     6  C    0.218448
     7  C    0.012691
     8  C   -0.220727
     9  C   -0.163219
    10  C    0.126522
    11  C   -0.345806
    12  C   -0.129333
    13  C   -0.297211
    14  C   -0.329958
    15  C    0.021604
    16  C    0.023882
    17  C   -0.366619
    18  C   -0.097362
    19  C   -0.041897
    20  C    0.017012
    21  C    0.260922
    22  C   -0.180852
    23  C    0.111078
    24  C   -0.179543
    25  C   -0.056941
    26  C   -0.287658
    27  C   -0.283473
    28  C   -0.327221
    29  C   -0.110577
    30  C    0.082044
    31  C    0.113214
    32  C   -0.283395
    33  C   -0.376979
    34  C   -0.127157
    35  C    0.164374
    36  C   -0.361616
    37  C   -0.094919
    38  C   -0.081044
    39  C   -0.151309
    40  C    0.032712
    41  C   -0.096334
    42  C   -0.145194
    43  C    0.133916
    44  C   -0.384811
    45  H    0.088033
    46  H    0.132212
    47  H    0.103864
    48  H    0.114512
    49  H    0.077495
    50  H    0.103513
    51  H    0.127295
    52  H    0.121984
    53  H    0.111760
    54  H    0.110218
    55  H    0.113126
    56  H    0.075064
    57  H    0.127348
    58  H    0.094807
    59  H    0.087653
    60  H    0.297149
    61  H    0.062535
    62  H    0.119678
    63  H    0.121960
    64  H    0.096054
    65  H    0.064128
    66  H    0.076414
    67  H    0.085248
    68  H    0.076493
    69  H    0.095291
    70  H    0.114843
    71  H    0.133155
    72  H    0.099408
    73  H    0.081996
    74  H    0.116505
    75  H    0.107925
    76  H    0.112755
    77  H    0.085726
    78  H    0.108082
    79  H    0.101807
    80  H    0.127319
    81  H    0.077314
    82  H    0.292906
    83  H    0.313998
    84  H    0.093091
    85  H    0.110374
    86  H    0.093431
    87  H    0.115640
    88  H    0.077285
    89  H    0.119999
    90  H    0.083630
    91  H    0.107768
    92  H    0.060336
    93  H    0.063345
    94  H    0.084188
    95  H   -0.000880
    96  H    0.091561
    97  H    0.079657
    98  H    0.108448
    99  H    0.126170
   100  H    0.134224
 Sum of Mulliken charges =  -0.00000

 Dipole moment (field-independent basis, Debye):
    X=              3.2951    Y=             -1.1055    Z=              0.8503  Tot=              3.5781
 Quadrupole moment (field-independent basis, Debye-Ang):
   XX=           -261.1832   YY=           -262.1511   ZZ=           -279.6025
   XY=            -25.3154   XZ=             24.7670   YZ=             -0.4161

 Normal termination of Gaussian 16 at Tue Jul 30 15:14:36 2019.
