 Gaussian 16, Revision A.03,
 Gaussian 16:  ES64L-G16RevA.03 25-Dec-2016

 -------------------------------------
 # td=(NStates=1) CAM-B3LYP/6-31G(d,p)
 -------------------------------------

 --
 TD
 --
 Symbolic Z-matrix:
 Charge =  0 Multiplicity = 1

                         Standard orientation:
 ---------------------------------------------------------------------
 Center     Atomic      Atomic             Coordinates (Angstroms)
 Number     Number       Type             X           Y           Z
 ---------------------------------------------------------------------
      1          8           0      -11.742770   -0.028421   -1.593329
      2          8           0      -13.130720   -2.286435    1.735770
      3          8           0       10.675008   -1.509590   -1.867276
      4          8           0       14.498540   -1.106711   -0.050779
      5          6           0      -11.130239   -0.223883   -0.360292
      6          6           0      -11.661053   -1.371591   -1.144058
      7          6           0      -11.877111    0.457778    0.783571
      8          6           0      -13.023284   -1.910566   -0.742868
      9          6           0      -13.390043    0.127217    0.915061
     10          6           0      -13.643285   -1.451253    0.589530
     11          6           0      -10.798064   -2.334355   -1.800701
     12          6           0       -9.696370    0.060702   -0.443866
     13          6           0      -11.268144    0.096417    2.208308
     14          6           0      -11.861950    2.014772    0.588441
     15          6           0       -8.663823   -0.668579    0.128604
     16          6           0       -7.291047   -0.528153    0.076398
     17          6           0       -6.418768   -1.629995    0.535260
     18          6           0       -6.611687    0.700090   -0.172783
     19          6           0       -5.209776    0.881578   -0.187354
     20          6           0       11.993498    0.253964    1.234580
     21          6           0       11.745292   -0.831433   -1.232576
     22          6           0       12.749377   -1.026152    1.703678
     23          6           0       13.448385   -1.704002    0.568201
     24          6           0       12.434183   -2.070254   -0.642164
     25          6           0       11.231535    0.029826    0.008140
     26          6           0       10.992833    0.605918    2.432209
     27          6           0       12.965658    1.377541    1.167569
     28          6           0       12.567520   -0.008425   -2.177085
     29          6           0       -4.667627    2.103324   -0.502152
     30          6           0        9.963453    0.503979   -0.102607
     31          6           0       -3.342904    2.473841   -0.525093
     32          6           0        8.745551    0.930816   -0.298692
     33          6           0       -3.028362    3.916051   -0.837602
     34          6           0       -2.304398    1.546043   -0.442356
     35          6           0        7.540826    0.285105    0.006489
     36          6           0        7.694531   -1.163404    0.388846
     37          6           0        6.263310    0.710409   -0.206918
     38          6           0       -0.917732    1.947313   -0.342292
     39          6           0        4.984545    0.247992   -0.039495
     40          6           0        0.053639    0.993168   -0.190685
     41          6           0        3.811090    0.874981   -0.157448
     42          6           0        1.377892    1.263284   -0.179451
     43          6           0        2.489480    0.349014   -0.003617
     44          6           0        2.332135   -1.048285    0.338721
     45          1           0      -13.319982   -3.106037   -0.627906
     46          1           0      -13.659932   -1.647516   -1.640608
     47          1           0      -13.686738    0.436358    1.636518
     48          1           0      -13.917620    0.611007   -0.065860
     49          1           0      -14.650742   -1.733976    0.710708
     50          1           0      -10.225713   -2.983326   -1.088877
     51          1           0      -11.529521   -2.945827   -2.492357
     52          1           0      -10.104265   -1.965659   -2.526035
     53          1           0       -9.377986    1.102560   -0.950646
     54          1           0      -10.127507    0.536576    2.262082
     55          1           0      -11.828977    0.568638    2.899001
     56          1           0      -11.244744   -1.052938    2.396515
     57          1           0      -12.220766    2.381022   -0.228135
     58          1           0      -12.446790    2.539943    1.342775
     59          1           0      -11.035704    2.357192    0.444421
     60          1           0      -12.107642   -2.113246    1.574002
     61          1           0       -9.117210   -1.614365    0.414965
     62          1           0       -6.027641   -2.316726   -0.335474
     63          1           0       -5.682032   -1.432467    1.224793
     64          1           0       -6.970662   -2.355371    0.991203
     65          1           0       -7.289230    1.458898   -0.174738
     66          1           0       -4.531925    0.046977   -0.106400
     67          1           0       13.545957   -0.998007    2.678470
     68          1           0       11.961489   -1.910709    1.949499
     69          1           0       13.856280   -2.717463    0.700157
     70          1           0       12.976812   -2.536854   -1.497104
     71          1           0       11.740906   -2.752486   -0.183468
     72          1           0       11.432585    0.647848    3.534481
     73          1           0       10.533241    1.550281    2.057736
     74          1           0       10.170953   -0.218881    2.742057
     75          1           0       13.539072    0.907333    0.330958
     76          1           0       12.437271    2.246960    0.817252
     77          1           0       13.452387    1.863922    2.151010
     78          1           0       12.459661   -0.818083   -3.140374
     79          1           0       12.079121    0.808470   -2.519998
     80          1           0       13.755611    0.060242   -1.960474
     81          1           0       -5.430032    2.887192   -0.544571
     82          1           0       10.014182   -0.763396   -2.021157
     83          1           0       15.110471   -0.787536    0.605169
     84          1           0        8.528637    2.040992   -0.562657
     85          1           0       -2.166859    4.317711   -0.118386
     86          1           0       -2.246905    4.090576   -1.722052
     87          1           0       -3.993379    4.424235   -0.897880
     88          1           0       -2.691843    0.446069   -0.392830
     89          1           0        6.601343   -1.597846    0.139018
     90          1           0        8.476260   -1.582477   -0.180515
     91          1           0        8.103010   -1.326160    1.499594
     92          1           0        6.358440    1.869660   -0.703346
     93          1           0       -0.442919    3.099265   -0.360906
     94          1           0        4.924167   -0.737958    0.369161
     95          1           0       -0.256938   -0.175470   -0.105415
     96          1           0        3.841165    2.006971   -0.345048
     97          1           0        1.784507    2.214239   -0.630748
     98          1           0        1.272030   -1.195437    0.690555
     99          1           0        2.427592   -1.807499   -0.674396
    100          1           0        3.074177   -1.562894    1.192473
 ---------------------------------------------------------------------

 SCF Done:  E(RCAM-B3LYP) =  -1857.14148582     A.U. after   15 cycles

 Excitation energies and oscillator strengths:

 Excited State   1:      Singlet-A      1.9803 eV  626.10 nm  f=3.1358  <S**2>=0.000
     163 ->166        -0.13157
     164 ->165         0.69759
     164 <-165        -0.10134
 This state for optimization and/or second-order correction.
 Total Energy, E(TD-HF/TD-DFT) =  -1857.06871209
 Copying the excited state density for this state as the 1-particle RhoCI density.

 The electronic state is 1-A.
 Alpha  occ. eigenvalues --  -19.22964 -19.21854 -19.21738 -19.21038 -10.32978
 Alpha  occ. eigenvalues --  -10.32105 -10.31905 -10.30893 -10.30206 -10.29107
 Alpha  occ. eigenvalues --  -10.28780 -10.28755 -10.28571 -10.28448 -10.28447
 Alpha  occ. eigenvalues --  -10.28128 -10.28095 -10.27874 -10.27779 -10.27746
 Alpha  occ. eigenvalues --  -10.27705 -10.27670 -10.27510 -10.27471 -10.27381
 Alpha  occ. eigenvalues --  -10.27311 -10.27277 -10.27245 -10.26921 -10.26870
 Alpha  occ. eigenvalues --  -10.26863 -10.26641 -10.26454 -10.26421 -10.26167
 Alpha  occ. eigenvalues --  -10.26141 -10.25991 -10.25704 -10.25673 -10.25508
 Alpha  occ. eigenvalues --  -10.24694 -10.24654 -10.24415 -10.21482  -1.17990
 Alpha  occ. eigenvalues --   -1.12763  -1.10062  -1.05748  -0.93924  -0.93084
 Alpha  occ. eigenvalues --   -0.92672  -0.91756  -0.91158  -0.90422  -0.88462
 Alpha  occ. eigenvalues --   -0.86923  -0.86154  -0.85350  -0.85094  -0.83475
 Alpha  occ. eigenvalues --   -0.82773  -0.81256  -0.80704  -0.78883  -0.78399
 Alpha  occ. eigenvalues --   -0.77159  -0.76954  -0.76520  -0.75597  -0.75351
 Alpha  occ. eigenvalues --   -0.75206  -0.74684  -0.73036  -0.70838  -0.70116
 Alpha  occ. eigenvalues --   -0.69154  -0.68159  -0.66302  -0.65528  -0.64954
 Alpha  occ. eigenvalues --   -0.63594  -0.62040  -0.60990  -0.59724  -0.59518
 Alpha  occ. eigenvalues --   -0.59303  -0.58496  -0.58138  -0.57341  -0.57080
 Alpha  occ. eigenvalues --   -0.55921  -0.55606  -0.55241  -0.54407  -0.54149
 Alpha  occ. eigenvalues --   -0.54080  -0.53343  -0.52740  -0.52602  -0.52216
 Alpha  occ. eigenvalues --   -0.51940  -0.51676  -0.51025  -0.50822  -0.50029
 Alpha  occ. eigenvalues --   -0.49750  -0.48988  -0.48784  -0.48675  -0.48391
 Alpha  occ. eigenvalues --   -0.47978  -0.47777  -0.47386  -0.47281  -0.47231
 Alpha  occ. eigenvalues --   -0.47054  -0.46802  -0.46457  -0.45704  -0.45639
 Alpha  occ. eigenvalues --   -0.45195  -0.44918  -0.44519  -0.44042  -0.43846
 Alpha  occ. eigenvalues --   -0.43548  -0.43424  -0.42830  -0.42674  -0.42511
 Alpha  occ. eigenvalues --   -0.42119  -0.41997  -0.41863  -0.41685  -0.41550
 Alpha  occ. eigenvalues --   -0.40924  -0.40601  -0.40519  -0.40378  -0.40352
 Alpha  occ. eigenvalues --   -0.39575  -0.39204  -0.38922  -0.38787  -0.38596
 Alpha  occ. eigenvalues --   -0.38286  -0.37649  -0.37489  -0.37020  -0.36703
 Alpha  occ. eigenvalues --   -0.36256  -0.35793  -0.35499  -0.35319  -0.34083
 Alpha  occ. eigenvalues --   -0.33312  -0.33103  -0.31823  -0.30978  -0.30794
 Alpha  occ. eigenvalues --   -0.29589  -0.28206  -0.24426  -0.19708
 Alpha virt. eigenvalues --   -0.07192  -0.01949   0.02321   0.04170   0.06067
 Alpha virt. eigenvalues --    0.09601   0.09781   0.10129   0.10733   0.11552
 Alpha virt. eigenvalues --    0.11989   0.12192   0.13086   0.13213   0.13621

 Mulliken charges:
               1
     1  O   -0.493004
     2  O   -0.559736
     3  O   -0.545327
     4  O   -0.519875
     5  C    0.192777
     6  C    0.259603
     7  C   -0.015053
     8  C   -0.217209
     9  C   -0.085780
    10  C    0.109069
    11  C   -0.346059
    12  C   -0.101629
    13  C   -0.292552
    14  C   -0.289736
    15  C   -0.095929
    16  C    0.092708
    17  C   -0.380537
    18  C   -0.106172
    19  C   -0.058763
    20  C   -0.008350
    21  C    0.249544
    22  C   -0.177584
    23  C    0.133786
    24  C   -0.179112
    25  C   -0.030198
    26  C   -0.290280
    27  C   -0.294402
    28  C   -0.309850
    29  C   -0.133112
    30  C    0.136410
    31  C    0.138686
    32  C   -0.320075
    33  C   -0.369533
    34  C   -0.127106
    35  C    0.158983
    36  C   -0.369108
    37  C   -0.106061
    38  C   -0.097743
    39  C   -0.080287
    40  C   -0.063116
    41  C   -0.111413
    42  C   -0.130922
    43  C    0.137545
    44  C   -0.373115
    45  H    0.107594
    46  H    0.119998
    47  H    0.060154
    48  H    0.082511
    49  H    0.108187
    50  H    0.119035
    51  H    0.097569
    52  H    0.137708
    53  H    0.084471
    54  H    0.088812
    55  H    0.121331
    56  H    0.080239
    57  H    0.119263
    58  H    0.095515
    59  H    0.091651
    60  H    0.291813
    61  H    0.068643
    62  H    0.100692
    63  H    0.131807
    64  H    0.113914
    65  H    0.075681
    66  H    0.089994
    67  H    0.072694
    68  H    0.092514
    69  H    0.074016
    70  H    0.107949
    71  H    0.113978
    72  H    0.084804
    73  H    0.106326
    74  H    0.082067
    75  H    0.115231
    76  H    0.104617
    77  H    0.097561
    78  H    0.085171
    79  H    0.112298
    80  H    0.141997
    81  H    0.079685
    82  H    0.299791
    83  H    0.301172
    84  H    0.102216
    85  H    0.106965
    86  H    0.116016
    87  H    0.111717
    88  H    0.086462
    89  H    0.087845
    90  H    0.133317
    91  H    0.098924
    92  H    0.033290
    93  H    0.090578
    94  H    0.081602
    95  H    0.084812
    96  H    0.075220
    97  H    0.087007
    98  H    0.109455
    99  H    0.099821
   100  H    0.105919
 Sum of Mulliken charges =  -0.00000

 Dipole moment (field-independent basis, Debye):
    X=              2.1499    Y=              1.2606    Z=              1.2744  Tot=              2.7991
 Quadrupole moment (field-independent basis, Debye-Ang):
   XX=           -273.2629   YY=           -264.6148   ZZ=           -280.7037
   XY=              3.3914   XZ=             33.4471   YZ=             -0.9047

 Normal termination of Gaussian 16 at Tue Jul 30 04:01:47 2019.
