 Gaussian 16, Revision A.03,
 Gaussian 16:  ES64L-G16RevA.03 25-Dec-2016

 -------------------------------------
 # td=(NStates=1) CAM-B3LYP/6-31G(d,p)
 -------------------------------------

 --
 TD
 --
 Symbolic Z-matrix:
 Charge =  0 Multiplicity = 1

                         Standard orientation:
 ---------------------------------------------------------------------
 Center     Atomic      Atomic             Coordinates (Angstroms)
 Number     Number       Type             X           Y           Z
 ---------------------------------------------------------------------
      1          8           0      -11.730001    0.264401   -1.488452
      2          8           0      -13.146313   -2.524099    1.296329
      3          8           0       10.669349   -0.884808   -2.162916
      4          8           0       14.522644   -1.000249   -0.078025
      5          6           0      -11.081148   -0.243252   -0.288493
      6          6           0      -11.659902   -1.194386   -1.274631
      7          6           0      -11.844553    0.287617    1.013752
      8          6           0      -13.063061   -1.808507   -1.012723
      9          6           0      -13.275272   -0.045978    0.843406
     10          6           0      -13.583824   -1.516193    0.387488
     11          6           0      -10.768106   -1.947692   -2.210899
     12          6           0       -9.554246    0.044425   -0.298961
     13          6           0      -11.034939   -0.228750    2.225957
     14          6           0      -11.681418    1.837925    1.056909
     15          6           0       -8.655719   -0.884650    0.051711
     16          6           0       -7.120030   -0.524741    0.203765
     17          6           0       -6.268523   -1.653840    0.529413
     18          6           0       -6.662946    0.720785   -0.057745
     19          6           0       -5.265680    0.961854   -0.210604
     20          6           0       11.894217   -0.019491    1.411406
     21          6           0       11.634388   -0.630446   -1.238752
     22          6           0       12.572360   -1.407843    1.538696
     23          6           0       13.419231   -1.859609    0.186244
     24          6           0       12.416020   -1.825645   -1.041422
     25          6           0       11.106421   -0.060463    0.036477
     26          6           0       11.025994   -0.017929    2.554495
     27          6           0       12.908966    1.072976    1.525414
     28          6           0       12.542355    0.489348   -1.907234
     29          6           0       -4.775466    2.213585   -0.297771
     30          6           0        9.870450    0.514318   -0.072949
     31          6           0       -3.362517    2.573272   -0.428007
     32          6           0        8.619632    0.993852   -0.069384
     33          6           0       -2.957273    4.053390   -0.620661
     34          6           0       -2.341099    1.657203   -0.301358
     35          6           0        7.475074    0.103750   -0.023125
     36          6           0        7.642450   -1.360939   -0.046132
     37          6           0        6.282963    0.650427   -0.112854
     38          6           0       -1.034725    1.938476   -0.308650
     39          6           0        4.931213    0.122907   -0.003323
     40          6           0        0.009913    0.960227   -0.104667
     41          6           0        3.847952    0.952650   -0.143417
     42          6           0        1.363986    1.385361   -0.123665
     43          6           0        2.431130    0.472797   -0.043169
     44          6           0        2.254624   -1.028039    0.161783
     45          1           0      -13.173631   -2.844441   -1.223786
     46          1           0      -13.671115   -1.228257   -1.610780
     47          1           0      -13.628217    0.011862    1.900479
     48          1           0      -13.746283    0.614698    0.105834
     49          1           0      -14.569823   -1.577206    0.415664
     50          1           0      -10.483250   -2.907247   -1.778469
     51          1           0      -11.194699   -2.054597   -3.223277
     52          1           0       -9.658404   -1.383719   -2.146001
     53          1           0       -9.489692    1.111286   -0.740053
     54          1           0      -10.208851    0.591392    2.218287
     55          1           0      -11.633815   -0.129146    3.051516
     56          1           0      -10.676471   -1.262284    1.948169
     57          1           0      -12.088345    2.163760    0.057673
     58          1           0      -12.440494    2.063977    1.911683
     59          1           0      -10.706206    2.226919    1.378435
     60          1           0      -12.062263   -2.527863    1.483763
     61          1           0       -9.208320   -1.849155    0.349525
     62          1           0       -5.613800   -2.061483   -0.166364
     63          1           0       -5.716749   -1.567428    1.547326
     64          1           0       -7.034683   -2.348422    0.956442
     65          1           0       -7.319766    1.533166   -0.291660
     66          1           0       -4.845374    0.028834   -0.119404
     67          1           0       13.275489   -1.424901    2.432913
     68          1           0       11.640562   -2.098433    1.619371
     69          1           0       13.659683   -2.932552    0.574169
     70          1           0       13.033094   -2.104568   -1.954625
     71          1           0       11.811992   -2.694999   -0.644103
     72          1           0       11.553004   -0.083445    3.640401
     73          1           0       10.551748    1.010917    2.561369
     74          1           0       10.144514   -0.696954    2.516589
     75          1           0       13.748220    1.114518    0.829952
     76          1           0       12.445000    2.041345    1.184959
     77          1           0       13.236315    0.952375    2.557157
     78          1           0       12.900263    0.290807   -3.047731
     79          1           0       12.063649    1.622121   -1.968604
     80          1           0       13.326347    0.684142   -1.374495
     81          1           0       -5.505086    3.102913   -0.231678
     82          1           0       10.259003   -0.119342   -2.303238
     83          1           0       15.176505   -1.198303    0.588068
     84          1           0        8.505744    2.097331   -0.117544
     85          1           0       -2.121125    4.206985    0.131467
     86          1           0       -2.316847    4.198642   -1.541408
     87          1           0       -3.895732    4.610274   -0.593787
     88          1           0       -2.577053    0.574782   -0.047848
     89          1           0        6.747380   -1.947341   -0.158282
     90          1           0        8.241643   -1.616919   -0.783328
     91          1           0        8.116451   -1.658723    1.021603
     92          1           0        6.420433    1.878938    0.069977
     93          1           0       -0.666523    3.072010   -0.540706
     94          1           0        4.936933   -0.811878    0.074567
     95          1           0       -0.169081   -0.047552    0.121791
     96          1           0        4.218253    2.011831   -0.439708
     97          1           0        1.481680    2.447760   -0.268541
     98          1           0        1.205089   -1.366496    0.519005
     99          1           0        2.649637   -1.651355   -0.854911
    100          1           0        2.994260   -1.403049    0.948760
 ---------------------------------------------------------------------

 SCF Done:  E(RCAM-B3LYP) =  -1857.31113924     A.U. after   15 cycles

 Excitation energies and oscillator strengths:

 Excited State   1:      Singlet-A      2.3501 eV  527.56 nm  f=2.8582  <S**2>=0.000
     163 ->166        -0.12312
     164 ->165         0.69665
 This state for optimization and/or second-order correction.
 Total Energy, E(TD-HF/TD-DFT) =  -1857.22477307
 Copying the excited state density for this state as the 1-particle RhoCI density.

 The electronic state is 1-A.
 Alpha  occ. eigenvalues --  -19.22763 -19.21663 -19.21599 -19.20330 -10.32690
 Alpha  occ. eigenvalues --  -10.32219 -10.31653 -10.31407 -10.29433 -10.28710
 Alpha  occ. eigenvalues --  -10.28642 -10.28392 -10.28200 -10.27661 -10.27592
 Alpha  occ. eigenvalues --  -10.27571 -10.27555 -10.27548 -10.27431 -10.27416
 Alpha  occ. eigenvalues --  -10.27335 -10.27317 -10.27255 -10.26739 -10.26612
 Alpha  occ. eigenvalues --  -10.26570 -10.26517 -10.26486 -10.26143 -10.25989
 Alpha  occ. eigenvalues --  -10.25957 -10.25881 -10.25700 -10.25693 -10.25634
 Alpha  occ. eigenvalues --  -10.25470 -10.25429 -10.25382 -10.25096 -10.25010
 Alpha  occ. eigenvalues --  -10.24607 -10.24607 -10.24462 -10.24312  -1.13962
 Alpha  occ. eigenvalues --   -1.13111  -1.10815  -1.06909  -0.93420  -0.92490
 Alpha  occ. eigenvalues --   -0.91967  -0.91281  -0.90867  -0.89653  -0.87516
 Alpha  occ. eigenvalues --   -0.87042  -0.86291  -0.85655  -0.84213  -0.83151
 Alpha  occ. eigenvalues --   -0.81623  -0.80944  -0.79833  -0.78150  -0.77255
 Alpha  occ. eigenvalues --   -0.76885  -0.76771  -0.75896  -0.75421  -0.75116
 Alpha  occ. eigenvalues --   -0.74800  -0.73245  -0.72603  -0.70500  -0.70005
 Alpha  occ. eigenvalues --   -0.68924  -0.66934  -0.64992  -0.64378  -0.63970
 Alpha  occ. eigenvalues --   -0.63107  -0.61927  -0.61170  -0.60494  -0.60115
 Alpha  occ. eigenvalues --   -0.59384  -0.58240  -0.57844  -0.57733  -0.56359
 Alpha  occ. eigenvalues --   -0.56107  -0.55832  -0.55517  -0.54531  -0.54127
 Alpha  occ. eigenvalues --   -0.53277  -0.53109  -0.52268  -0.52052  -0.52039
 Alpha  occ. eigenvalues --   -0.51661  -0.50738  -0.50437  -0.50242  -0.50073
 Alpha  occ. eigenvalues --   -0.49757  -0.48994  -0.48670  -0.48576  -0.48448
 Alpha  occ. eigenvalues --   -0.48181  -0.47789  -0.47400  -0.47000  -0.46911
 Alpha  occ. eigenvalues --   -0.46360  -0.46331  -0.46036  -0.45860  -0.45739
 Alpha  occ. eigenvalues --   -0.45020  -0.44420  -0.44308  -0.44243  -0.43859
 Alpha  occ. eigenvalues --   -0.43709  -0.43572  -0.42856  -0.42434  -0.42353
 Alpha  occ. eigenvalues --   -0.42297  -0.42097  -0.41692  -0.41153  -0.40886
 Alpha  occ. eigenvalues --   -0.40606  -0.40494  -0.40205  -0.40100  -0.39733
 Alpha  occ. eigenvalues --   -0.39570  -0.39196  -0.39122  -0.38927  -0.38812
 Alpha  occ. eigenvalues --   -0.38530  -0.38439  -0.38361  -0.37967  -0.36993
 Alpha  occ. eigenvalues --   -0.36127  -0.36066  -0.35072  -0.34281  -0.33813
 Alpha  occ. eigenvalues --   -0.32692  -0.32110  -0.31451  -0.31035  -0.30637
 Alpha  occ. eigenvalues --   -0.29161  -0.27677  -0.25045  -0.19971
 Alpha virt. eigenvalues --   -0.05499   0.00171   0.03123   0.05480   0.07107
 Alpha virt. eigenvalues --    0.07247   0.09770   0.10114   0.11866   0.12146
 Alpha virt. eigenvalues --    0.12612   0.12712   0.13473   0.13576   0.13904

 Mulliken charges:
               1
     1  O   -0.522451
     2  O   -0.572679
     3  O   -0.520555
     4  O   -0.521489
     5  C    0.149144
     6  C    0.245574
     7  C    0.013127
     8  C   -0.195958
     9  C   -0.200328
    10  C    0.171515
    11  C   -0.345163
    12  C   -0.081464
    13  C   -0.272665
    14  C   -0.313652
    15  C   -0.110324
    16  C    0.052410
    17  C   -0.395969
    18  C   -0.083016
    19  C   -0.029423
    20  C    0.042392
    21  C    0.284561
    22  C   -0.193395
    23  C    0.121146
    24  C   -0.178317
    25  C   -0.056774
    26  C   -0.298168
    27  C   -0.295538
    28  C   -0.318314
    29  C   -0.143634
    30  C    0.071924
    31  C    0.076381
    32  C   -0.262575
    33  C   -0.375265
    34  C   -0.087969
    35  C    0.130531
    36  C   -0.359165
    37  C   -0.131984
    38  C   -0.097583
    39  C   -0.033221
    40  C   -0.078943
    41  C   -0.115550
    42  C   -0.100278
    43  C    0.081967
    44  C   -0.362533
    45  H    0.111823
    46  H    0.120917
    47  H    0.093375
    48  H    0.115268
    49  H    0.103775
    50  H    0.107935
    51  H    0.120870
    52  H    0.107473
    53  H    0.119183
    54  H    0.108134
    55  H    0.115784
    56  H    0.061395
    57  H    0.126427
    58  H    0.089578
    59  H    0.105576
    60  H    0.301886
    61  H    0.088357
    62  H    0.141783
    63  H    0.113929
    64  H    0.111020
    65  H    0.076817
    66  H    0.082378
    67  H    0.073356
    68  H    0.088274
    69  H    0.080833
    70  H    0.112368
    71  H    0.104152
    72  H    0.082177
    73  H    0.094385
    74  H    0.109401
    75  H    0.126346
    76  H    0.094419
    77  H    0.094907
    78  H    0.088208
    79  H    0.059922
    80  H    0.138865
    81  H    0.083836
    82  H    0.289313
    83  H    0.308690
    84  H    0.116465
    85  H    0.126357
    86  H    0.125822
    87  H    0.109305
    88  H    0.079098
    89  H    0.108192
    90  H    0.145165
    91  H    0.093474
    92  H    0.042496
    93  H    0.069842
    94  H    0.054624
    95  H    0.078921
    96  H    0.092508
    97  H    0.086773
    98  H    0.107870
    99  H    0.101899
   100  H    0.121720
 Sum of Mulliken charges =  -0.00000

 Dipole moment (field-independent basis, Debye):
    X=              2.5276    Y=             -0.7456    Z=              2.4251  Tot=              3.5813
 Quadrupole moment (field-independent basis, Debye-Ang):
   XX=           -264.4914   YY=           -261.0052   ZZ=           -279.5132
   XY=             -8.3362   XZ=             23.5093   YZ=             -2.8785

 Normal termination of Gaussian 16 at Mon Jul 29 01:42:06 2019.
