 Gaussian 16, Revision A.03,
 Gaussian 16:  ES64L-G16RevA.03 25-Dec-2016

 -------------------------------------
 # td=(NStates=1) CAM-B3LYP/6-31G(d,p)
 -------------------------------------

 --
 TD
 --
 Symbolic Z-matrix:
 Charge =  0 Multiplicity = 1

                         Standard orientation:
 ---------------------------------------------------------------------
 Center     Atomic      Atomic             Coordinates (Angstroms)
 Number     Number       Type             X           Y           Z
 ---------------------------------------------------------------------
      1          8           0      -11.751518   -0.045049   -1.805789
      2          8           0      -13.032470   -2.110477    1.668892
      3          8           0       10.590451   -1.390746   -1.989043
      4          8           0       14.576399   -0.943176   -0.201998
      5          6           0      -11.169143   -0.296595   -0.471057
      6          6           0      -11.667679   -1.312551   -1.251024
      7          6           0      -11.855387    0.484235    0.741910
      8          6           0      -13.052249   -1.959316   -0.723741
      9          6           0      -13.289855    0.113005    0.701507
     10          6           0      -13.493470   -1.355117    0.510342
     11          6           0      -10.874617   -2.332230   -1.982758
     12          6           0       -9.602846    0.023873   -0.496629
     13          6           0      -11.145246    0.275730    2.057830
     14          6           0      -11.626877    2.024989    0.396346
     15          6           0       -8.750897   -0.810296    0.322237
     16          6           0       -7.274407   -0.654231    0.284854
     17          6           0       -6.533438   -1.770825    1.057380
     18          6           0       -6.672415    0.557559   -0.145057
     19          6           0       -5.266031    0.836893   -0.179880
     20          6           0       11.990167    0.137350    1.365453
     21          6           0       11.605081   -0.725459   -1.270833
     22          6           0       12.843121   -1.106019    1.479188
     23          6           0       13.512839   -1.754913    0.250658
     24          6           0       12.410600   -1.999250   -0.848069
     25          6           0       11.116457   -0.050123    0.057444
     26          6           0       11.084885    0.283703    2.565148
     27          6           0       12.923361    1.376422    1.165327
     28          6           0       12.358062    0.217857   -2.149151
     29          6           0       -4.731000    2.096116   -0.449342
     30          6           0        9.897863    0.494643   -0.117656
     31          6           0       -3.363884    2.417205   -0.447269
     32          6           0        8.615398    0.788875   -0.403196
     33          6           0       -3.104910    3.906431   -0.767518
     34          6           0       -2.270452    1.512422   -0.221016
     35          6           0        7.489650    0.202254   -0.104311
     36          6           0        7.614785   -1.305146    0.268139
     37          6           0        6.283771    0.862949   -0.205241
     38          6           0       -0.956663    1.967851   -0.289942
     39          6           0        5.063053    0.275807    0.059810
     40          6           0        0.057955    1.010724    0.081206
     41          6           0        3.879745    0.934634   -0.102426
     42          6           0        1.410686    1.388677   -0.004605
     43          6           0        2.486777    0.422619    0.170485
     44          6           0        2.379520   -1.013258    0.624724
     45          1           0      -13.173677   -3.053752   -0.625404
     46          1           0      -13.868291   -1.818992   -1.712782
     47          1           0      -13.899187    0.255613    1.654445
     48          1           0      -13.779324    0.568666   -0.198114
     49          1           0      -14.550034   -1.608644    0.500878
     50          1           0      -10.567526   -3.320763   -1.520156
     51          1           0      -11.531019   -2.480124   -2.941754
     52          1           0      -10.027149   -1.770693   -2.310447
     53          1           0       -9.091936    0.781671   -0.901167
     54          1           0      -10.326952    0.897539    1.981238
     55          1           0      -11.850617    0.785958    2.828354
     56          1           0      -11.035537   -0.759956    2.446745
     57          1           0      -12.161768    2.114068   -0.509100
     58          1           0      -12.230976    2.747185    1.056682
     59          1           0      -10.548667    2.414837    0.314420
     60          1           0      -12.114860   -2.415940    1.121098
     61          1           0       -9.169207   -1.743498    1.047567
     62          1           0       -5.928589   -2.434627    0.538196
     63          1           0       -5.761231   -1.469255    1.832780
     64          1           0       -7.150556   -2.436608    1.519792
     65          1           0       -7.282263    1.235705   -0.344588
     66          1           0       -4.444023    0.081252    0.292034
     67          1           0       13.494170   -1.138677    2.290308
     68          1           0       12.220534   -1.992268    2.008348
     69          1           0       13.942163   -2.671167    0.738748
     70          1           0       12.990636   -2.414005   -1.828658
     71          1           0       11.829750   -2.822036   -0.465595
     72          1           0       11.711385    0.148333    3.502842
     73          1           0       10.639102    1.412790    2.498822
     74          1           0       10.134756   -0.404353    2.596670
     75          1           0       13.608621    1.094311    0.385666
     76          1           0       12.250312    2.346881    1.166315
     77          1           0       13.650714    1.428060    1.990692
     78          1           0       12.621190   -0.285190   -3.105707
     79          1           0       11.878661    1.250160   -2.261584
     80          1           0       13.505897    0.294422   -1.999069
     81          1           0       -5.491955    2.850589   -0.461081
     82          1           0        9.937985   -0.694065   -2.392201
     83          1           0       15.212420   -0.829878    0.467902
     84          1           0        8.386337    1.836602   -0.687985
     85          1           0       -2.326016    4.429995   -0.046256
     86          1           0       -2.513892    4.137719   -1.736253
     87          1           0       -4.066553    4.430501   -0.855243
     88          1           0       -2.516436    0.529032    0.142291
     89          1           0        6.597391   -1.867856    0.265740
     90          1           0        8.374930   -1.625569   -0.532058
     91          1           0        8.133561   -1.364220    1.131930
     92          1           0        6.296917    1.948005   -0.581364
     93          1           0       -0.604506    2.919724   -0.801251
     94          1           0        5.144908   -0.824323    0.424188
     95          1           0        0.010921   -0.061789    0.389757
     96          1           0        4.091388    1.856318   -0.563888
     97          1           0        1.779024    2.221524   -0.452106
     98          1           0        1.157298   -0.856207    1.122834
     99          1           0        2.338103   -1.750495   -0.462510
    100          1           0        3.076923   -1.191879    1.486954
 ---------------------------------------------------------------------

 SCF Done:  E(RCAM-B3LYP) =  -1857.22673258     A.U. after   16 cycles

 Excitation energies and oscillator strengths:

 Excited State   1:      Singlet-A      1.8934 eV  654.84 nm  f=3.0486  <S**2>=0.000
     163 ->166        -0.12966
     164 ->165         0.69953
     164 <-165        -0.11158
 This state for optimization and/or second-order correction.
 Total Energy, E(TD-HF/TD-DFT) =  -1857.15715278
 Copying the excited state density for this state as the 1-particle RhoCI density.

 The electronic state is 1-A.
 Alpha  occ. eigenvalues --  -19.23194 -19.22374 -19.22128 -19.21946 -10.32805
 Alpha  occ. eigenvalues --  -10.32667 -10.32455 -10.32029 -10.30308 -10.29387
 Alpha  occ. eigenvalues --  -10.29275 -10.28893 -10.28799 -10.28729 -10.28036
 Alpha  occ. eigenvalues --  -10.27923 -10.27681 -10.27627 -10.27558 -10.27556
 Alpha  occ. eigenvalues --  -10.27545 -10.27349 -10.27195 -10.27139 -10.26785
 Alpha  occ. eigenvalues --  -10.26718 -10.26453 -10.26394 -10.26254 -10.26138
 Alpha  occ. eigenvalues --  -10.26136 -10.26068 -10.25891 -10.25887 -10.25885
 Alpha  occ. eigenvalues --  -10.25828 -10.25674 -10.25466 -10.25251 -10.25244
 Alpha  occ. eigenvalues --  -10.25223 -10.25100 -10.24817 -10.23908  -1.17131
 Alpha  occ. eigenvalues --   -1.11553  -1.09520  -1.07736  -0.93339  -0.92120
 Alpha  occ. eigenvalues --   -0.91452  -0.91132  -0.90292  -0.89241  -0.87198
 Alpha  occ. eigenvalues --   -0.86219  -0.85568  -0.85054  -0.83832  -0.83114
 Alpha  occ. eigenvalues --   -0.81870  -0.80625  -0.79940  -0.78198  -0.76920
 Alpha  occ. eigenvalues --   -0.76790  -0.76583  -0.75814  -0.75658  -0.75366
 Alpha  occ. eigenvalues --   -0.75200  -0.74432  -0.72228  -0.70459  -0.69769
 Alpha  occ. eigenvalues --   -0.67902  -0.66134  -0.65790  -0.64799  -0.64446
 Alpha  occ. eigenvalues --   -0.64009  -0.62288  -0.60650  -0.60039  -0.59675
 Alpha  occ. eigenvalues --   -0.58132  -0.57739  -0.57581  -0.57420  -0.56941
 Alpha  occ. eigenvalues --   -0.56040  -0.55605  -0.54889  -0.54437  -0.54324
 Alpha  occ. eigenvalues --   -0.53329  -0.52993  -0.52691  -0.52154  -0.51473
 Alpha  occ. eigenvalues --   -0.50905  -0.50714  -0.50275  -0.49987  -0.49661
 Alpha  occ. eigenvalues --   -0.49391  -0.49133  -0.48540  -0.48222  -0.48066
 Alpha  occ. eigenvalues --   -0.47604  -0.47152  -0.46646  -0.46389  -0.46094
 Alpha  occ. eigenvalues --   -0.46040  -0.45759  -0.45317  -0.45196  -0.44988
 Alpha  occ. eigenvalues --   -0.44786  -0.44555  -0.44464  -0.44290  -0.43861
 Alpha  occ. eigenvalues --   -0.43739  -0.43269  -0.43045  -0.42822  -0.42626
 Alpha  occ. eigenvalues --   -0.42301  -0.42023  -0.41646  -0.41012  -0.40778
 Alpha  occ. eigenvalues --   -0.40623  -0.40246  -0.40038  -0.39795  -0.39713
 Alpha  occ. eigenvalues --   -0.39598  -0.39311  -0.39009  -0.38954  -0.38763
 Alpha  occ. eigenvalues --   -0.38416  -0.37721  -0.37442  -0.37212  -0.37036
 Alpha  occ. eigenvalues --   -0.36748  -0.36337  -0.35244  -0.34794  -0.33886
 Alpha  occ. eigenvalues --   -0.33433  -0.33106  -0.32457  -0.31332  -0.31080
 Alpha  occ. eigenvalues --   -0.29691  -0.27086  -0.23667  -0.18586
 Alpha virt. eigenvalues --   -0.06591  -0.01434   0.02136   0.05907   0.06195
 Alpha virt. eigenvalues --    0.07027   0.09867   0.10059   0.10311   0.11308
 Alpha virt. eigenvalues --    0.11642   0.12237   0.12603   0.12916   0.13593

 Mulliken charges:
               1
     1  O   -0.496776
     2  O   -0.540568
     3  O   -0.553862
     4  O   -0.529454
     5  C    0.181626
     6  C    0.273902
     7  C    0.021112
     8  C   -0.253599
     9  C   -0.166295
    10  C    0.133722
    11  C   -0.320093
    12  C   -0.122743
    13  C   -0.275698
    14  C   -0.325328
    15  C   -0.100187
    16  C    0.075473
    17  C   -0.381728
    18  C   -0.084210
    19  C   -0.068997
    20  C    0.047402
    21  C    0.273320
    22  C   -0.210315
    23  C    0.150716
    24  C   -0.178849
    25  C   -0.057699
    26  C   -0.297208
    27  C   -0.300393
    28  C   -0.338427
    29  C   -0.126140
    30  C    0.101889
    31  C    0.090667
    32  C   -0.305682
    33  C   -0.375340
    34  C   -0.094482
    35  C    0.174112
    36  C   -0.370278
    37  C   -0.138307
    38  C   -0.099988
    39  C   -0.067481
    40  C   -0.089133
    41  C   -0.121063
    42  C   -0.082073
    43  C    0.053403
    44  C   -0.329545
    45  H    0.121186
    46  H    0.084317
    47  H    0.105245
    48  H    0.107258
    49  H    0.094793
    50  H    0.108367
    51  H    0.102412
    52  H    0.125594
    53  H    0.102129
    54  H    0.115300
    55  H    0.087057
    56  H    0.103020
    57  H    0.128932
    58  H    0.096962
    59  H    0.100013
    60  H    0.292163
    61  H    0.074849
    62  H    0.127196
    63  H    0.112533
    64  H    0.114407
    65  H    0.057906
    66  H    0.072695
    67  H    0.089483
    68  H    0.068799
    69  H    0.076544
    70  H    0.088114
    71  H    0.126105
    72  H    0.096381
    73  H    0.087443
    74  H    0.107071
    75  H    0.134942
    76  H    0.097919
    77  H    0.087188
    78  H    0.111109
    79  H    0.104418
    80  H    0.137668
    81  H    0.088202
    82  H    0.305231
    83  H    0.304090
    84  H    0.091845
    85  H    0.105671
    86  H    0.108924
    87  H    0.111095
    88  H    0.087535
    89  H    0.097389
    90  H    0.128424
    91  H    0.133900
    92  H    0.076954
    93  H    0.106219
    94  H    0.069610
    95  H    0.092181
    96  H    0.073527
    97  H    0.079043
    98  H    0.064313
    99  H    0.113632
   100  H    0.139294
 Sum of Mulliken charges =  -0.00000

 Dipole moment (field-independent basis, Debye):
    X=              4.6040    Y=             -0.4820    Z=              1.1875  Tot=              4.7791
 Quadrupole moment (field-independent basis, Debye-Ang):
   XX=           -248.8260   YY=           -260.7076   ZZ=           -280.3775
   XY=              4.5392   XZ=             29.4242   YZ=             -5.4953

 Normal termination of Gaussian 16 at Tue Jul 30 17:31:46 2019.
