 Gaussian 16, Revision A.03,
 Gaussian 16:  ES64L-G16RevA.03 25-Dec-2016

 -------------------------------------
 # td=(NStates=1) CAM-B3LYP/6-31G(d,p)
 -------------------------------------

 --
 TD
 --
 Symbolic Z-matrix:
 Charge =  0 Multiplicity = 1

                         Standard orientation:
 ---------------------------------------------------------------------
 Center     Atomic      Atomic             Coordinates (Angstroms)
 Number     Number       Type             X           Y           Z
 ---------------------------------------------------------------------
      1          8           0      -11.806416    0.160379   -1.555556
      2          8           0      -12.780920   -2.370545    1.504127
      3          8           0       10.598712   -1.193355   -2.015545
      4          8           0       14.419562   -0.851025   -0.007740
      5          6           0      -11.057596   -0.227536   -0.388723
      6          6           0      -11.753381   -1.250357   -1.174242
      7          6           0      -11.677934    0.496998    0.935295
      8          6           0      -13.010547   -1.753892   -0.797995
      9          6           0      -13.156074   -0.017886    1.108888
     10          6           0      -13.375928   -1.371880    0.613304
     11          6           0      -11.020654   -2.155887   -2.158147
     12          6           0       -9.556815    0.011504   -0.544851
     13          6           0      -10.905944   -0.072995    2.141828
     14          6           0      -11.756961    2.005654    0.847342
     15          6           0       -8.631338   -0.789158    0.056660
     16          6           0       -7.207158   -0.644776    0.182804
     17          6           0       -6.392842   -1.817339    0.562672
     18          6           0       -6.638458    0.642965   -0.073549
     19          6           0       -5.256351    0.856013   -0.144411
     20          6           0       11.883792   -0.009812    1.345046
     21          6           0       11.675296   -0.671165   -1.216291
     22          6           0       12.682642   -1.252612    1.576285
     23          6           0       13.431150   -1.823369    0.287917
     24          6           0       12.473676   -1.934195   -0.922129
     25          6           0       11.127550   -0.178365    0.079827
     26          6           0       11.007515    0.370922    2.603408
     27          6           0       12.924035    1.238965    1.172669
     28          6           0       12.531634    0.287267   -2.058304
     29          6           0       -4.772625    2.165584   -0.302975
     30          6           0        9.887717    0.350620    0.118295
     31          6           0       -3.465299    2.494023   -0.513724
     32          6           0        8.696028    0.914009   -0.108710
     33          6           0       -3.136113    3.940282   -0.581121
     34          6           0       -2.361113    1.680815   -0.337981
     35          6           0        7.400063    0.229141   -0.081335
     36          6           0        7.533697   -1.271410    0.279718
     37          6           0        6.211271    0.868914   -0.211561
     38          6           0       -0.977033    1.908454   -0.597962
     39          6           0        4.999204    0.253589    0.060685
     40          6           0        0.070127    1.060550   -0.201838
     41          6           0        3.776413    0.870747   -0.248760
     42          6           0        1.446592    1.245203   -0.310446
     43          6           0        2.509316    0.423848   -0.060788
     44          6           0        2.196835   -1.083294    0.228740
     45          1           0      -13.029066   -2.843069   -0.705548
     46          1           0      -13.687979   -1.204740   -1.459541
     47          1           0      -13.483302    0.194637    2.119113
     48          1           0      -13.789368    0.774786    0.477427
     49          1           0      -14.440963   -1.618772    0.519823
     50          1           0      -10.940594   -3.287550   -1.646913
     51          1           0      -11.674046   -2.314113   -3.165255
     52          1           0       -9.956085   -2.059373   -2.344994
     53          1           0       -9.294201    0.923798   -0.840460
     54          1           0       -9.699723    0.239694    2.381337
     55          1           0      -11.433728    0.268931    3.213846
     56          1           0      -11.043723   -1.081829    2.293843
     57          1           0      -11.874861    2.218550   -0.348223
     58          1           0      -12.758064    2.375298    1.267134
     59          1           0      -10.838466    2.445297    1.285023
     60          1           0      -12.015514   -2.847705    1.187730
     61          1           0       -9.231371   -1.641207    0.452614
     62          1           0       -6.051917   -2.338120   -0.451097
     63          1           0       -5.443386   -1.367930    1.072564
     64          1           0       -6.913783   -2.677478    1.090105
     65          1           0       -7.286317    1.498367   -0.376262
     66          1           0       -4.455475    0.049277   -0.091198
     67          1           0       13.474380   -1.161218    2.323598
     68          1           0       12.096125   -2.026215    1.957621
     69          1           0       14.014484   -2.587698    0.546327
     70          1           0       13.054538   -2.338872   -1.758746
     71          1           0       11.847654   -2.761538   -0.645152
     72          1           0       11.603679    0.454667    3.605780
     73          1           0       10.468988    1.345998    2.425140
     74          1           0       10.334043   -0.481144    2.967950
     75          1           0       13.490320    0.972165    0.411985
     76          1           0       12.346126    2.145707    0.925561
     77          1           0       13.405207    1.550415    2.138359
     78          1           0       12.429917   -0.084767   -3.063942
     79          1           0       11.810067    1.297182   -2.086261
     80          1           0       13.514394    0.180920   -1.630839
     81          1           0       -5.620341    2.931670   -0.473526
     82          1           0        9.925754   -0.401136   -2.354894
     83          1           0       15.072288   -0.852411    0.783082
     84          1           0        8.844152    2.024763   -0.291852
     85          1           0       -2.352316    4.037810    0.183673
     86          1           0       -2.490887    3.984984   -1.426622
     87          1           0       -4.031648    4.768011   -0.466281
     88          1           0       -2.755486    0.588753   -0.055174
     89          1           0        6.739709   -1.928226    0.137313
     90          1           0        8.409148   -1.615207   -0.229751
     91          1           0        7.700713   -1.417610    1.381478
     92          1           0        6.272769    1.912256   -0.626758
     93          1           0       -0.583589    2.785605   -1.142414
     94          1           0        4.824242   -0.772883    0.231368
     95          1           0       -0.319081    0.034106    0.071475
     96          1           0        3.820496    1.969722   -0.651020
     97          1           0        1.915182    2.348010   -0.675136
     98          1           0        1.235074   -1.274858    0.344436
     99          1           0        2.753791   -1.686680   -0.435485
    100          1           0        2.518191   -1.553502    1.252095
 ---------------------------------------------------------------------

 SCF Done:  E(RCAM-B3LYP) =  -1857.31725629     A.U. after   15 cycles

 Excitation energies and oscillator strengths:

 Excited State   1:      Singlet-A      1.9373 eV  639.97 nm  f=3.0114  <S**2>=0.000
     163 ->166        -0.12873
     164 ->165         0.69860
     164 <-165        -0.10872
 This state for optimization and/or second-order correction.
 Total Energy, E(TD-HF/TD-DFT) =  -1857.24606064
 Copying the excited state density for this state as the 1-particle RhoCI density.

 The electronic state is 1-A.
 Alpha  occ. eigenvalues --  -19.22049 -19.21822 -19.21457 -19.20989 -10.32192
 Alpha  occ. eigenvalues --  -10.31942 -10.31863 -10.30606 -10.30458 -10.28441
 Alpha  occ. eigenvalues --  -10.28144 -10.28059 -10.27995 -10.27906 -10.27798
 Alpha  occ. eigenvalues --  -10.27633 -10.27566 -10.27438 -10.27263 -10.27230
 Alpha  occ. eigenvalues --  -10.27218 -10.27196 -10.27129 -10.26985 -10.26776
 Alpha  occ. eigenvalues --  -10.26758 -10.26701 -10.26643 -10.26259 -10.26152
 Alpha  occ. eigenvalues --  -10.26134 -10.26024 -10.25967 -10.25893 -10.25774
 Alpha  occ. eigenvalues --  -10.25526 -10.25338 -10.25327 -10.25211 -10.25158
 Alpha  occ. eigenvalues --  -10.25071 -10.24666 -10.24246 -10.23032  -1.14599
 Alpha  occ. eigenvalues --   -1.10180  -1.08702  -1.07403  -0.92805  -0.92723
 Alpha  occ. eigenvalues --   -0.92108  -0.91071  -0.90419  -0.90202  -0.88495
 Alpha  occ. eigenvalues --   -0.87046  -0.85825  -0.85461  -0.84543  -0.82842
 Alpha  occ. eigenvalues --   -0.82211  -0.80891  -0.79902  -0.78065  -0.77010
 Alpha  occ. eigenvalues --   -0.76688  -0.76488  -0.76188  -0.75817  -0.75189
 Alpha  occ. eigenvalues --   -0.74905  -0.73716  -0.73278  -0.70254  -0.69897
 Alpha  occ. eigenvalues --   -0.68856  -0.67352  -0.65620  -0.65354  -0.64036
 Alpha  occ. eigenvalues --   -0.63739  -0.61886  -0.60575  -0.59852  -0.59405
 Alpha  occ. eigenvalues --   -0.59331  -0.58759  -0.58154  -0.57154  -0.57044
 Alpha  occ. eigenvalues --   -0.56208  -0.55253  -0.55035  -0.54579  -0.53954
 Alpha  occ. eigenvalues --   -0.53551  -0.52594  -0.52301  -0.52130  -0.51582
 Alpha  occ. eigenvalues --   -0.51513  -0.50861  -0.50484  -0.50059  -0.49734
 Alpha  occ. eigenvalues --   -0.49542  -0.49107  -0.48700  -0.48574  -0.48023
 Alpha  occ. eigenvalues --   -0.47717  -0.47546  -0.47197  -0.46969  -0.46715
 Alpha  occ. eigenvalues --   -0.46242  -0.46005  -0.45888  -0.45033  -0.44812
 Alpha  occ. eigenvalues --   -0.44663  -0.44547  -0.44054  -0.43670  -0.43531
 Alpha  occ. eigenvalues --   -0.43240  -0.43155  -0.42990  -0.42872  -0.42036
 Alpha  occ. eigenvalues --   -0.41950  -0.41693  -0.41442  -0.41367  -0.41170
 Alpha  occ. eigenvalues --   -0.40984  -0.40579  -0.40311  -0.39970  -0.39528
 Alpha  occ. eigenvalues --   -0.39331  -0.39302  -0.39210  -0.38462  -0.38353
 Alpha  occ. eigenvalues --   -0.38157  -0.37753  -0.37526  -0.37503  -0.36727
 Alpha  occ. eigenvalues --   -0.36432  -0.36058  -0.35410  -0.34696  -0.33695
 Alpha  occ. eigenvalues --   -0.32675  -0.32351  -0.31755  -0.31648  -0.31459
 Alpha  occ. eigenvalues --   -0.28676  -0.28036  -0.23930  -0.19048
 Alpha virt. eigenvalues --   -0.06812  -0.01393   0.03454   0.05960   0.06913
 Alpha virt. eigenvalues --    0.09106   0.09710   0.10360   0.10886   0.11417
 Alpha virt. eigenvalues --    0.11758   0.12525   0.12959   0.13463   0.13795

 Mulliken charges:
               1
     1  O   -0.516226
     2  O   -0.573875
     3  O   -0.579831
     4  O   -0.551055
     5  C    0.161365
     6  C    0.262992
     7  C    0.077371
     8  C   -0.225541
     9  C   -0.193088
    10  C    0.175924
    11  C   -0.322376
    12  C   -0.074883
    13  C   -0.299455
    14  C   -0.329619
    15  C   -0.084697
    16  C    0.093986
    17  C   -0.367469
    18  C   -0.120092
    19  C   -0.064279
    20  C    0.002979
    21  C    0.253615
    22  C   -0.184743
    23  C    0.140194
    24  C   -0.194504
    25  C    0.022208
    26  C   -0.303761
    27  C   -0.305176
    28  C   -0.307762
    29  C   -0.135281
    30  C    0.079705
    31  C    0.120627
    32  C   -0.277696
    33  C   -0.378720
    34  C   -0.125000
    35  C    0.095509
    36  C   -0.373081
    37  C   -0.101913
    38  C   -0.098307
    39  C   -0.083066
    40  C   -0.096356
    41  C   -0.147525
    42  C   -0.131702
    43  C    0.163109
    44  C   -0.366881
    45  H    0.114324
    46  H    0.131668
    47  H    0.121227
    48  H    0.085189
    49  H    0.097564
    50  H    0.056879
    51  H    0.109993
    52  H    0.133882
    53  H    0.081048
    54  H    0.077152
    55  H    0.059717
    56  H    0.121147
    57  H    0.113143
    58  H    0.107498
    59  H    0.109389
    60  H    0.304455
    61  H    0.062895
    62  H    0.113979
    63  H    0.115876
    64  H    0.119698
    65  H    0.095084
    66  H    0.094422
    67  H    0.068737
    68  H    0.096631
    69  H    0.084398
    70  H    0.110348
    71  H    0.121935
    72  H    0.084421
    73  H    0.112371
    74  H    0.093887
    75  H    0.141277
    76  H    0.085592
    77  H    0.087396
    78  H    0.123763
    79  H    0.067045
    80  H    0.156254
    81  H    0.083185
    82  H    0.305735
    83  H    0.309942
    84  H    0.112439
    85  H    0.135366
    86  H    0.127075
    87  H    0.096816
    88  H    0.056156
    89  H    0.111462
    90  H    0.137401
    91  H    0.114236
    92  H    0.086035
    93  H    0.091166
    94  H    0.087600
    95  H    0.083140
    96  H    0.067607
    97  H    0.058439
    98  H    0.117240
    99  H    0.130462
   100  H    0.092588
 Sum of Mulliken charges =  -0.00000

 Dipole moment (field-independent basis, Debye):
    X=              2.6546    Y=             -1.8492    Z=              0.9527  Tot=              3.3725
 Quadrupole moment (field-independent basis, Debye-Ang):
   XX=           -245.9485   YY=           -258.1208   ZZ=           -279.7298
   XY=              0.2743   XZ=             27.9734   YZ=             -3.5524

 Normal termination of Gaussian 16 at Wed Jul 31 02:10:37 2019.
