 Gaussian 16, Revision A.03,
 Gaussian 16:  ES64L-G16RevA.03 25-Dec-2016

 -------------------------------------
 # td=(NStates=1) CAM-B3LYP/6-31G(d,p)
 -------------------------------------

 --
 TD
 --
 Symbolic Z-matrix:
 Charge =  0 Multiplicity = 1

                         Standard orientation:
 ---------------------------------------------------------------------
 Center     Atomic      Atomic             Coordinates (Angstroms)
 Number     Number       Type             X           Y           Z
 ---------------------------------------------------------------------
      1          8           0      -11.590994    0.076983   -1.719872
      2          8           0      -13.120941   -2.386829    1.311665
      3          8           0       10.533544   -1.261835   -1.992378
      4          8           0       14.432372   -0.984427   -0.189035
      5          6           0      -11.054708   -0.182726   -0.396921
      6          6           0      -11.549064   -1.221188   -1.265113
      7          6           0      -11.783024    0.374944    0.784229
      8          6           0      -12.814945   -1.919780   -1.011254
      9          6           0      -13.372045    0.015128    0.694029
     10          6           0      -13.596505   -1.499544    0.282791
     11          6           0      -10.462262   -2.097005   -2.038169
     12          6           0       -9.588202    0.073723   -0.263852
     13          6           0      -11.177144   -0.018230    2.070782
     14          6           0      -11.729891    1.924143    0.625268
     15          6           0       -8.670896   -0.696731    0.311305
     16          6           0       -7.260429   -0.531818    0.544496
     17          6           0       -6.405593   -1.752845    0.902277
     18          6           0       -6.656555    0.618139    0.077559
     19          6           0       -5.270268    0.900097    0.082327
     20          6           0       11.869029    0.017787    1.240590
     21          6           0       11.610241   -0.683778   -1.283833
     22          6           0       12.608752   -1.157165    1.501682
     23          6           0       13.450669   -1.791614    0.234177
     24          6           0       12.350749   -2.029663   -0.800899
     25          6           0       11.052885   -0.011522   -0.071567
     26          6           0       10.977063    0.377132    2.559569
     27          6           0       12.965575    1.303623    1.071092
     28          6           0       12.476401    0.182522   -2.185284
     29          6           0       -4.726609    2.089880   -0.372676
     30          6           0        9.838615    0.545501   -0.106401
     31          6           0       -3.332210    2.423102   -0.455045
     32          6           0        8.677884    1.016963   -0.251790
     33          6           0       -3.064532    3.914140   -0.842656
     34          6           0       -2.271907    1.673566   -0.142532
     35          6           0        7.501930    0.208281    0.031157
     36          6           0        7.733851   -1.181229    0.212426
     37          6           0        6.177731    0.689404   -0.135205
     38          6           0       -0.963621    1.942910   -0.324696
     39          6           0        4.936232    0.153916    0.132910
     40          6           0        0.030316    0.975205   -0.081179
     41          6           0        3.778704    0.861488   -0.015193
     42          6           0        1.396634    1.277804   -0.218132
     43          6           0        2.419938    0.436665    0.089453
     44          6           0        2.210462   -1.137508    0.547502
     45          1           0      -12.694015   -2.976566   -1.123302
     46          1           0      -13.596330   -1.527096   -1.758706
     47          1           0      -13.803250    0.460418    1.660915
     48          1           0      -13.731770    0.838682   -0.042071
     49          1           0      -14.722828   -1.828834    0.112155
     50          1           0      -10.155524   -2.924788   -1.427214
     51          1           0      -11.104255   -2.499970   -2.751020
     52          1           0       -9.646549   -1.424817   -2.341509
     53          1           0       -9.107933    0.940337   -0.845340
     54          1           0      -10.175982    0.634118    2.185312
     55          1           0      -11.776745    0.258892    2.996798
     56          1           0      -11.091223   -1.097932    2.186676
     57          1           0      -11.944772    2.230819   -0.436208
     58          1           0      -12.502569    2.498429    1.167736
     59          1           0      -10.662111    2.185429    0.968609
     60          1           0      -12.112053   -2.450204    1.189315
     61          1           0       -9.136697   -1.504142    0.923905
     62          1           0       -5.804762   -2.186056   -0.102454
     63          1           0       -5.366372   -1.518186    1.651482
     64          1           0       -7.209676   -2.338552    1.329648
     65          1           0       -7.281486    1.484861   -0.061639
     66          1           0       -4.645140    0.180833    0.429365
     67          1           0       13.143146   -1.155219    2.452685
     68          1           0       11.795305   -1.889743    2.030427
     69          1           0       13.990820   -2.724436    0.680746
     70          1           0       12.908689   -2.440542   -1.607528
     71          1           0       11.800546   -2.847906   -0.667857
     72          1           0       11.562038    0.468268    3.405639
     73          1           0       10.457794    1.310068    2.384636
     74          1           0       10.446957   -0.608653    2.818380
     75          1           0       13.544380    1.187655   -0.011071
     76          1           0       12.318972    2.282990    1.081793
     77          1           0       13.557798    1.432429    1.991253
     78          1           0       12.474383   -0.361374   -3.162506
     79          1           0       11.914397    1.079646   -2.196943
     80          1           0       13.473021    0.155912   -1.642105
     81          1           0       -5.404378    3.068829   -0.521756
     82          1           0        9.847928   -0.526277   -2.013529
     83          1           0       15.071092   -0.785902    0.524587
     84          1           0        8.682426    2.194923   -0.549338
     85          1           0       -2.265137    4.511394   -0.207523
     86          1           0       -2.745696    4.119019   -1.946674
     87          1           0       -3.935571    4.488790   -0.924422
     88          1           0       -2.642577    0.551630   -0.041694
     89          1           0        6.885353   -1.973366   -0.034102
     90          1           0        8.735683   -1.554513   -0.199237
     91          1           0        8.101271   -1.341078    1.356932
     92          1           0        6.416604    1.877075   -0.154817
     93          1           0       -0.620255    2.919556   -0.808560
     94          1           0        4.750343   -0.685881    0.375663
     95          1           0       -0.215799   -0.142010    0.209391
     96          1           0        3.939386    1.874159   -0.162107
     97          1           0        1.723155    2.223600   -0.418388
     98          1           0        1.115516   -1.168412    1.080851
     99          1           0        2.594224   -1.948653   -0.149460
    100          1           0        2.938873   -1.081068    1.431783
 ---------------------------------------------------------------------

 SCF Done:  E(RCAM-B3LYP) =  -1857.24821633     A.U. after   15 cycles

 Excitation energies and oscillator strengths:

 Excited State   1:      Singlet-A      2.2318 eV  555.53 nm  f=3.1812  <S**2>=0.000
     163 ->166         0.14754
     164 ->165         0.69092
 This state for optimization and/or second-order correction.
 Total Energy, E(TD-HF/TD-DFT) =  -1857.16619872
 Copying the excited state density for this state as the 1-particle RhoCI density.

 The electronic state is 1-A.
 Alpha  occ. eigenvalues --  -19.23482 -19.22730 -19.21517 -19.20744 -10.32884
 Alpha  occ. eigenvalues --  -10.32560 -10.31725 -10.31723 -10.31566 -10.29291
 Alpha  occ. eigenvalues --  -10.28572 -10.28539 -10.28167 -10.28081 -10.28048
 Alpha  occ. eigenvalues --  -10.27976 -10.27858 -10.27681 -10.27581 -10.27442
 Alpha  occ. eigenvalues --  -10.27386 -10.27201 -10.27155 -10.27011 -10.26856
 Alpha  occ. eigenvalues --  -10.26638 -10.26566 -10.26509 -10.26367 -10.26303
 Alpha  occ. eigenvalues --  -10.26258 -10.26119 -10.26044 -10.25931 -10.25907
 Alpha  occ. eigenvalues --  -10.25607 -10.25585 -10.25520 -10.25455 -10.25237
 Alpha  occ. eigenvalues --  -10.24613 -10.24463 -10.23944 -10.23881  -1.17285
 Alpha  occ. eigenvalues --   -1.13874  -1.09638  -1.08418  -0.93177  -0.92643
 Alpha  occ. eigenvalues --   -0.92192  -0.91707  -0.90933  -0.90369  -0.88048
 Alpha  occ. eigenvalues --   -0.86544  -0.86125  -0.85281  -0.84503  -0.83280
 Alpha  occ. eigenvalues --   -0.81712  -0.80636  -0.79916  -0.77962  -0.76970
 Alpha  occ. eigenvalues --   -0.76318  -0.75875  -0.75686  -0.75423  -0.75184
 Alpha  occ. eigenvalues --   -0.74723  -0.74067  -0.73601  -0.70668  -0.69968
 Alpha  occ. eigenvalues --   -0.69262  -0.67461  -0.65217  -0.64952  -0.64634
 Alpha  occ. eigenvalues --   -0.64293  -0.63357  -0.62044  -0.60651  -0.59870
 Alpha  occ. eigenvalues --   -0.59024  -0.58735  -0.58260  -0.57716  -0.56806
 Alpha  occ. eigenvalues --   -0.55883  -0.55730  -0.54879  -0.54763  -0.54231
 Alpha  occ. eigenvalues --   -0.54052  -0.52667  -0.52532  -0.51647  -0.51251
 Alpha  occ. eigenvalues --   -0.50795  -0.50530  -0.50407  -0.49781  -0.49427
 Alpha  occ. eigenvalues --   -0.49039  -0.48858  -0.48430  -0.48263  -0.48035
 Alpha  occ. eigenvalues --   -0.47848  -0.47572  -0.47382  -0.47304  -0.47007
 Alpha  occ. eigenvalues --   -0.46750  -0.46349  -0.46088  -0.45827  -0.45515
 Alpha  occ. eigenvalues --   -0.44962  -0.44898  -0.44541  -0.44173  -0.43926
 Alpha  occ. eigenvalues --   -0.43659  -0.43506  -0.43317  -0.42874  -0.42776
 Alpha  occ. eigenvalues --   -0.42521  -0.41984  -0.41883  -0.41776  -0.41680
 Alpha  occ. eigenvalues --   -0.41124  -0.40890  -0.40626  -0.40151  -0.39902
 Alpha  occ. eigenvalues --   -0.39486  -0.39166  -0.38909  -0.38522  -0.38336
 Alpha  occ. eigenvalues --   -0.38060  -0.37988  -0.37442  -0.37257  -0.36399
 Alpha  occ. eigenvalues --   -0.36000  -0.35521  -0.34878  -0.34642  -0.34430
 Alpha  occ. eigenvalues --   -0.32971  -0.32579  -0.31757  -0.31174  -0.31067
 Alpha  occ. eigenvalues --   -0.29018  -0.28231  -0.24532  -0.20120
 Alpha virt. eigenvalues --   -0.06198  -0.01340   0.03037   0.05435   0.07296
 Alpha virt. eigenvalues --    0.09094   0.09577   0.10178   0.11116   0.12148
 Alpha virt. eigenvalues --    0.12244   0.12421   0.12482   0.13109   0.13310

 Mulliken charges:
               1
     1  O   -0.499290
     2  O   -0.550518
     3  O   -0.560303
     4  O   -0.511221
     5  C    0.223742
     6  C    0.250592
     7  C    0.002166
     8  C   -0.235289
     9  C   -0.186154
    10  C    0.145158
    11  C   -0.320953
    12  C   -0.146786
    13  C   -0.287472
    14  C   -0.320625
    15  C   -0.049345
    16  C    0.066278
    17  C   -0.330554
    18  C   -0.101779
    19  C   -0.060527
    20  C    0.034336
    21  C    0.227031
    22  C   -0.203003
    23  C    0.157014
    24  C   -0.185484
    25  C   -0.030024
    26  C   -0.316865
    27  C   -0.313764
    28  C   -0.301200
    29  C   -0.125689
    30  C    0.156172
    31  C    0.111306
    32  C   -0.319175
    33  C   -0.383215
    34  C   -0.111120
    35  C    0.135866
    36  C   -0.401910
    37  C   -0.117828
    38  C   -0.089409
    39  C   -0.002191
    40  C   -0.089339
    41  C   -0.108761
    42  C   -0.093743
    43  C    0.079555
    44  C   -0.369448
    45  H    0.117149
    46  H    0.115514
    47  H    0.103285
    48  H    0.099304
    49  H    0.092922
    50  H    0.102190
    51  H    0.114038
    52  H    0.129104
    53  H    0.097870
    54  H    0.097323
    55  H    0.105021
    56  H    0.084802
    57  H    0.124838
    58  H    0.102680
    59  H    0.092121
    60  H    0.304427
    61  H    0.053704
    62  H    0.112241
    63  H    0.087429
    64  H    0.113656
    65  H    0.083542
    66  H    0.077254
    67  H    0.082415
    68  H    0.058396
    69  H    0.057501
    70  H    0.103188
    71  H    0.124182
    72  H    0.110051
    73  H    0.116596
    74  H    0.095607
    75  H    0.105622
    76  H    0.081699
    77  H    0.095156
    78  H    0.118387
    79  H    0.097378
    80  H    0.142446
    81  H    0.083115
    82  H    0.302643
    83  H    0.323687
    84  H    0.112005
    85  H    0.108977
    86  H    0.102535
    87  H    0.111288
    88  H    0.069747
    89  H    0.108936
    90  H    0.134364
    91  H    0.096884
    92  H    0.060087
    93  H    0.102849
    94  H    0.028356
    95  H    0.086335
    96  H    0.070456
    97  H    0.079059
    98  H    0.101640
    99  H    0.134109
   100  H    0.117657
 Sum of Mulliken charges =  -0.00000

 Dipole moment (field-independent basis, Debye):
    X=              3.3195    Y=              0.4016    Z=              2.2412  Tot=              4.0253
 Quadrupole moment (field-independent basis, Debye-Ang):
   XX=           -254.8057   YY=           -262.1914   ZZ=           -280.6238
   XY=             -1.1571   XZ=             32.7308   YZ=             -2.2321

 Normal termination of Gaussian 16 at Tue Jul 30 18:19:25 2019.
