 Gaussian 16, Revision A.03,
 Gaussian 16:  ES64L-G16RevA.03 25-Dec-2016

 -------------------------------------
 # td=(NStates=1) CAM-B3LYP/6-31G(d,p)
 -------------------------------------

 --
 TD
 --
 Symbolic Z-matrix:
 Charge =  0 Multiplicity = 1

                         Standard orientation:
 ---------------------------------------------------------------------
 Center     Atomic      Atomic             Coordinates (Angstroms)
 Number     Number       Type             X           Y           Z
 ---------------------------------------------------------------------
      1          8           0      -11.683550    0.137190   -1.562767
      2          8           0      -12.791823   -2.353912    1.513572
      3          8           0       10.429296   -0.967658   -2.048443
      4          8           0       14.364381   -1.205545   -0.175318
      5          6           0      -11.074008   -0.194060   -0.300352
      6          6           0      -11.648407   -1.156117   -1.157749
      7          6           0      -11.798052    0.393972    0.861858
      8          6           0      -13.019717   -1.864748   -0.783725
      9          6           0      -13.172615   -0.079956    0.848243
     10          6           0      -13.429998   -1.614914    0.626572
     11          6           0      -10.781904   -2.041019   -2.098465
     12          6           0       -9.555886    0.052186   -0.356353
     13          6           0      -11.051058    0.040695    2.237812
     14          6           0      -11.711289    1.913803    0.782941
     15          6           0       -8.569047   -0.759007    0.079970
     16          6           0       -7.132529   -0.570501    0.128478
     17          6           0       -6.294196   -1.736707    0.535367
     18          6           0       -6.560521    0.616831   -0.135962
     19          6           0       -5.196529    0.915378   -0.153148
     20          6           0       11.986606    0.080706    1.324612
     21          6           0       11.445448   -0.541331   -1.209368
     22          6           0       12.644999   -1.329682    1.529232
     23          6           0       13.194914   -1.909518    0.207647
     24          6           0       12.265555   -1.845045   -0.988332
     25          6           0       11.053672    0.032024    0.126006
     26          6           0       11.040603    0.366507    2.516897
     27          6           0       13.045997    1.216457    1.213481
     28          6           0       12.420005    0.378688   -2.055407
     29          6           0       -4.700753    2.130874   -0.406097
     30          6           0        9.883975    0.545514    0.120828
     31          6           0       -3.329477    2.532226   -0.344350
     32          6           0        8.664990    0.915970   -0.022112
     33          6           0       -3.025821    4.010648   -0.750387
     34          6           0       -2.319242    1.705507   -0.240539
     35          6           0        7.411963    0.118709    0.023318
     36          6           0        7.639147   -1.412870    0.203612
     37          6           0        6.282229    0.774955    0.028421
     38          6           0       -1.003280    2.071359   -0.346322
     39          6           0        4.977919    0.112797    0.017245
     40          6           0        0.022751    1.101105   -0.095897
     41          6           0        3.694598    0.844514   -0.026715
     42          6           0        1.448048    1.294885   -0.163837
     43          6           0        2.434724    0.337851   -0.052434
     44          6           0        2.187741   -1.132519    0.137584
     45          1           0      -12.925962   -3.003402   -1.122802
     46          1           0      -13.735643   -1.491205   -1.628103
     47          1           0      -13.552114    0.105983    1.796936
     48          1           0      -13.693904    0.605020    0.082416
     49          1           0      -14.579716   -1.770593    0.704913
     50          1           0      -10.648181   -2.956672   -1.751074
     51          1           0      -11.318260   -2.393169   -2.956839
     52          1           0       -9.949967   -1.402176   -2.326067
     53          1           0       -9.238442    0.970772   -0.763748
     54          1           0      -10.006300    0.471659    2.154294
     55          1           0      -11.577981    0.294232    3.031375
     56          1           0      -10.610504   -1.090931    2.304743
     57          1           0      -12.277483    2.200483   -0.177912
     58          1           0      -11.931947    2.434679    1.614902
     59          1           0      -10.640732    2.388156    0.505549
     60          1           0      -11.891511   -2.580181    1.206249
     61          1           0       -9.081189   -1.936745    0.199658
     62          1           0       -5.669185   -2.110248   -0.325091
     63          1           0       -5.476321   -1.630224    1.237209
     64          1           0       -6.967002   -2.459610    0.759869
     65          1           0       -7.311812    1.480699   -0.382811
     66          1           0       -4.253336    0.113743    0.013214
     67          1           0       13.190278   -1.451182    2.493983
     68          1           0       11.782826   -2.111930    1.575680
     69          1           0       13.564467   -2.773663    0.576416
     70          1           0       12.753491   -1.982107   -1.893465
     71          1           0       11.576852   -2.655095   -0.829809
     72          1           0       11.745411    0.169134    3.442350
     73          1           0       10.441028    1.318913    2.353555
     74          1           0       10.432046   -0.452883    2.429526
     75          1           0       13.376857    1.049972    0.299717
     76          1           0       12.663722    2.171124    1.175653
     77          1           0       13.774733    1.072802    2.057090
     78          1           0       12.356202   -0.394682   -2.945382
     79          1           0       11.874792    1.015650   -2.227534
     80          1           0       13.323569    0.737509   -1.635307
     81          1           0       -5.396729    2.971332   -0.532010
     82          1           0        9.902771   -0.229365   -2.215823
     83          1           0       14.666472   -1.102411    0.651280
     84          1           0        8.483445    2.080501   -0.101806
     85          1           0       -2.377225    4.456065    0.065654
     86          1           0       -2.171059    3.954016   -1.631801
     87          1           0       -3.922496    4.609089   -1.044250
     88          1           0       -2.628463    0.748049    0.025920
     89          1           0        6.709136   -1.903233   -0.140977
     90          1           0        8.514553   -1.653058   -0.334364
     91          1           0        7.849236   -1.698922    1.408730
     92          1           0        6.232392    1.828588   -0.112441
     93          1           0       -0.738678    3.048546   -0.444856
     94          1           0        5.171615   -1.062182    0.193623
     95          1           0       -0.411413    0.006638    0.038620
     96          1           0        3.738899    2.017084    0.041787
     97          1           0        1.862569    2.213281   -0.361337
     98          1           0        1.009474   -1.500217    0.174494
     99          1           0        2.586569   -1.793823   -0.729709
    100          1           0        2.624396   -1.721393    1.008123
 ---------------------------------------------------------------------

 SCF Done:  E(RCAM-B3LYP) =  -1857.22873273     A.U. after   15 cycles

 Excitation energies and oscillator strengths:

 Excited State   1:      Singlet-A      2.2689 eV  546.45 nm  f=3.0959  <S**2>=0.000
     163 ->166         0.13670
     164 ->165         0.69393
 This state for optimization and/or second-order correction.
 Total Energy, E(TD-HF/TD-DFT) =  -1857.14535189
 Copying the excited state density for this state as the 1-particle RhoCI density.

 The electronic state is 1-A.
 Alpha  occ. eigenvalues --  -19.22536 -19.22364 -19.22174 -19.19981 -10.32013
 Alpha  occ. eigenvalues --  -10.31777 -10.31536 -10.31184 -10.30169 -10.28824
 Alpha  occ. eigenvalues --  -10.28578 -10.28344 -10.28250 -10.28099 -10.28073
 Alpha  occ. eigenvalues --  -10.27750 -10.27684 -10.27498 -10.27466 -10.27426
 Alpha  occ. eigenvalues --  -10.27385 -10.27374 -10.27060 -10.26989 -10.26899
 Alpha  occ. eigenvalues --  -10.26753 -10.26562 -10.26423 -10.26420 -10.26330
 Alpha  occ. eigenvalues --  -10.26220 -10.26209 -10.26017 -10.25650 -10.24902
 Alpha  occ. eigenvalues --  -10.24869 -10.24827 -10.24782 -10.24272 -10.24168
 Alpha  occ. eigenvalues --  -10.23640 -10.23511 -10.23458 -10.22423  -1.18528
 Alpha  occ. eigenvalues --   -1.13541  -1.13525  -1.12404  -0.93998  -0.93291
 Alpha  occ. eigenvalues --   -0.92377  -0.91909  -0.91284  -0.90940  -0.87250
 Alpha  occ. eigenvalues --   -0.86845  -0.86433  -0.85531  -0.84531  -0.83256
 Alpha  occ. eigenvalues --   -0.82516  -0.80864  -0.80460  -0.78305  -0.77774
 Alpha  occ. eigenvalues --   -0.77689  -0.76799  -0.76588  -0.76337  -0.75843
 Alpha  occ. eigenvalues --   -0.75462  -0.74982  -0.73914  -0.71557  -0.70764
 Alpha  occ. eigenvalues --   -0.69668  -0.67734  -0.66276  -0.65939  -0.64901
 Alpha  occ. eigenvalues --   -0.63700  -0.62354  -0.60755  -0.60418  -0.60054
 Alpha  occ. eigenvalues --   -0.59587  -0.58855  -0.58459  -0.58254  -0.57226
 Alpha  occ. eigenvalues --   -0.56724  -0.55473  -0.55317  -0.55123  -0.54926
 Alpha  occ. eigenvalues --   -0.54412  -0.53982  -0.53692  -0.52981  -0.52158
 Alpha  occ. eigenvalues --   -0.52036  -0.51785  -0.51553  -0.50814  -0.50127
 Alpha  occ. eigenvalues --   -0.49738  -0.49638  -0.49312  -0.48722  -0.48347
 Alpha  occ. eigenvalues --   -0.47716  -0.47483  -0.47191  -0.47064  -0.46903
 Alpha  occ. eigenvalues --   -0.46734  -0.46510  -0.46103  -0.46010  -0.45868
 Alpha  occ. eigenvalues --   -0.45744  -0.45591  -0.45411  -0.44972  -0.44700
 Alpha  occ. eigenvalues --   -0.44327  -0.43607  -0.43538  -0.43048  -0.42616
 Alpha  occ. eigenvalues --   -0.42386  -0.42071  -0.41920  -0.41057  -0.40895
 Alpha  occ. eigenvalues --   -0.40874  -0.40627  -0.40501  -0.40331  -0.40106
 Alpha  occ. eigenvalues --   -0.39929  -0.39719  -0.39485  -0.38925  -0.38911
 Alpha  occ. eigenvalues --   -0.38879  -0.38300  -0.37930  -0.37824  -0.37448
 Alpha  occ. eigenvalues --   -0.36972  -0.36083  -0.35497  -0.34952  -0.34712
 Alpha  occ. eigenvalues --   -0.34276  -0.32697  -0.32232  -0.31392  -0.30785
 Alpha  occ. eigenvalues --   -0.29577  -0.28471  -0.24868  -0.20111
 Alpha virt. eigenvalues --   -0.06112  -0.00880   0.03389   0.06072   0.07730
 Alpha virt. eigenvalues --    0.08676   0.10458   0.10744   0.10863   0.12232
 Alpha virt. eigenvalues --    0.12298   0.12757   0.12986   0.13427   0.13614

 Mulliken charges:
               1
     1  O   -0.485208
     2  O   -0.505374
     3  O   -0.535402
     4  O   -0.521123
     5  C    0.190570
     6  C    0.234764
     7  C    0.026067
     8  C   -0.230062
     9  C   -0.185152
    10  C    0.164579
    11  C   -0.324096
    12  C   -0.115833
    13  C   -0.292578
    14  C   -0.301582
    15  C   -0.083953
    16  C    0.104441
    17  C   -0.368995
    18  C   -0.126628
    19  C   -0.057985
    20  C    0.004159
    21  C    0.180079
    22  C   -0.259659
    23  C    0.143640
    24  C   -0.159196
    25  C   -0.060972
    26  C   -0.286131
    27  C   -0.287031
    28  C   -0.258009
    29  C   -0.108868
    30  C    0.186731
    31  C    0.090069
    32  C   -0.349287
    33  C   -0.377507
    34  C   -0.071526
    35  C    0.127987
    36  C   -0.354618
    37  C   -0.082518
    38  C   -0.073864
    39  C   -0.122464
    40  C   -0.106265
    41  C   -0.169550
    42  C   -0.136327
    43  C    0.206318
    44  C   -0.382150
    45  H    0.074054
    46  H    0.113398
    47  H    0.096063
    48  H    0.096059
    49  H    0.082945
    50  H    0.104176
    51  H    0.106982
    52  H    0.123005
    53  H    0.099469
    54  H    0.106815
    55  H    0.114405
    56  H    0.060222
    57  H    0.112619
    58  H    0.115203
    59  H    0.077665
    60  H    0.313450
    61  H    0.046554
    62  H    0.114991
    63  H    0.127198
    64  H    0.112541
    65  H    0.080848
    66  H    0.071914
    67  H    0.104393
    68  H    0.096595
    69  H    0.090690
    70  H    0.119210
    71  H    0.103662
    72  H    0.071900
    73  H    0.110947
    74  H    0.114257
    75  H    0.122761
    76  H    0.107293
    77  H    0.086558
    78  H    0.102536
    79  H    0.080869
    80  H    0.135603
    81  H    0.077608
    82  H    0.301927
    83  H    0.286085
    84  H    0.091676
    85  H    0.121189
    86  H    0.102056
    87  H    0.110074
    88  H    0.064326
    89  H    0.109458
    90  H    0.141745
    91  H    0.096813
    92  H    0.080471
    93  H    0.082975
    94  H    0.079903
    95  H    0.078387
    96  H    0.087251
    97  H    0.080427
    98  H    0.088343
    99  H    0.116914
   100  H    0.125032
 Sum of Mulliken charges =  -0.00000

 Dipole moment (field-independent basis, Debye):
    X=              2.4372    Y=             -0.2128    Z=              1.6641  Tot=              2.9588
 Quadrupole moment (field-independent basis, Debye-Ang):
   XX=           -295.2392   YY=           -256.2747   ZZ=           -280.4305
   XY=              6.0749   XZ=             29.4283   YZ=             -2.0604

 Normal termination of Gaussian 16 at Fri Aug  2 12:36:48 2019.
