 Gaussian 16, Revision A.03,
 Gaussian 16:  ES64L-G16RevA.03 25-Dec-2016

 -------------------------------------
 # td=(NStates=1) CAM-B3LYP/6-31G(d,p)
 -------------------------------------

 --
 TD
 --
 Symbolic Z-matrix:
 Charge =  0 Multiplicity = 1

                         Standard orientation:
 ---------------------------------------------------------------------
 Center     Atomic      Atomic             Coordinates (Angstroms)
 Number     Number       Type             X           Y           Z
 ---------------------------------------------------------------------
      1          8           0      -11.729830   -0.134812   -1.663017
      2          8           0      -12.831517   -2.497920    1.553141
      3          8           0       10.622465   -1.524358   -1.992358
      4          8           0       14.400758   -1.062236   -0.137919
      5          6           0      -11.019597   -0.244981   -0.315330
      6          6           0      -11.563975   -1.398636   -1.119039
      7          6           0      -11.865039    0.351275    0.910804
      8          6           0      -12.979813   -2.045889   -0.835263
      9          6           0      -13.227415   -0.182155    0.821282
     10          6           0      -13.395938   -1.703404    0.578019
     11          6           0      -10.711335   -2.296671   -2.072157
     12          6           0       -9.630139    0.117224   -0.436244
     13          6           0      -11.022199    0.066223    2.215221
     14          6           0      -11.881143    1.774600    0.597545
     15          6           0       -8.624461   -0.651007    0.177971
     16          6           0       -7.264291   -0.472751    0.197861
     17          6           0       -6.343616   -1.660853    0.570322
     18          6           0       -6.524182    0.721711   -0.060791
     19          6           0       -5.097465    1.087588   -0.022554
     20          6           0       11.927303    0.081062    1.280441
     21          6           0       11.646658   -0.895919   -1.257328
     22          6           0       12.717703   -1.107433    1.607198
     23          6           0       13.360383   -1.867612    0.402871
     24          6           0       12.422355   -2.135424   -0.776647
     25          6           0       11.094215   -0.103277    0.028666
     26          6           0       10.989457    0.372883    2.447216
     27          6           0       12.858159    1.351650    1.278950
     28          6           0       12.379088    0.083461   -2.085097
     29          6           0       -4.774547    2.296938   -0.415604
     30          6           0        9.922753    0.427335   -0.200158
     31          6           0       -3.403499    2.824907   -0.462687
     32          6           0        8.653592    0.845117   -0.403351
     33          6           0       -3.076149    4.151870   -0.846385
     34          6           0       -2.295279    1.948262   -0.139830
     35          6           0        7.427147    0.109208   -0.059762
     36          6           0        7.543122   -1.308348    0.477259
     37          6           0        6.272893    0.710680   -0.332868
     38          6           0       -0.925752    2.186686   -0.299248
     39          6           0        4.868396    0.225416   -0.116105
     40          6           0        0.078714    1.186411    0.032523
     41          6           0        3.744618    1.015121   -0.236756
     42          6           0        1.475458    1.428435   -0.223685
     43          6           0        2.383509    0.514807   -0.066771
     44          6           0        2.271369   -0.711671    0.635578
     45          1           0      -12.878229   -3.239884   -1.216468
     46          1           0      -13.689693   -1.581889   -1.732927
     47          1           0      -13.711099   -0.086867    1.832157
     48          1           0      -13.854187    0.470579   -0.002124
     49          1           0      -14.476476   -1.977393    0.685596
     50          1           0      -10.656095   -3.461790   -1.704513
     51          1           0      -11.084516   -2.450525   -3.276411
     52          1           0       -9.628608   -1.759364   -2.268933
     53          1           0       -9.354197    1.131383   -0.961992
     54          1           0       -9.937560    0.492342    2.211040
     55          1           0      -11.628529    0.505632    3.125389
     56          1           0      -10.969513   -1.046034    2.584171
     57          1           0      -12.560273    2.030436   -0.227582
     58          1           0      -12.565109    2.074372    1.326453
     59          1           0      -10.910255    2.197589    0.475133
     60          1           0      -11.932347   -2.292169    1.287024
     61          1           0       -8.878828   -1.554814    0.682080
     62          1           0       -5.665988   -1.815000   -0.279183
     63          1           0       -5.816613   -1.341043    1.447801
     64          1           0       -7.009905   -2.549922    0.917629
     65          1           0       -7.177524    1.554784   -0.567043
     66          1           0       -4.542725    0.298121    0.319206
     67          1           0       13.515359   -0.922532    2.435545
     68          1           0       12.013902   -1.908434    2.108628
     69          1           0       13.708101   -2.980711    0.648550
     70          1           0       12.956847   -2.623976   -1.624230
     71          1           0       11.628216   -2.799961   -0.304477
     72          1           0       11.613376    0.944073    3.346018
     73          1           0       10.280769    1.161044    2.116977
     74          1           0       10.334955   -0.345938    2.776706
     75          1           0       13.790297    1.225338    0.616984
     76          1           0       12.293097    2.261276    0.977179
     77          1           0       13.473148    1.348890    2.153279
     78          1           0       12.724458   -0.590746   -2.919454
     79          1           0       11.857927    0.828696   -2.415391
     80          1           0       13.245545    0.437550   -1.580243
     81          1           0       -5.466633    3.034944   -0.898627
     82          1           0        9.950744   -0.867734   -2.395422
     83          1           0       15.269676   -0.967226    0.466754
     84          1           0        8.414793    1.858206   -0.530345
     85          1           0       -2.231978    4.637107   -0.412224
     86          1           0       -2.793134    4.214040   -1.883642
     87          1           0       -4.051500    4.845835   -0.848402
     88          1           0       -2.826060    0.899060    0.298962
     89          1           0        6.531844   -1.847536    0.047047
     90          1           0        8.285526   -2.067048   -0.061312
     91          1           0        7.699978   -1.322388    1.509314
     92          1           0        6.426764    1.833597   -0.587025
     93          1           0       -0.425426    3.105987   -0.469699
     94          1           0        4.794698   -0.748083    0.409809
     95          1           0       -0.231088    0.218952    0.498315
     96          1           0        3.968016    1.973219   -0.731634
     97          1           0        1.631985    2.360870   -0.631871
     98          1           0        1.187645   -1.243893    0.562828
     99          1           0        2.816201   -1.486864   -0.124368
    100          1           0        2.378892   -0.866586    1.853800
 ---------------------------------------------------------------------

 SCF Done:  E(RCAM-B3LYP) =  -1857.26880234     A.U. after   15 cycles

 Excitation energies and oscillator strengths:

 Excited State   1:      Singlet-A      2.2614 eV  548.25 nm  f=2.6680  <S**2>=0.000
     163 ->166         0.13222
     164 ->165         0.69261
 This state for optimization and/or second-order correction.
 Total Energy, E(TD-HF/TD-DFT) =  -1857.18569589
 Copying the excited state density for this state as the 1-particle RhoCI density.

 The electronic state is 1-A.
 Alpha  occ. eigenvalues --  -19.22347 -19.22037 -19.21450 -19.20872 -10.32260
 Alpha  occ. eigenvalues --  -10.32220 -10.31951 -10.31343 -10.30742 -10.28676
 Alpha  occ. eigenvalues --  -10.28396 -10.28214 -10.28080 -10.28065 -10.27849
 Alpha  occ. eigenvalues --  -10.27837 -10.27764 -10.27739 -10.27726 -10.27603
 Alpha  occ. eigenvalues --  -10.27587 -10.27522 -10.27472 -10.27153 -10.27049
 Alpha  occ. eigenvalues --  -10.27015 -10.26936 -10.26853 -10.26752 -10.26743
 Alpha  occ. eigenvalues --  -10.26717 -10.26633 -10.26519 -10.26502 -10.26471
 Alpha  occ. eigenvalues --  -10.26411 -10.26391 -10.25914 -10.25439 -10.25430
 Alpha  occ. eigenvalues --  -10.25161 -10.24752 -10.23441 -10.21805  -1.13921
 Alpha  occ. eigenvalues --   -1.12545  -1.08928  -1.08205  -0.93280  -0.93028
 Alpha  occ. eigenvalues --   -0.92725  -0.92226  -0.90610  -0.90433  -0.87288
 Alpha  occ. eigenvalues --   -0.85970  -0.85577  -0.84712  -0.84289  -0.82845
 Alpha  occ. eigenvalues --   -0.82155  -0.80400  -0.78719  -0.78363  -0.76783
 Alpha  occ. eigenvalues --   -0.76577  -0.76017  -0.75739  -0.75472  -0.75422
 Alpha  occ. eigenvalues --   -0.75199  -0.74102  -0.72906  -0.70141  -0.69518
 Alpha  occ. eigenvalues --   -0.68555  -0.66982  -0.65330  -0.64971  -0.63371
 Alpha  occ. eigenvalues --   -0.63203  -0.61605  -0.61120  -0.59470  -0.59140
 Alpha  occ. eigenvalues --   -0.58742  -0.58225  -0.57764  -0.57102  -0.56528
 Alpha  occ. eigenvalues --   -0.55785  -0.55254  -0.55109  -0.54476  -0.54200
 Alpha  occ. eigenvalues --   -0.53776  -0.53156  -0.52863  -0.51958  -0.51785
 Alpha  occ. eigenvalues --   -0.51287  -0.50681  -0.50110  -0.49898  -0.49761
 Alpha  occ. eigenvalues --   -0.49482  -0.49242  -0.48919  -0.48681  -0.48435
 Alpha  occ. eigenvalues --   -0.48336  -0.48036  -0.47955  -0.47552  -0.46990
 Alpha  occ. eigenvalues --   -0.46481  -0.46089  -0.45504  -0.45016  -0.44897
 Alpha  occ. eigenvalues --   -0.44621  -0.44342  -0.44086  -0.43772  -0.43693
 Alpha  occ. eigenvalues --   -0.43258  -0.43042  -0.42487  -0.42286  -0.42099
 Alpha  occ. eigenvalues --   -0.41901  -0.41801  -0.41079  -0.40932  -0.40882
 Alpha  occ. eigenvalues --   -0.40590  -0.40026  -0.39911  -0.39626  -0.39350
 Alpha  occ. eigenvalues --   -0.39103  -0.38815  -0.38699  -0.38614  -0.38189
 Alpha  occ. eigenvalues --   -0.37908  -0.37615  -0.37337  -0.37260  -0.36977
 Alpha  occ. eigenvalues --   -0.36110  -0.35714  -0.35354  -0.34602  -0.34470
 Alpha  occ. eigenvalues --   -0.32745  -0.32406  -0.32027  -0.31009  -0.30378
 Alpha  occ. eigenvalues --   -0.29665  -0.26895  -0.24476  -0.20346
 Alpha virt. eigenvalues --   -0.05932  -0.00990   0.02190   0.06315   0.06917
 Alpha virt. eigenvalues --    0.09036   0.09552   0.09688   0.10881   0.11045
 Alpha virt. eigenvalues --    0.11940   0.12681   0.12782   0.12927   0.13368

 Mulliken charges:
               1
     1  O   -0.501259
     2  O   -0.511080
     3  O   -0.570766
     4  O   -0.552212
     5  C    0.181237
     6  C    0.248452
     7  C    0.041764
     8  C   -0.183755
     9  C   -0.203154
    10  C    0.121495
    11  C   -0.315989
    12  C   -0.130448
    13  C   -0.322474
    14  C   -0.295564
    15  C   -0.067541
    16  C    0.053577
    17  C   -0.374315
    18  C   -0.132517
    19  C   -0.039878
    20  C    0.041355
    21  C    0.247325
    22  C   -0.178121
    23  C    0.150067
    24  C   -0.173148
    25  C   -0.085110
    26  C   -0.292353
    27  C   -0.302846
    28  C   -0.281775
    29  C   -0.101222
    30  C    0.148402
    31  C    0.103997
    32  C   -0.296767
    33  C   -0.399681
    34  C   -0.104059
    35  C    0.147282
    36  C   -0.374001
    37  C   -0.129051
    38  C   -0.110854
    39  C   -0.116815
    40  C   -0.089847
    41  C   -0.104033
    42  C   -0.090336
    43  C    0.139890
    44  C   -0.380234
    45  H    0.076645
    46  H    0.106919
    47  H    0.105200
    48  H    0.102331
    49  H    0.091501
    50  H    0.080049
    51  H    0.091504
    52  H    0.102507
    53  H    0.111087
    54  H    0.122728
    55  H    0.095927
    56  H    0.098239
    57  H    0.120650
    58  H    0.102630
    59  H    0.107653
    60  H    0.300372
    61  H    0.079931
    62  H    0.135420
    63  H    0.131336
    64  H    0.094016
    65  H    0.057762
    66  H    0.096335
    67  H    0.079686
    68  H    0.079858
    69  H    0.064946
    70  H    0.114214
    71  H    0.110436
    72  H    0.071182
    73  H    0.105480
    74  H    0.108502
    75  H    0.097095
    76  H    0.108939
    77  H    0.102864
    78  H    0.093058
    79  H    0.099639
    80  H    0.134573
    81  H    0.096340
    82  H    0.306132
    83  H    0.308542
    84  H    0.099059
    85  H    0.132390
    86  H    0.134614
    87  H    0.089257
    88  H    0.063195
    89  H    0.089526
    90  H    0.121656
    91  H    0.134214
    92  H    0.067441
    93  H    0.091916
    94  H    0.096419
    95  H    0.085073
    96  H    0.082814
    97  H    0.080115
    98  H    0.087828
    99  H    0.111047
   100  H    0.127567
 Sum of Mulliken charges =  -0.00000

 Dipole moment (field-independent basis, Debye):
    X=              4.0766    Y=              1.4640    Z=              2.0015  Tot=              4.7716
 Quadrupole moment (field-independent basis, Debye-Ang):
   XX=           -273.4342   YY=           -264.7606   ZZ=           -277.9885
   XY=             -8.5785   XZ=             21.6873   YZ=             -6.0872

 Normal termination of Gaussian 16 at Tue Jul 30 17:10:21 2019.
