 Gaussian 16, Revision A.03,
 Gaussian 16:  ES64L-G16RevA.03 25-Dec-2016

 -------------------------------------
 # td=(NStates=1) CAM-B3LYP/6-31G(d,p)
 -------------------------------------

 --
 TD
 --
 Symbolic Z-matrix:
 Charge =  0 Multiplicity = 1

                         Standard orientation:
 ---------------------------------------------------------------------
 Center     Atomic      Atomic             Coordinates (Angstroms)
 Number     Number       Type             X           Y           Z
 ---------------------------------------------------------------------
      1          8           0      -11.657605    0.273858   -1.490711
      2          8           0      -12.811098   -2.711263    1.158155
      3          8           0       10.389979   -1.086833   -2.077476
      4          8           0       14.402037   -1.395908   -0.088215
      5          6           0      -11.023481   -0.137494   -0.346572
      6          6           0      -11.460236   -1.078191   -1.318425
      7          6           0      -11.776883    0.158273    0.907278
      8          6           0      -12.866756   -1.831257   -1.146485
      9          6           0      -13.271386   -0.389557    0.960782
     10          6           0      -13.478698   -1.739989    0.261234
     11          6           0      -10.591701   -1.700831   -2.343340
     12          6           0       -9.478928    0.073236   -0.426812
     13          6           0      -11.078441   -0.445743    2.275158
     14          6           0      -11.814356    1.762163    1.065078
     15          6           0       -8.548246   -0.710329    0.113931
     16          6           0       -7.129390   -0.565778    0.223703
     17          6           0       -6.349793   -1.766068    0.669325
     18          6           0       -6.540887    0.631583    0.035579
     19          6           0       -5.181697    1.000248   -0.043775
     20          6           0       11.872053   -0.032074    1.232628
     21          6           0       11.546398   -0.765708   -1.271324
     22          6           0       12.560678   -1.345291    1.457851
     23          6           0       13.193937   -2.095285    0.199879
     24          6           0       12.276536   -2.118932   -0.890907
     25          6           0       10.993217   -0.082704   -0.050444
     26          6           0       11.167437    0.310681    2.556504
     27          6           0       13.004454    1.079391    1.172520
     28          6           0       12.390186    0.224087   -2.185155
     29          6           0       -4.666539    2.281592   -0.392624
     30          6           0        9.769721    0.585865   -0.103587
     31          6           0       -3.392870    2.724054   -0.381556
     32          6           0        8.616174    1.067723   -0.227834
     33          6           0       -3.141453    4.141716   -0.679507
     34          6           0       -2.307083    1.624183   -0.288392
     35          6           0        7.471518    0.245387   -0.030134
     36          6           0        7.641054   -1.075782    0.159666
     37          6           0        6.266209    0.933029   -0.010197
     38          6           0       -0.945898    2.046694   -0.397106
     39          6           0        4.965729    0.401092    0.153275
     40          6           0       -0.022780    1.108897   -0.094740
     41          6           0        3.778779    1.105921    0.015863
     42          6           0        1.403790    1.420343    0.053207
     43          6           0        2.437412    0.555048    0.170003
     44          6           0        2.161082   -0.924779    0.535413
     45          1           0      -12.752634   -2.978145   -1.357430
     46          1           0      -13.683087   -1.496380   -1.720018
     47          1           0      -13.648703   -0.331050    1.937485
     48          1           0      -13.818757    0.323911    0.317471
     49          1           0      -14.563567   -2.179407    0.212111
     50          1           0      -10.488271   -2.808236   -2.071975
     51          1           0      -11.202349   -1.523118   -3.213223
     52          1           0       -9.675231   -1.118788   -2.465795
     53          1           0       -9.233163    1.133793   -0.916658
     54          1           0      -10.217841    0.169518    2.519633
     55          1           0      -11.867587   -0.303978    3.058843
     56          1           0      -10.534040   -1.453819    2.140756
     57          1           0      -12.247847    2.207152    0.081124
     58          1           0      -12.506314    2.209974    1.996910
     59          1           0      -10.844205    2.129504    1.453413
     60          1           0      -11.823160   -2.536329    1.334015
     61          1           0       -8.808559   -1.623971    0.474305
     62          1           0       -5.684216   -2.252473    0.003267
     63          1           0       -5.603615   -1.293826    1.503810
     64          1           0       -7.039193   -2.475023    0.929377
     65          1           0       -7.061030    1.624009   -0.342253
     66          1           0       -4.622321    0.131298    0.216044
     67          1           0       13.397389   -1.419031    2.272980
     68          1           0       11.819494   -2.176295    1.682742
     69          1           0       13.145739   -3.149057    0.274597
     70          1           0       12.868546   -2.316891   -1.767181
     71          1           0       11.501638   -2.902689   -0.743151
     72          1           0       11.560697    0.240877    3.614475
     73          1           0       10.580749    1.286196    2.660914
     74          1           0       10.161798   -0.241192    2.612719
     75          1           0       13.964531    0.760961    0.381256
     76          1           0       12.581181    2.141157    1.206332
     77          1           0       13.319335    1.024208    2.211931
     78          1           0       12.601716   -0.254455   -3.248812
     79          1           0       11.897150    1.275327   -2.103898
     80          1           0       13.505688    0.385126   -1.968259
     81          1           0       -5.320277    3.086133   -0.487103
     82          1           0        9.854507   -0.294180   -2.302374
     83          1           0       14.956121   -1.383963    0.740112
     84          1           0        8.427557    2.068727   -0.226255
     85          1           0       -2.597837    4.450052    0.154550
     86          1           0       -2.329946    4.369979   -1.490528
     87          1           0       -3.843843    4.746635   -0.988314
     88          1           0       -2.641827    0.614251   -0.260535
     89          1           0        6.863650   -1.737622    0.015572
     90          1           0        8.375737   -1.238034   -0.481108
     91          1           0        8.047857   -1.165418    1.131555
     92          1           0        6.516706    2.016242   -0.297604
     93          1           0       -0.807953    3.038036   -0.481454
     94          1           0        4.964137   -0.696044    0.338788
     95          1           0       -0.560273    0.157769   -0.065466
     96          1           0        4.019865    2.224773   -0.098651
     97          1           0        1.637985    2.464991    0.291248
     98          1           0        1.149365   -1.249456   -0.180079
     99          1           0        3.118565   -1.515278    0.169377
    100          1           0        1.910264   -0.857781    1.786627
 ---------------------------------------------------------------------

 SCF Done:  E(RCAM-B3LYP) =  -1857.22938102     A.U. after   15 cycles

 Excitation energies and oscillator strengths:

 Excited State   1:      Singlet-A      1.9307 eV  642.16 nm  f=2.4521  <S**2>=0.000
     163 ->166         0.11578
     164 ->165         0.70484
     164 <-165        -0.12378
 This state for optimization and/or second-order correction.
 Total Energy, E(TD-HF/TD-DFT) =  -1857.15842804
 Copying the excited state density for this state as the 1-particle RhoCI density.

 The electronic state is 1-A.
 Alpha  occ. eigenvalues --  -19.22860 -19.22104 -19.20727 -19.18699 -10.32804
 Alpha  occ. eigenvalues --  -10.31537 -10.31182 -10.30965 -10.30746 -10.30349
 Alpha  occ. eigenvalues --  -10.29453 -10.28774 -10.28614 -10.27847 -10.27605
 Alpha  occ. eigenvalues --  -10.27425 -10.27414 -10.27318 -10.27063 -10.26981
 Alpha  occ. eigenvalues --  -10.26890 -10.26836 -10.26771 -10.26626 -10.26490
 Alpha  occ. eigenvalues --  -10.26489 -10.26341 -10.26301 -10.26239 -10.26105
 Alpha  occ. eigenvalues --  -10.25986 -10.25871 -10.25838 -10.25800 -10.25771
 Alpha  occ. eigenvalues --  -10.25758 -10.25681 -10.25537 -10.25450 -10.25354
 Alpha  occ. eigenvalues --  -10.25060 -10.24850 -10.24710 -10.21910  -1.19599
 Alpha  occ. eigenvalues --   -1.10311  -1.08651  -1.04773  -0.95024  -0.92535
 Alpha  occ. eigenvalues --   -0.92304  -0.91435  -0.90472  -0.88681  -0.87919
 Alpha  occ. eigenvalues --   -0.87495  -0.85701  -0.85119  -0.84821  -0.83588
 Alpha  occ. eigenvalues --   -0.82379  -0.81876  -0.80384  -0.78369  -0.77600
 Alpha  occ. eigenvalues --   -0.76708  -0.76070  -0.75532  -0.75174  -0.74950
 Alpha  occ. eigenvalues --   -0.74340  -0.74176  -0.72723  -0.70626  -0.70043
 Alpha  occ. eigenvalues --   -0.68171  -0.67302  -0.65216  -0.65156  -0.64704
 Alpha  occ. eigenvalues --   -0.64633  -0.62498  -0.61381  -0.59966  -0.59408
 Alpha  occ. eigenvalues --   -0.59264  -0.58747  -0.58113  -0.57821  -0.56764
 Alpha  occ. eigenvalues --   -0.56013  -0.55357  -0.54987  -0.54782  -0.54200
 Alpha  occ. eigenvalues --   -0.53528  -0.52913  -0.52407  -0.51939  -0.51743
 Alpha  occ. eigenvalues --   -0.51630  -0.51438  -0.50917  -0.50374  -0.49780
 Alpha  occ. eigenvalues --   -0.49014  -0.48950  -0.48759  -0.48264  -0.48035
 Alpha  occ. eigenvalues --   -0.47794  -0.47717  -0.47439  -0.47306  -0.47002
 Alpha  occ. eigenvalues --   -0.46637  -0.46171  -0.45786  -0.45634  -0.45400
 Alpha  occ. eigenvalues --   -0.45283  -0.45074  -0.44688  -0.44409  -0.44211
 Alpha  occ. eigenvalues --   -0.44127  -0.43583  -0.43388  -0.42970  -0.42518
 Alpha  occ. eigenvalues --   -0.42310  -0.42004  -0.41953  -0.41095  -0.41018
 Alpha  occ. eigenvalues --   -0.40815  -0.40186  -0.40069  -0.39916  -0.39464
 Alpha  occ. eigenvalues --   -0.39040  -0.38984  -0.38730  -0.38415  -0.38261
 Alpha  occ. eigenvalues --   -0.38126  -0.37660  -0.37108  -0.36878  -0.36466
 Alpha  occ. eigenvalues --   -0.35991  -0.35816  -0.35501  -0.34890  -0.33308
 Alpha  occ. eigenvalues --   -0.32619  -0.32053  -0.31828  -0.31269  -0.30289
 Alpha  occ. eigenvalues --   -0.28662  -0.28164  -0.23908  -0.18858
 Alpha virt. eigenvalues --   -0.06337  -0.00915   0.03526   0.04623   0.06935
 Alpha virt. eigenvalues --    0.09661   0.10612   0.10880   0.11057   0.12001
 Alpha virt. eigenvalues --    0.12690   0.13267   0.13530   0.13658   0.13819

 Mulliken charges:
               1
     1  O   -0.479368
     2  O   -0.591956
     3  O   -0.572245
     4  O   -0.550809
     5  C    0.241795
     6  C    0.208111
     7  C   -0.001540
     8  C   -0.194160
     9  C   -0.168292
    10  C    0.146904
    11  C   -0.315892
    12  C   -0.149190
    13  C   -0.318891
    14  C   -0.316041
    15  C   -0.032671
    16  C    0.069994
    17  C   -0.367551
    18  C   -0.105901
    19  C   -0.074265
    20  C    0.047626
    21  C    0.264932
    22  C   -0.185366
    23  C    0.169618
    24  C   -0.215675
    25  C   -0.041264
    26  C   -0.339155
    27  C   -0.297217
    28  C   -0.314661
    29  C   -0.127200
    30  C    0.107901
    31  C    0.073647
    32  C   -0.286037
    33  C   -0.375918
    34  C   -0.122567
    35  C    0.130219
    36  C   -0.364763
    37  C   -0.121108
    38  C   -0.038884
    39  C   -0.101181
    40  C   -0.086863
    41  C   -0.109035
    42  C   -0.137389
    43  C    0.092483
    44  C   -0.325266
    45  H    0.097053
    46  H    0.113760
    47  H    0.112893
    48  H    0.092524
    49  H    0.092481
    50  H    0.100610
    51  H    0.121505
    52  H    0.123815
    53  H    0.095961
    54  H    0.110700
    55  H    0.117121
    56  H    0.079376
    57  H    0.124879
    58  H    0.070701
    59  H    0.114161
    60  H    0.301877
    61  H    0.055159
    62  H    0.130834
    63  H    0.105547
    64  H    0.111192
    65  H    0.062384
    66  H    0.062551
    67  H    0.071252
    68  H    0.083997
    69  H    0.097644
    70  H    0.124138
    71  H    0.125430
    72  H    0.115745
    73  H    0.098512
    74  H    0.091845
    75  H    0.106570
    76  H    0.097654
    77  H    0.098099
    78  H    0.103213
    79  H    0.096186
    80  H    0.117715
    81  H    0.076102
    82  H    0.310438
    83  H    0.314875
    84  H    0.107577
    85  H    0.138975
    86  H    0.106633
    87  H    0.123974
    88  H    0.100271
    89  H    0.110070
    90  H    0.134586
    91  H    0.129839
    92  H    0.062524
    93  H    0.071986
    94  H    0.077464
    95  H    0.083967
    96  H    0.085673
    97  H    0.090941
    98  H    0.099585
    99  H    0.106639
   100  H    0.117893
 Sum of Mulliken charges =  -0.00000

 Dipole moment (field-independent basis, Debye):
    X=              5.4086    Y=              0.7650    Z=              2.1266  Tot=              5.8618
 Quadrupole moment (field-independent basis, Debye-Ang):
   XX=           -283.4853   YY=           -260.9314   ZZ=           -275.4991
   XY=            -16.2174   XZ=             27.1893   YZ=             -0.7809

 Normal termination of Gaussian 16 at Wed Jul 31 04:46:57 2019.
