 Gaussian 16, Revision A.03,
 Gaussian 16:  ES64L-G16RevA.03 25-Dec-2016

 -------------------------------------
 # td=(NStates=1) CAM-B3LYP/6-31G(d,p)
 -------------------------------------

 --
 TD
 --
 Symbolic Z-matrix:
 Charge =  0 Multiplicity = 1

                         Standard orientation:
 ---------------------------------------------------------------------
 Center     Atomic      Atomic             Coordinates (Angstroms)
 Number     Number       Type             X           Y           Z
 ---------------------------------------------------------------------
      1          8           0      -11.599177    0.037952   -1.798343
      2          8           0      -13.040699   -2.467186    1.529219
      3          8           0       10.639192   -0.822693   -2.259587
      4          8           0       14.372774   -1.110283    0.004061
      5          6           0      -10.994649   -0.310627   -0.438213
      6          6           0      -11.551248   -1.240817   -1.288790
      7          6           0      -11.716582    0.365324    0.777356
      8          6           0      -12.960468   -1.885784   -0.816508
      9          6           0      -13.230389   -0.052419    0.841006
     10          6           0      -13.530114   -1.534531    0.609001
     11          6           0      -10.750175   -2.216883   -2.077811
     12          6           0       -9.498591    0.077459   -0.481379
     13          6           0      -10.924401   -0.027580    2.071745
     14          6           0      -11.641434    1.913374    0.702120
     15          6           0       -8.522386   -0.719326    0.164382
     16          6           0       -7.107594   -0.598484    0.243130
     17          6           0       -6.261704   -1.802184    0.686967
     18          6           0       -6.675879    0.705615   -0.017380
     19          6           0       -5.278811    1.091431   -0.004739
     20          6           0       11.831266   -0.125541    1.351539
     21          6           0       11.725975   -0.530350   -1.341567
     22          6           0       12.522733   -1.530545    1.423863
     23          6           0       13.280637   -1.970676    0.147472
     24          6           0       12.406651   -1.885942   -0.989407
     25          6           0       11.011252    0.026481    0.035010
     26          6           0       10.962862    0.101993    2.573297
     27          6           0       12.865299    0.986867    1.415198
     28          6           0       12.648630    0.444036   -1.950145
     29          6           0       -4.786561    2.311608   -0.258022
     30          6           0        9.856040    0.617525    0.001151
     31          6           0       -3.358095    2.622629   -0.294456
     32          6           0        8.632054    1.014621   -0.147228
     33          6           0       -3.106231    4.020081   -0.615674
     34          6           0       -2.268398    1.749775   -0.154806
     35          6           0        7.442876    0.191458    0.022101
     36          6           0        7.637371   -1.216890    0.221728
     37          6           0        6.206234    0.851075   -0.135543
     38          6           0       -0.988352    1.966843   -0.155480
     39          6           0        4.948674    0.182116   -0.071213
     40          6           0       -0.037268    1.001894    0.029852
     41          6           0        3.779076    0.907425   -0.135588
     42          6           0        1.327991    1.270248   -0.069345
     43          6           0        2.377661    0.387106   -0.062839
     44          6           0        2.160996   -1.092702    0.097548
     45          1           0      -13.034229   -2.822175   -1.127114
     46          1           0      -13.816383   -1.520150   -1.560851
     47          1           0      -13.832765    0.398060    1.779869
     48          1           0      -13.541726    0.413205   -0.155848
     49          1           0      -14.601743   -1.615808    0.632358
     50          1           0      -10.600414   -3.118845   -1.608544
     51          1           0      -11.357270   -2.367196   -3.039729
     52          1           0       -9.763048   -1.772804   -2.359123
     53          1           0       -9.540949    1.079323   -1.080420
     54          1           0      -10.131004    0.438434    2.003434
     55          1           0      -11.601640    0.328453    2.859196
     56          1           0      -10.862728   -1.265046    2.271411
     57          1           0      -12.029311    2.218569   -0.224290
     58          1           0      -12.269377    2.393132    1.335057
     59          1           0      -10.656154    2.194011    1.151846
     60          1           0      -12.020555   -2.324161    1.354800
     61          1           0       -8.993176   -1.656748    0.435545
     62          1           0       -5.836752   -2.366195   -0.106194
     63          1           0       -5.222067   -1.494741    1.120564
     64          1           0       -6.838764   -2.581720    1.047952
     65          1           0       -7.450319    1.566104   -0.144740
     66          1           0       -4.420654    0.305523    0.203594
     67          1           0       13.197266   -1.452893    2.339581
     68          1           0       11.711010   -2.204019    1.484372
     69          1           0       13.616776   -2.998066    0.351364
     70          1           0       12.972979   -2.106141   -1.948367
     71          1           0       11.405191   -2.665314   -1.003345
     72          1           0       11.518909    0.111215    3.592690
     73          1           0       10.391352    1.116686    2.393269
     74          1           0       10.156097   -0.517059    2.876743
     75          1           0       13.673481    0.791003    0.697784
     76          1           0       12.497301    2.090026    1.146819
     77          1           0       13.275567    1.193337    2.448545
     78          1           0       13.146474   -0.076705   -2.926415
     79          1           0       12.246291    1.413340   -2.261306
     80          1           0       13.562304    0.739273   -1.177637
     81          1           0       -5.281574    3.282627   -0.548787
     82          1           0       10.051362   -0.056724   -2.003253
     83          1           0       14.820177   -1.301617    0.747545
     84          1           0        8.438701    1.993046   -0.455690
     85          1           0       -2.364267    4.479255    0.095912
     86          1           0       -2.542103    4.201517   -1.669125
     87          1           0       -4.167348    4.481722   -0.833429
     88          1           0       -2.403952    0.733267    0.292391
     89          1           0        6.832678   -1.922761    0.063015
     90          1           0        8.385577   -1.564406   -0.574884
     91          1           0        7.950491   -1.196361    1.249536
     92          1           0        6.321498    1.994638   -0.292336
     93          1           0       -1.021337    2.985767   -0.389093
     94          1           0        4.906312   -0.924841    0.122134
     95          1           0       -0.333199    0.063626    0.270650
     96          1           0        3.713093    1.957093   -0.048729
     97          1           0        1.524605    2.251984   -0.306870
     98          1           0        1.170087   -1.667798    0.254029
     99          1           0        2.495167   -1.559208   -0.843500
    100          1           0        2.967658   -1.591278    0.814811
 ---------------------------------------------------------------------

 SCF Done:  E(RCAM-B3LYP) =  -1857.29180531     A.U. after   15 cycles

 Excitation energies and oscillator strengths:

 Excited State   1:      Singlet-A      2.1918 eV  565.67 nm  f=3.0174  <S**2>=0.000
     163 ->166         0.13642
     164 ->165         0.69382
 This state for optimization and/or second-order correction.
 Total Energy, E(TD-HF/TD-DFT) =  -1857.21125824
 Copying the excited state density for this state as the 1-particle RhoCI density.

 The electronic state is 1-A.
 Alpha  occ. eigenvalues --  -19.21983 -19.21879 -19.21671 -19.20875 -10.32716
 Alpha  occ. eigenvalues --  -10.31918 -10.31666 -10.31346 -10.30526 -10.28743
 Alpha  occ. eigenvalues --  -10.28416 -10.28399 -10.28362 -10.28025 -10.27946
 Alpha  occ. eigenvalues --  -10.27882 -10.27666 -10.27623 -10.27526 -10.27517
 Alpha  occ. eigenvalues --  -10.27370 -10.27292 -10.27168 -10.27148 -10.26976
 Alpha  occ. eigenvalues --  -10.26897 -10.26896 -10.26875 -10.26637 -10.26437
 Alpha  occ. eigenvalues --  -10.26422 -10.26031 -10.25941 -10.25804 -10.25404
 Alpha  occ. eigenvalues --  -10.25237 -10.25124 -10.25092 -10.25068 -10.24933
 Alpha  occ. eigenvalues --  -10.24862 -10.24821 -10.24690 -10.24045  -1.15232
 Alpha  occ. eigenvalues --   -1.14194  -1.09322  -1.08589  -0.93463  -0.93080
 Alpha  occ. eigenvalues --   -0.91889  -0.91707  -0.90864  -0.90347  -0.88189
 Alpha  occ. eigenvalues --   -0.86941  -0.85782  -0.85220  -0.84426  -0.83476
 Alpha  occ. eigenvalues --   -0.82544  -0.81450  -0.81056  -0.79500  -0.77679
 Alpha  occ. eigenvalues --   -0.77534  -0.77109  -0.75895  -0.75738  -0.75476
 Alpha  occ. eigenvalues --   -0.74956  -0.74855  -0.73198  -0.71024  -0.69697
 Alpha  occ. eigenvalues --   -0.68383  -0.66993  -0.66445  -0.64763  -0.63880
 Alpha  occ. eigenvalues --   -0.63531  -0.62291  -0.61404  -0.60221  -0.59741
 Alpha  occ. eigenvalues --   -0.59389  -0.58214  -0.58016  -0.57909  -0.57184
 Alpha  occ. eigenvalues --   -0.56405  -0.56169  -0.55431  -0.54731  -0.54560
 Alpha  occ. eigenvalues --   -0.54068  -0.53309  -0.52663  -0.52605  -0.51543
 Alpha  occ. eigenvalues --   -0.51399  -0.51343  -0.51074  -0.50810  -0.50295
 Alpha  occ. eigenvalues --   -0.50041  -0.49654  -0.49034  -0.48758  -0.48537
 Alpha  occ. eigenvalues --   -0.48004  -0.47842  -0.47301  -0.47082  -0.46754
 Alpha  occ. eigenvalues --   -0.46576  -0.46343  -0.46226  -0.46121  -0.45673
 Alpha  occ. eigenvalues --   -0.45446  -0.44777  -0.44530  -0.44290  -0.43850
 Alpha  occ. eigenvalues --   -0.43793  -0.43576  -0.43379  -0.43088  -0.42971
 Alpha  occ. eigenvalues --   -0.42572  -0.41879  -0.41666  -0.41404  -0.40872
 Alpha  occ. eigenvalues --   -0.40827  -0.40713  -0.40504  -0.40373  -0.40073
 Alpha  occ. eigenvalues --   -0.39808  -0.39686  -0.39105  -0.38833  -0.38465
 Alpha  occ. eigenvalues --   -0.38314  -0.37973  -0.37671  -0.37467  -0.37250
 Alpha  occ. eigenvalues --   -0.37231  -0.36569  -0.35332  -0.34531  -0.34385
 Alpha  occ. eigenvalues --   -0.32807  -0.32371  -0.31908  -0.31802  -0.31208
 Alpha  occ. eigenvalues --   -0.30429  -0.27413  -0.24584  -0.19787
 Alpha virt. eigenvalues --   -0.06091  -0.01112   0.02184   0.06645   0.07487
 Alpha virt. eigenvalues --    0.08216   0.10119   0.10471   0.11067   0.12026
 Alpha virt. eigenvalues --    0.12322   0.12896   0.13133   0.13577   0.13952

 Mulliken charges:
               1
     1  O   -0.512630
     2  O   -0.528002
     3  O   -0.566739
     4  O   -0.501339
     5  C    0.121052
     6  C    0.316324
     7  C   -0.009220
     8  C   -0.246190
     9  C   -0.198281
    10  C    0.154012
    11  C   -0.338055
    12  C   -0.107518
    13  C   -0.271207
    14  C   -0.318246
    15  C   -0.118406
    16  C    0.122717
    17  C   -0.380634
    18  C   -0.123265
    19  C   -0.093223
    20  C    0.029183
    21  C    0.249532
    22  C   -0.199719
    23  C    0.146606
    24  C   -0.193015
    25  C   -0.073776
    26  C   -0.308707
    27  C   -0.307082
    28  C   -0.274343
    29  C   -0.080568
    30  C    0.102666
    31  C    0.084456
    32  C   -0.271608
    33  C   -0.398078
    34  C   -0.104654
    35  C    0.120432
    36  C   -0.372196
    37  C   -0.112228
    38  C   -0.023024
    39  C   -0.102760
    40  C   -0.090653
    41  C   -0.106194
    42  C   -0.124821
    43  C    0.120681
    44  C   -0.395227
    45  H    0.105181
    46  H    0.087303
    47  H    0.083634
    48  H    0.113114
    49  H    0.101998
    50  H    0.112778
    51  H    0.107723
    52  H    0.118310
    53  H    0.129202
    54  H    0.122887
    55  H    0.110215
    56  H    0.052689
    57  H    0.131436
    58  H    0.117213
    59  H    0.098502
    60  H    0.298826
    61  H    0.076122
    62  H    0.135945
    63  H    0.119955
    64  H    0.125530
    65  H    0.102505
    66  H    0.085570
    67  H    0.079930
    68  H    0.105868
    69  H    0.090556
    70  H    0.107849
    71  H    0.101750
    72  H    0.084317
    73  H    0.097972
    74  H    0.103367
    75  H    0.127291
    76  H    0.082564
    77  H    0.089060
    78  H    0.092936
    79  H    0.103753
    80  H    0.108897
    81  H    0.077622
    82  H    0.309155
    83  H    0.297260
    84  H    0.107009
    85  H    0.132464
    86  H    0.108499
    87  H    0.099548
    88  H    0.049340
    89  H    0.112878
    90  H    0.128405
    91  H    0.135072
    92  H    0.082208
    93  H    0.056981
    94  H    0.092932
    95  H    0.076252
    96  H    0.087042
    97  H    0.075744
    98  H    0.114232
    99  H    0.129332
   100  H    0.099224
 Sum of Mulliken charges =  -0.00000

 Dipole moment (field-independent basis, Debye):
    X=              2.6780    Y=             -0.4869    Z=              2.4773  Tot=              3.6805
 Quadrupole moment (field-independent basis, Debye-Ang):
   XX=           -283.9645   YY=           -256.7253   ZZ=           -284.7207
   XY=            -16.9341   XZ=             30.5073   YZ=             -1.6930

 Normal termination of Gaussian 16 at Mon Jul 29 01:17:09 2019.
