 Gaussian 16, Revision A.03,
 Gaussian 16:  ES64L-G16RevA.03 25-Dec-2016

 -------------------------------------
 # td=(NStates=1) CAM-B3LYP/6-31G(d,p)
 -------------------------------------

 --
 TD
 --
 Symbolic Z-matrix:
 Charge =  0 Multiplicity = 1

                         Standard orientation:
 ---------------------------------------------------------------------
 Center     Atomic      Atomic             Coordinates (Angstroms)
 Number     Number       Type             X           Y           Z
 ---------------------------------------------------------------------
      1          8           0      -11.773441    0.361660   -1.505883
      2          8           0      -12.864383   -2.457044    1.443611
      3          8           0       10.661173   -1.174130   -2.033949
      4          8           0       14.408754   -0.954907    0.047899
      5          6           0      -11.079378   -0.120556   -0.248318
      6          6           0      -11.743364   -1.113591   -1.107611
      7          6           0      -11.711897    0.323572    1.036907
      8          6           0      -13.085393   -1.773096   -0.858937
      9          6           0      -13.102219   -0.100786    1.018554
     10          6           0      -13.496718   -1.487294    0.581658
     11          6           0      -10.917393   -1.885466   -2.222841
     12          6           0       -9.568671    0.068339   -0.265143
     13          6           0      -10.892714   -0.160323    2.295513
     14          6           0      -11.623043    1.851107    1.032526
     15          6           0       -8.611191   -0.788179    0.074279
     16          6           0       -7.221761   -0.668389    0.090832
     17          6           0       -6.412789   -1.846056    0.371931
     18          6           0       -6.559383    0.520382   -0.237194
     19          6           0       -5.248500    0.777146   -0.260501
     20          6           0       11.884526    0.079367    1.408782
     21          6           0       11.778904   -0.638385   -1.203069
     22          6           0       12.620458   -1.297480    1.609522
     23          6           0       13.256410   -1.883685    0.367095
     24          6           0       12.368860   -1.988862   -0.852650
     25          6           0       11.089978    0.021251    0.015108
     26          6           0       10.878579    0.157679    2.544405
     27          6           0       12.800659    1.277709    1.467667
     28          6           0       12.510526    0.309858   -1.932485
     29          6           0       -4.733713    2.135019   -0.410191
     30          6           0        9.916304    0.495704   -0.019391
     31          6           0       -3.409962    2.561817   -0.355725
     32          6           0        8.682221    0.941292   -0.059591
     33          6           0       -3.058465    3.940011   -0.561744
     34          6           0       -2.320594    1.643557   -0.407978
     35          6           0        7.447544    0.206463    0.070341
     36          6           0        7.655290   -1.278531    0.164052
     37          6           0        6.234572    0.774467   -0.154479
     38          6           0       -0.978997    1.868887   -0.334959
     39          6           0        4.975223    0.247137   -0.203995
     40          6           0        0.138331    0.952315   -0.271328
     41          6           0        3.794475    0.939703   -0.316490
     42          6           0        1.457453    1.323174   -0.363583
     43          6           0        2.537715    0.387936   -0.319263
     44          6           0        2.256608   -0.961995    0.064724
     45          1           0      -12.992505   -2.766857   -1.258625
     46          1           0      -13.830307   -1.359549   -1.589389
     47          1           0      -13.624201    0.198491    1.919272
     48          1           0      -13.761180    0.695125    0.257540
     49          1           0      -14.513885   -1.651664    0.658352
     50          1           0      -10.774923   -2.804148   -1.816786
     51          1           0      -11.527332   -2.051510   -3.146306
     52          1           0       -9.960349   -1.385504   -2.521538
     53          1           0       -9.468127    1.116946   -0.838501
     54          1           0      -10.097934    0.406481    2.364699
     55          1           0      -11.711764   -0.055127    3.146016
     56          1           0      -10.600608   -1.215583    2.052932
     57          1           0      -12.036825    2.723450    0.248426
     58          1           0      -12.183283    1.987176    2.069438
     59          1           0      -10.564761    2.036866    1.416391
     60          1           0      -11.985568   -2.056920    1.252785
     61          1           0       -9.086243   -1.688192    0.385218
     62          1           0       -5.710201   -2.148295   -0.420403
     63          1           0       -5.644519   -1.636505    1.263428
     64          1           0       -6.985477   -2.719202    0.642244
     65          1           0       -7.314498    1.204419   -0.097102
     66          1           0       -4.685003   -0.067739   -0.166273
     67          1           0       13.226961   -1.343136    2.351594
     68          1           0       11.737864   -2.033591    1.940946
     69          1           0       13.619621   -2.756925    0.610245
     70          1           0       13.026235   -2.237692   -1.627528
     71          1           0       11.588115   -2.616371   -0.642862
     72          1           0       11.372475   -0.015945    3.473125
     73          1           0       10.222986    1.042595    2.542572
     74          1           0       10.040714   -0.590556    2.300482
     75          1           0       13.605773    1.509100    0.804358
     76          1           0       12.096693    2.126376    1.244530
     77          1           0       13.167736    1.531249    2.525550
     78          1           0       13.100796   -0.130805   -2.769302
     79          1           0       11.836044    1.224744   -2.426796
     80          1           0       13.572151    0.682445   -1.557255
     81          1           0       -5.563555    2.763170   -0.636428
     82          1           0       10.004072   -0.513692   -2.405730
     83          1           0       14.999858   -1.006061    0.698940
     84          1           0        8.407625    2.014260   -0.123337
     85          1           0       -2.604561    4.228172    0.321281
     86          1           0       -2.670789    4.242717   -1.351628
     87          1           0       -3.826155    4.485318   -0.627302
     88          1           0       -2.411170    0.431318   -0.316059
     89          1           0        6.714412   -1.862198   -0.018225
     90          1           0        8.364108   -1.615517   -0.630028
     91          1           0        8.199543   -1.383662    1.004166
     92          1           0        6.365385    1.811034   -0.376239
     93          1           0       -0.448172    2.853410   -0.617669
     94          1           0        5.082403   -0.930818   -0.165894
     95          1           0       -0.440959    0.075993    0.294765
     96          1           0        3.869300    2.043466   -0.536613
     97          1           0        1.746056    2.425710   -0.581005
     98          1           0        1.209452   -1.512945   -0.297287
     99          1           0        3.032928   -1.420625   -0.546890
    100          1           0        2.307782   -1.354638    1.227703
 ---------------------------------------------------------------------

 SCF Done:  E(RCAM-B3LYP) =  -1857.19348716     A.U. after   17 cycles

 Excitation energies and oscillator strengths:

 Excited State   1:      Singlet-A      1.6411 eV  755.48 nm  f=2.9415  <S**2>=0.000
     163 ->166        -0.10795
     164 ->165         0.71561
     164 <-165        -0.16535
 This state for optimization and/or second-order correction.
 Total Energy, E(TD-HF/TD-DFT) =  -1857.13317660
 Copying the excited state density for this state as the 1-particle RhoCI density.

 The electronic state is 1-A.
 Alpha  occ. eigenvalues --  -19.21128 -19.21008 -19.20615 -19.20267 -10.32145
 Alpha  occ. eigenvalues --  -10.31992 -10.31959 -10.30211 -10.30195 -10.28662
 Alpha  occ. eigenvalues --  -10.27830 -10.27662 -10.27434 -10.27421 -10.27296
 Alpha  occ. eigenvalues --  -10.27275 -10.27231 -10.27198 -10.27191 -10.27129
 Alpha  occ. eigenvalues --  -10.27013 -10.26996 -10.26952 -10.26771 -10.26766
 Alpha  occ. eigenvalues --  -10.26666 -10.26642 -10.26400 -10.26345 -10.26322
 Alpha  occ. eigenvalues --  -10.26167 -10.26088 -10.25833 -10.25828 -10.25780
 Alpha  occ. eigenvalues --  -10.25327 -10.25051 -10.24844 -10.24738 -10.24710
 Alpha  occ. eigenvalues --  -10.24632 -10.24302 -10.24191 -10.21209  -1.10474
 Alpha  occ. eigenvalues --   -1.09653  -1.09335  -1.07034  -0.93381  -0.93281
 Alpha  occ. eigenvalues --   -0.92867  -0.92526  -0.91728  -0.91222  -0.87951
 Alpha  occ. eigenvalues --   -0.87455  -0.86953  -0.86423  -0.85885  -0.84123
 Alpha  occ. eigenvalues --   -0.82962  -0.81527  -0.80842  -0.79650  -0.77688
 Alpha  occ. eigenvalues --   -0.77533  -0.77279  -0.76891  -0.76604  -0.76036
 Alpha  occ. eigenvalues --   -0.75803  -0.75315  -0.73026  -0.71773  -0.70695
 Alpha  occ. eigenvalues --   -0.69554  -0.67923  -0.65490  -0.64841  -0.64641
 Alpha  occ. eigenvalues --   -0.64166  -0.62667  -0.60174  -0.59721  -0.59582
 Alpha  occ. eigenvalues --   -0.59293  -0.58503  -0.58040  -0.57799  -0.57052
 Alpha  occ. eigenvalues --   -0.56006  -0.55830  -0.55464  -0.55031  -0.54392
 Alpha  occ. eigenvalues --   -0.54091  -0.53644  -0.53542  -0.52499  -0.52024
 Alpha  occ. eigenvalues --   -0.51955  -0.51700  -0.51537  -0.50872  -0.50631
 Alpha  occ. eigenvalues --   -0.49732  -0.49351  -0.49271  -0.48795  -0.48746
 Alpha  occ. eigenvalues --   -0.48279  -0.48160  -0.48078  -0.47571  -0.46849
 Alpha  occ. eigenvalues --   -0.46225  -0.46053  -0.45684  -0.45587  -0.45508
 Alpha  occ. eigenvalues --   -0.45162  -0.44454  -0.44393  -0.44165  -0.43889
 Alpha  occ. eigenvalues --   -0.43650  -0.43281  -0.43191  -0.42740  -0.42590
 Alpha  occ. eigenvalues --   -0.42261  -0.42145  -0.41674  -0.41634  -0.41381
 Alpha  occ. eigenvalues --   -0.41365  -0.40349  -0.40116  -0.39839  -0.39474
 Alpha  occ. eigenvalues --   -0.39371  -0.39240  -0.38998  -0.38802  -0.38319
 Alpha  occ. eigenvalues --   -0.38058  -0.37478  -0.36880  -0.36665  -0.36356
 Alpha  occ. eigenvalues --   -0.36133  -0.36071  -0.35226  -0.34796  -0.34338
 Alpha  occ. eigenvalues --   -0.33412  -0.32968  -0.32079  -0.31579  -0.31115
 Alpha  occ. eigenvalues --   -0.30744  -0.28124  -0.24144  -0.18041
 Alpha virt. eigenvalues --   -0.08103  -0.01296   0.03120   0.06542   0.07411
 Alpha virt. eigenvalues --    0.09544   0.10194   0.10821   0.11372   0.11719
 Alpha virt. eigenvalues --    0.12144   0.12688   0.12981   0.13298   0.13690

 Mulliken charges:
               1
     1  O   -0.526425
     2  O   -0.538021
     3  O   -0.594121
     4  O   -0.560722
     5  C    0.193902
     6  C    0.204267
     7  C   -0.024585
     8  C   -0.187687
     9  C   -0.176507
    10  C    0.104464
    11  C   -0.334385
    12  C   -0.124976
    13  C   -0.281526
    14  C   -0.284374
    15  C   -0.083682
    16  C    0.095411
    17  C   -0.396642
    18  C   -0.089235
    19  C   -0.046022
    20  C    0.040434
    21  C    0.280308
    22  C   -0.165444
    23  C    0.124144
    24  C   -0.158017
    25  C   -0.164899
    26  C   -0.312552
    27  C   -0.298568
    28  C   -0.317459
    29  C   -0.133725
    30  C    0.269063
    31  C    0.062187
    32  C   -0.326561
    33  C   -0.336084
    34  C   -0.099318
    35  C    0.128895
    36  C   -0.378296
    37  C   -0.109793
    38  C   -0.097036
    39  C   -0.095046
    40  C   -0.086003
    41  C   -0.105787
    42  C   -0.133407
    43  C    0.131341
    44  C   -0.357804
    45  H    0.116060
    46  H    0.122302
    47  H    0.104226
    48  H    0.084467
    49  H    0.100782
    50  H    0.112324
    51  H    0.110228
    52  H    0.123548
    53  H    0.109942
    54  H    0.128809
    55  H    0.112328
    56  H    0.092139
    57  H    0.122442
    58  H    0.075605
    59  H    0.096827
    60  H    0.301891
    61  H    0.075624
    62  H    0.129564
    63  H    0.102345
    64  H    0.109070
    65  H    0.073696
    66  H    0.075483
    67  H    0.090260
    68  H    0.069342
    69  H    0.091295
    70  H    0.121442
    71  H    0.135761
    72  H    0.103949
    73  H    0.109483
    74  H    0.097906
    75  H    0.125527
    76  H    0.094582
    77  H    0.082743
    78  H    0.107937
    79  H    0.083846
    80  H    0.135618
    81  H    0.091286
    82  H    0.301611
    83  H    0.291799
    84  H    0.100188
    85  H    0.129336
    86  H    0.131593
    87  H    0.105009
    88  H    0.061972
    89  H    0.098524
    90  H    0.133344
    91  H    0.128985
    92  H    0.062194
    93  H    0.063815
    94  H    0.076422
    95  H    0.083087
    96  H    0.087548
    97  H    0.086810
    98  H    0.097613
    99  H    0.117688
   100  H    0.112078
 Sum of Mulliken charges =  -0.00000

 Dipole moment (field-independent basis, Debye):
    X=              4.7128    Y=              0.2769    Z=              1.6333  Tot=              4.9955
 Quadrupole moment (field-independent basis, Debye-Ang):
   XX=           -245.9679   YY=           -260.9942   ZZ=           -276.2353
   XY=            -11.0501   XZ=             20.7099   YZ=             -0.5963

 Normal termination of Gaussian 16 at Fri Aug  2 01:55:40 2019.
