 Gaussian 16, Revision A.03,
 Gaussian 16:  ES64L-G16RevA.03 25-Dec-2016

 -------------------------------------
 # td=(NStates=1) CAM-B3LYP/6-31G(d,p)
 -------------------------------------

 --
 TD
 --
 Symbolic Z-matrix:
 Charge =  0 Multiplicity = 1

                         Standard orientation:
 ---------------------------------------------------------------------
 Center     Atomic      Atomic             Coordinates (Angstroms)
 Number     Number       Type             X           Y           Z
 ---------------------------------------------------------------------
      1          8           0       11.671199    0.299895    1.478845
      2          8           0       13.207370   -2.600616   -1.217567
      3          8           0      -10.566020   -1.080331    2.103409
      4          8           0      -14.498796   -1.030851    0.000281
      5          6           0       11.027955   -0.137713    0.228183
      6          6           0       11.613033   -1.141190    1.359019
      7          6           0       11.836599    0.299380   -0.925364
      8          6           0       13.073376   -1.644953    1.087302
      9          6           0       13.279788   -0.062881   -0.838048
     10          6           0       13.665026   -1.526811   -0.291089
     11          6           0       10.823393   -1.846712    2.334034
     12          6           0        9.565028    0.062020    0.351617
     13          6           0       11.185757   -0.229402   -2.258747
     14          6           0       11.594719    1.863184   -0.957834
     15          6           0        8.655578   -0.750498   -0.148491
     16          6           0        7.224343   -0.523768   -0.244349
     17          6           0        6.358490   -1.712584   -0.508897
     18          6           0        6.544755    0.683371    0.022094
     19          6           0        5.183095    1.009106    0.173301
     20          6           0      -11.893042    0.075440   -1.275625
     21          6           0      -11.686566   -0.538502    1.459516
     22          6           0      -12.492502   -1.328834   -1.343510
     23          6           0      -13.319420   -1.791306   -0.245992
     24          6           0      -12.565646   -1.900960    1.042081
     25          6           0      -11.131320    0.100383    0.113738
     26          6           0      -10.877044    0.249196   -2.432591
     27          6           0      -12.872255    1.121932   -1.279056
     28          6           0      -12.572191    0.437221    2.164213
     29          6           0        4.610629    2.244619    0.346891
     30          6           0       -9.884624    0.564074    0.054459
     31          6           0        3.324725    2.513602    0.418611
     32          6           0       -8.644475    0.976403    0.133852
     33          6           0        2.948965    3.962716    0.744794
     34          6           0        2.212804    1.611986    0.168822
     35          6           0       -7.421288    0.145237   -0.109821
     36          6           0       -7.689849   -1.326182   -0.406148
     37          6           0       -6.241885    0.789505    0.094717
     38          6           0        0.915014    1.863145    0.252461
     39          6           0       -5.050702    0.201780   -0.167878
     40          6           0       -0.061665    0.821275   -0.013491
     41          6           0       -3.812629    0.852777    0.110791
     42          6           0       -1.373544    0.986558    0.014577
     43          6           0       -2.464470    0.334848   -0.226200
     44          6           0       -2.277712   -1.195167   -0.597126
     45          1           0       13.038723   -2.641829    1.410022
     46          1           0       13.743848   -1.010068    1.564808
     47          1           0       13.826200    0.078881   -1.757771
     48          1           0       14.050384    0.694213   -0.285065
     49          1           0       14.809611   -1.554377   -0.466812
     50          1           0       10.653030   -2.962786    2.156061
     51          1           0       11.310510   -1.761755    3.294751
     52          1           0        9.952756   -1.419742    2.639030
     53          1           0        9.357171    1.108221    0.778026
     54          1           0       10.093021    0.221319   -2.337072
     55          1           0       11.906981    0.248082   -3.032831
     56          1           0       11.166430   -1.390141   -2.281883
     57          1           0       11.935026    2.307124    0.034239
     58          1           0       12.193162    2.321605   -1.795378
     59          1           0       10.688317    2.317980   -1.262110
     60          1           0       12.256862   -2.842031   -1.058851
     61          1           0        8.949066   -1.688724   -0.596087
     62          1           0        5.869214   -2.255866    0.451268
     63          1           0        5.503511   -1.383633   -1.190831
     64          1           0        6.762276   -2.519555   -1.102789
     65          1           0        7.153586    1.544966    0.208526
     66          1           0        4.544269    0.109434    0.031121
     67          1           0      -13.216695   -1.259176   -2.219576
     68          1           0      -11.722947   -2.216829   -1.450685
     69          1           0      -13.850683   -2.817216   -0.372971
     70          1           0      -13.312067   -2.209112    1.864133
     71          1           0      -11.667092   -2.755352    0.971364
     72          1           0      -11.427737    0.245206   -3.346126
     73          1           0      -10.362083    1.176004   -2.377235
     74          1           0      -10.320669   -0.713387   -2.718420
     75          1           0      -13.596573    1.157313   -0.300786
     76          1           0      -12.295788    1.975907   -1.506108
     77          1           0      -13.598191    1.040541   -2.210860
     78          1           0      -12.832002   -0.006066    3.267809
     79          1           0      -12.292711    1.545088    2.219983
     80          1           0      -13.495445    0.214476    1.648659
     81          1           0        5.308205    2.981699    0.482660
     82          1           0      -10.017039   -0.210368    2.132953
     83          1           0      -14.805799   -0.719588   -1.006150
     84          1           0       -8.447902    1.988553    0.451710
     85          1           0        2.281168    4.571780    0.095477
     86          1           0        2.435897    4.211257    1.562566
     87          1           0        3.940311    4.598793    0.880103
     88          1           0        2.605388    0.573195   -0.201237
     89          1           0       -6.722060   -2.026938   -0.391476
     90          1           0       -8.515707   -1.787946    0.207905
     91          1           0       -8.123782   -1.448882   -1.416181
     92          1           0       -6.240188    1.878004    0.428085
     93          1           0        0.630126    2.854067    0.392555
     94          1           0       -4.794619   -0.857634   -0.528185
     95          1           0        0.319510   -0.187324   -0.106418
     96          1           0       -3.678020    1.938835    0.407305
     97          1           0       -1.568786    1.864552    0.440147
     98          1           0       -1.186855   -1.181190   -0.867151
     99          1           0       -2.623752   -1.807661    0.285538
    100          1           0       -2.940856   -1.510450   -1.468395
 ---------------------------------------------------------------------

 SCF Done:  E(RCAM-B3LYP) =  -1857.31909466     A.U. after   16 cycles

 Excitation energies and oscillator strengths:

 Excited State   1:      Singlet-A      1.8272 eV  678.55 nm  f=2.9281  <S**2>=0.000
     163 ->166        -0.10793
     164 ->165         0.71108
     164 <-165        -0.14619
 This state for optimization and/or second-order correction.
 Total Energy, E(TD-HF/TD-DFT) =  -1857.25194675
 Copying the excited state density for this state as the 1-particle RhoCI density.

 The electronic state is 1-A.
 Alpha  occ. eigenvalues --  -19.22788 -19.21777 -19.21157 -19.20680 -10.33206
 Alpha  occ. eigenvalues --  -10.32465 -10.32103 -10.31497 -10.30905 -10.28594
 Alpha  occ. eigenvalues --  -10.28557 -10.27920 -10.27918 -10.27650 -10.27485
 Alpha  occ. eigenvalues --  -10.27458 -10.27412 -10.27345 -10.27324 -10.27187
 Alpha  occ. eigenvalues --  -10.27087 -10.27050 -10.26920 -10.26789 -10.26719
 Alpha  occ. eigenvalues --  -10.26685 -10.26675 -10.26625 -10.26610 -10.26533
 Alpha  occ. eigenvalues --  -10.26510 -10.26438 -10.26369 -10.26249 -10.26087
 Alpha  occ. eigenvalues --  -10.26049 -10.25756 -10.25407 -10.25371 -10.25290
 Alpha  occ. eigenvalues --  -10.25054 -10.24846 -10.24813 -10.23236  -1.12616
 Alpha  occ. eigenvalues --   -1.10188  -1.09041  -1.06311  -0.93822  -0.93209
 Alpha  occ. eigenvalues --   -0.92358  -0.91527  -0.91090  -0.89988  -0.87764
 Alpha  occ. eigenvalues --   -0.87030  -0.86403  -0.85881  -0.84851  -0.83602
 Alpha  occ. eigenvalues --   -0.82608  -0.81662  -0.80919  -0.78969  -0.77157
 Alpha  occ. eigenvalues --   -0.76816  -0.76763  -0.76354  -0.75965  -0.75758
 Alpha  occ. eigenvalues --   -0.74745  -0.73973  -0.73365  -0.70400  -0.69291
 Alpha  occ. eigenvalues --   -0.68203  -0.67096  -0.65595  -0.64765  -0.64331
 Alpha  occ. eigenvalues --   -0.64138  -0.61956  -0.60697  -0.60151  -0.59964
 Alpha  occ. eigenvalues --   -0.58467  -0.58354  -0.57661  -0.57028  -0.56647
 Alpha  occ. eigenvalues --   -0.56149  -0.55747  -0.55049  -0.54555  -0.54045
 Alpha  occ. eigenvalues --   -0.53805  -0.53256  -0.52911  -0.52324  -0.51958
 Alpha  occ. eigenvalues --   -0.51746  -0.51422  -0.50465  -0.50355  -0.49406
 Alpha  occ. eigenvalues --   -0.49068  -0.48896  -0.48596  -0.48321  -0.48009
 Alpha  occ. eigenvalues --   -0.47860  -0.47759  -0.47329  -0.47002  -0.46760
 Alpha  occ. eigenvalues --   -0.46559  -0.46343  -0.46181  -0.45902  -0.45720
 Alpha  occ. eigenvalues --   -0.45293  -0.44853  -0.44472  -0.44230  -0.44012
 Alpha  occ. eigenvalues --   -0.43761  -0.43546  -0.43373  -0.43091  -0.42493
 Alpha  occ. eigenvalues --   -0.42308  -0.41903  -0.41789  -0.41601  -0.41104
 Alpha  occ. eigenvalues --   -0.41055  -0.40765  -0.40454  -0.40100  -0.40032
 Alpha  occ. eigenvalues --   -0.39598  -0.39361  -0.39189  -0.39111  -0.38985
 Alpha  occ. eigenvalues --   -0.38777  -0.37781  -0.37687  -0.37644  -0.37039
 Alpha  occ. eigenvalues --   -0.36974  -0.36522  -0.35583  -0.34753  -0.33350
 Alpha  occ. eigenvalues --   -0.32610  -0.32153  -0.31777  -0.31582  -0.29766
 Alpha  occ. eigenvalues --   -0.29641  -0.28268  -0.24803  -0.18708
 Alpha virt. eigenvalues --   -0.07598  -0.00785   0.02988   0.06077   0.07400
 Alpha virt. eigenvalues --    0.07773   0.09899   0.10173   0.11154   0.12105
 Alpha virt. eigenvalues --    0.12755   0.12885   0.13226   0.13565   0.13648

 Mulliken charges:
               1
     1  O   -0.522337
     2  O   -0.568647
     3  O   -0.544352
     4  O   -0.558969
     5  C    0.176559
     6  C    0.245059
     7  C    0.045568
     8  C   -0.183786
     9  C   -0.200463
    10  C    0.143142
    11  C   -0.356762
    12  C   -0.093828
    13  C   -0.282423
    14  C   -0.334896
    15  C   -0.062021
    16  C    0.082331
    17  C   -0.380654
    18  C   -0.118205
    19  C   -0.063282
    20  C    0.035660
    21  C    0.267283
    22  C   -0.193529
    23  C    0.181039
    24  C   -0.213577
    25  C   -0.094987
    26  C   -0.313929
    27  C   -0.301856
    28  C   -0.326661
    29  C   -0.112998
    30  C    0.141935
    31  C    0.120079
    32  C   -0.301312
    33  C   -0.398812
    34  C   -0.099863
    35  C    0.140800
    36  C   -0.385054
    37  C   -0.101600
    38  C   -0.076156
    39  C   -0.086776
    40  C   -0.103158
    41  C   -0.133221
    42  C   -0.077540
    43  C    0.088718
    44  C   -0.372481
    45  H    0.098770
    46  H    0.129509
    47  H    0.105643
    48  H    0.080208
    49  H    0.104093
    50  H    0.104131
    51  H    0.123496
    52  H    0.136708
    53  H    0.109621
    54  H    0.102002
    55  H    0.098332
    56  H    0.083266
    57  H    0.123949
    58  H    0.088077
    59  H    0.114597
    60  H    0.300433
    61  H    0.079484
    62  H    0.106409
    63  H    0.111149
    64  H    0.109931
    65  H    0.065779
    66  H    0.073212
    67  H    0.067416
    68  H    0.102312
    69  H    0.081573
    70  H    0.107771
    71  H    0.099914
    72  H    0.100994
    73  H    0.122951
    74  H    0.104089
    75  H    0.124385
    76  H    0.111575
    77  H    0.062947
    78  H    0.092593
    79  H    0.103137
    80  H    0.156314
    81  H    0.082656
    82  H    0.304005
    83  H    0.304651
    84  H    0.107064
    85  H    0.113016
    86  H    0.135281
    87  H    0.088969
    88  H    0.074409
    89  H    0.097450
    90  H    0.145165
    91  H    0.124357
    92  H    0.094931
    93  H    0.086948
    94  H    0.092635
    95  H    0.083457
    96  H    0.073348
    97  H    0.061409
    98  H    0.106903
    99  H    0.126507
   100  H    0.106030
 Sum of Mulliken charges =  -0.00000

 Dipole moment (field-independent basis, Debye):
    X=             -3.2110    Y=              0.7197    Z=             -1.6401  Tot=              3.6767
 Quadrupole moment (field-independent basis, Debye-Ang):
   XX=           -288.3667   YY=           -260.3647   ZZ=           -276.8662
   XY=             -5.4045   XZ=             36.5358   YZ=              2.3175

 Normal termination of Gaussian 16 at Mon Jul 29 15:18:26 2019.
