 Gaussian 16, Revision A.03,
 Gaussian 16:  ES64L-G16RevA.03 25-Dec-2016

 -------------------------------------
 # td=(NStates=1) CAM-B3LYP/6-31G(d,p)
 -------------------------------------

 --
 TD
 --
 Symbolic Z-matrix:
 Charge =  0 Multiplicity = 1

                         Standard orientation:
 ---------------------------------------------------------------------
 Center     Atomic      Atomic             Coordinates (Angstroms)
 Number     Number       Type             X           Y           Z
 ---------------------------------------------------------------------
      1          8           0      -11.717678    0.264706   -1.622054
      2          8           0      -13.245009   -2.258454    1.406792
      3          8           0       10.708076   -1.072498   -2.116343
      4          8           0       14.517744   -0.983897    0.089802
      5          6           0      -11.060492   -0.091000   -0.343686
      6          6           0      -11.693547   -1.161711   -1.243212
      7          6           0      -11.785579    0.434185    0.826737
      8          6           0      -13.064704   -1.750402   -0.879238
      9          6           0      -13.207688    0.116574    0.842335
     10          6           0      -13.527131   -1.334088    0.460131
     11          6           0      -10.781859   -2.107151   -2.098704
     12          6           0       -9.523456    0.130819   -0.343141
     13          6           0      -10.997308   -0.181857    2.103944
     14          6           0      -11.709590    1.915378    0.913798
     15          6           0       -8.674114   -0.752449    0.255247
     16          6           0       -7.213337   -0.610479    0.284017
     17          6           0       -6.301419   -1.847480    0.521283
     18          6           0       -6.664749    0.625933    0.074800
     19          6           0       -5.236005    0.755296   -0.023011
     20          6           0       11.792293    0.051784    1.344521
     21          6           0       11.657776   -0.590769   -1.246056
     22          6           0       12.572205   -1.260277    1.559467
     23          6           0       13.378641   -1.765920    0.406154
     24          6           0       12.525325   -1.847828   -0.885293
     25          6           0       11.014528    0.018470    0.037053
     26          6           0       10.727998    0.128919    2.527521
     27          6           0       12.797068    1.227480    1.542216
     28          6           0       12.702607    0.389839   -1.988868
     29          6           0       -4.776194    2.088004   -0.305357
     30          6           0        9.907574    0.471713   -0.188194
     31          6           0       -3.383604    2.444653   -0.432303
     32          6           0        8.714984    1.015474   -0.244548
     33          6           0       -3.017904    3.856236   -0.777021
     34          6           0       -2.302954    1.599694   -0.107996
     35          6           0        7.490349    0.054935   -0.164464
     36          6           0        7.692834   -1.402570    0.149174
     37          6           0        6.340326    0.835660   -0.175223
     38          6           0       -0.967955    1.810054   -0.200442
     39          6           0        5.044288    0.233961   -0.237760
     40          6           0        0.114089    0.920059   -0.132945
     41          6           0        3.826327    0.824658   -0.178392
     42          6           0        1.507883    1.347668   -0.264751
     43          6           0        2.501755    0.320679   -0.142780
     44          6           0        2.314717   -1.171743    0.062264
     45          1           0      -13.042660   -2.807554   -0.876321
     46          1           0      -13.754270   -1.503817   -1.588089
     47          1           0      -13.940307    0.127797    1.933393
     48          1           0      -13.697871    0.799204    0.204280
     49          1           0      -14.644524   -1.467990    0.495737
     50          1           0      -10.493921   -3.098676   -1.479517
     51          1           0      -11.347044   -2.478609   -2.893415
     52          1           0      -10.011240   -1.509529   -2.519263
     53          1           0       -9.261859    0.834421   -1.119290
     54          1           0      -10.090579    0.378437    2.078559
     55          1           0      -11.717761   -0.159445    3.005089
     56          1           0      -10.724365   -1.329289    2.011185
     57          1           0      -12.075628    2.061888   -0.095508
     58          1           0      -12.352907    2.309898    1.723561
     59          1           0      -10.645961    2.362852    1.004668
     60          1           0      -12.279207   -2.373111    1.640431
     61          1           0       -9.206522   -1.561738    0.870772
     62          1           0       -5.716618   -2.036388   -0.308631
     63          1           0       -5.638660   -1.709197    1.222682
     64          1           0       -7.018241   -2.633713    0.595521
     65          1           0       -7.436530    1.492572   -0.059023
     66          1           0       -4.619810   -0.170719    0.047285
     67          1           0       13.156730   -0.975707    2.545311
     68          1           0       11.808668   -1.997559    1.788874
     69          1           0       13.611577   -2.808716    0.604053
     70          1           0       13.131551   -2.194172   -1.647338
     71          1           0       11.729986   -2.567417   -0.734328
     72          1           0       11.287648    0.231094    3.540411
     73          1           0       10.097218    1.080051    2.296505
     74          1           0       10.022220   -0.876185    2.684920
     75          1           0       13.561051    1.200922    0.839880
     76          1           0       12.116187    2.167967    1.452545
     77          1           0       13.224289    1.200799    2.616518
     78          1           0       12.974325   -0.006616   -2.778036
     79          1           0       12.086594    1.531775   -2.367083
     80          1           0       13.578578    0.697359   -1.285931
     81          1           0       -5.436307    2.847040   -0.413437
     82          1           0       10.167892   -0.296934   -2.410927
     83          1           0       14.992578   -0.366404    0.921165
     84          1           0        8.413176    2.052532   -0.440579
     85          1           0       -2.498149    4.307678    0.006068
     86          1           0       -2.416868    3.944286   -1.720675
     87          1           0       -3.838126    4.562528   -1.001683
     88          1           0       -2.707980    0.564780    0.272650
     89          1           0        6.649561   -1.753609   -0.020993
     90          1           0        8.258693   -2.029659   -0.538484
     91          1           0        8.110483   -1.319624    1.002572
     92          1           0        6.347237    1.835324   -0.052036
     93          1           0       -0.386807    2.707647   -0.424467
     94          1           0        4.851026   -0.881259   -0.290262
     95          1           0       -0.201675   -0.139217    0.044443
     96          1           0        3.812601    1.971171   -0.113286
     97          1           0        1.600530    2.435927   -0.428520
     98          1           0        1.309522   -1.457812   -0.258411
     99          1           0        3.226996   -1.886993   -0.614571
    100          1           0        2.566533   -1.361533    1.121800
 ---------------------------------------------------------------------

 SCF Done:  E(RCAM-B3LYP) =  -1857.27997100     A.U. after   15 cycles

 Excitation energies and oscillator strengths:

 Excited State   1:      Singlet-A      2.1746 eV  570.16 nm  f=2.9005  <S**2>=0.000
     163 ->166         0.13356
     164 ->165         0.69591
 This state for optimization and/or second-order correction.
 Total Energy, E(TD-HF/TD-DFT) =  -1857.20005706
 Copying the excited state density for this state as the 1-particle RhoCI density.

 The electronic state is 1-A.
 Alpha  occ. eigenvalues --  -19.22969 -19.22093 -19.21924 -19.20692 -10.32485
 Alpha  occ. eigenvalues --  -10.32243 -10.31778 -10.31001 -10.29336 -10.28828
 Alpha  occ. eigenvalues --  -10.28782 -10.28689 -10.28619 -10.27943 -10.27862
 Alpha  occ. eigenvalues --  -10.27813 -10.27794 -10.27415 -10.27328 -10.27280
 Alpha  occ. eigenvalues --  -10.26955 -10.26806 -10.26691 -10.26676 -10.26646
 Alpha  occ. eigenvalues --  -10.26615 -10.26542 -10.26275 -10.26193 -10.26119
 Alpha  occ. eigenvalues --  -10.25887 -10.25863 -10.25793 -10.25775 -10.25681
 Alpha  occ. eigenvalues --  -10.25469 -10.25455 -10.25335 -10.24889 -10.24774
 Alpha  occ. eigenvalues --  -10.24520 -10.24343 -10.24254 -10.23599  -1.12348
 Alpha  occ. eigenvalues --   -1.11456  -1.10543  -1.07756  -0.93312  -0.92427
 Alpha  occ. eigenvalues --   -0.91819  -0.91437  -0.90576  -0.89796  -0.87101
 Alpha  occ. eigenvalues --   -0.86528  -0.86052  -0.85283  -0.84672  -0.82987
 Alpha  occ. eigenvalues --   -0.81859  -0.80499  -0.80444  -0.78670  -0.78055
 Alpha  occ. eigenvalues --   -0.77198  -0.76411  -0.76278  -0.75776  -0.75492
 Alpha  occ. eigenvalues --   -0.74934  -0.74172  -0.73056  -0.70721  -0.69799
 Alpha  occ. eigenvalues --   -0.68446  -0.67145  -0.65204  -0.65049  -0.64241
 Alpha  occ. eigenvalues --   -0.63265  -0.61898  -0.61312  -0.60756  -0.59047
 Alpha  occ. eigenvalues --   -0.58740  -0.58308  -0.57986  -0.57398  -0.56218
 Alpha  occ. eigenvalues --   -0.56088  -0.55514  -0.54974  -0.54723  -0.54179
 Alpha  occ. eigenvalues --   -0.53704  -0.53323  -0.53109  -0.52353  -0.51928
 Alpha  occ. eigenvalues --   -0.51590  -0.51052  -0.50832  -0.50354  -0.50033
 Alpha  occ. eigenvalues --   -0.49864  -0.49573  -0.49095  -0.48865  -0.48708
 Alpha  occ. eigenvalues --   -0.48480  -0.48278  -0.47733  -0.47550  -0.47149
 Alpha  occ. eigenvalues --   -0.46688  -0.46386  -0.46187  -0.45931  -0.45667
 Alpha  occ. eigenvalues --   -0.45454  -0.45126  -0.44751  -0.44476  -0.44276
 Alpha  occ. eigenvalues --   -0.44057  -0.43597  -0.43574  -0.42918  -0.42739
 Alpha  occ. eigenvalues --   -0.42453  -0.42392  -0.41259  -0.41189  -0.40937
 Alpha  occ. eigenvalues --   -0.40826  -0.40614  -0.40310  -0.40116  -0.39714
 Alpha  occ. eigenvalues --   -0.39672  -0.39115  -0.38869  -0.38479  -0.38265
 Alpha  occ. eigenvalues --   -0.37901  -0.37763  -0.37574  -0.36696  -0.36568
 Alpha  occ. eigenvalues --   -0.36466  -0.35142  -0.34964  -0.34164  -0.33545
 Alpha  occ. eigenvalues --   -0.32980  -0.32466  -0.31925  -0.31610  -0.30837
 Alpha  occ. eigenvalues --   -0.30421  -0.27875  -0.24401  -0.19475
 Alpha virt. eigenvalues --   -0.05801  -0.00475   0.03295   0.06057   0.07051
 Alpha virt. eigenvalues --    0.07848   0.09760   0.09857   0.09951   0.11528
 Alpha virt. eigenvalues --    0.12128   0.12243   0.12388   0.13336   0.13725

 Mulliken charges:
               1
     1  O   -0.530495
     2  O   -0.546064
     3  O   -0.555252
     4  O   -0.571061
     5  C    0.188109
     6  C    0.227359
     7  C    0.026541
     8  C   -0.193610
     9  C   -0.173396
    10  C    0.154615
    11  C   -0.324585
    12  C   -0.131573
    13  C   -0.310834
    14  C   -0.310848
    15  C   -0.076769
    16  C    0.037148
    17  C   -0.364784
    18  C   -0.090587
    19  C   -0.088643
    20  C   -0.004834
    21  C    0.235300
    22  C   -0.188075
    23  C    0.194045
    24  C   -0.197023
    25  C   -0.076471
    26  C   -0.292712
    27  C   -0.292378
    28  C   -0.267130
    29  C   -0.111062
    30  C    0.219763
    31  C    0.096715
    32  C   -0.302467
    33  C   -0.386580
    34  C   -0.128588
    35  C    0.054312
    36  C   -0.342905
    37  C   -0.079103
    38  C   -0.063885
    39  C   -0.088175
    40  C   -0.094431
    41  C   -0.120238
    42  C   -0.138875
    43  C    0.111447
    44  C   -0.352026
    45  H    0.109903
    46  H    0.121314
    47  H    0.065528
    48  H    0.110030
    49  H    0.083328
    50  H    0.090850
    51  H    0.121620
    52  H    0.127665
    53  H    0.116507
    54  H    0.131877
    55  H    0.108262
    56  H    0.046132
    57  H    0.129770
    58  H    0.111671
    59  H    0.085322
    60  H    0.299739
    61  H    0.081762
    62  H    0.133029
    63  H    0.135554
    64  H    0.108579
    65  H    0.090951
    66  H    0.101160
    67  H    0.070212
    68  H    0.099233
    69  H    0.087138
    70  H    0.118188
    71  H    0.107798
    72  H    0.087094
    73  H    0.108155
    74  H    0.083958
    75  H    0.110157
    76  H    0.098788
    77  H    0.092074
    78  H    0.124780
    79  H    0.013595
    80  H    0.118198
    81  H    0.087436
    82  H    0.310928
    83  H    0.312146
    84  H    0.110694
    85  H    0.135472
    86  H    0.118107
    87  H    0.099412
    88  H    0.064742
    89  H    0.110774
    90  H    0.136805
    91  H    0.143211
    92  H    0.082664
    93  H    0.066294
    94  H    0.057777
    95  H    0.070133
    96  H    0.057570
    97  H    0.107992
    98  H    0.125075
    99  H    0.078342
   100  H    0.144606
 Sum of Mulliken charges =  -0.00000

 Dipole moment (field-independent basis, Debye):
    X=              3.7166    Y=             -0.1934    Z=              2.1626  Tot=              4.3043
 Quadrupole moment (field-independent basis, Debye-Ang):
   XX=           -295.0969   YY=           -260.0690   ZZ=           -277.2987
   XY=             12.9938   XZ=             28.8657   YZ=             -0.6951

 Normal termination of Gaussian 16 at Fri Aug  2 05:34:24 2019.
