 Gaussian 16, Revision A.03,
 Gaussian 16:  ES64L-G16RevA.03 25-Dec-2016

 -------------------------------------
 # td=(NStates=1) CAM-B3LYP/6-31G(d,p)
 -------------------------------------

 --
 TD
 --
 Symbolic Z-matrix:
 Charge =  0 Multiplicity = 1

                         Standard orientation:
 ---------------------------------------------------------------------
 Center     Atomic      Atomic             Coordinates (Angstroms)
 Number     Number       Type             X           Y           Z
 ---------------------------------------------------------------------
      1          8           0      -11.626052    0.336899   -1.440106
      2          8           0      -13.006120   -2.541172    1.098158
      3          8           0       10.545526   -0.694075   -2.234471
      4          8           0       14.403026   -0.954164   -0.302693
      5          6           0      -11.067565   -0.205533   -0.284482
      6          6           0      -11.642502   -1.080858   -1.372138
      7          6           0      -11.751999    0.299103    1.029350
      8          6           0      -12.990200   -1.691234   -1.173446
      9          6           0      -13.235954   -0.188090    0.845742
     10          6           0      -13.529691   -1.511345    0.266039
     11          6           0      -10.795939   -1.851664   -2.410663
     12          6           0       -9.522289    0.037517   -0.210605
     13          6           0      -11.224647   -0.277373    2.333684
     14          6           0      -11.648522    1.796271    1.100299
     15          6           0       -8.592461   -0.735608    0.198197
     16          6           0       -7.171006   -0.601012    0.200544
     17          6           0       -6.318752   -1.750275    0.634188
     18          6           0       -6.529139    0.547080   -0.198916
     19          6           0       -5.252731    0.887735   -0.144408
     20          6           0       11.886710   -0.157869    1.342775
     21          6           0       11.642231   -0.457637   -1.281402
     22          6           0       12.622395   -1.501226    1.293706
     23          6           0       13.398399   -1.874072   -0.017461
     24          6           0       12.408885   -1.830532   -1.162525
     25          6           0       11.063730    0.032212   -0.003683
     26          6           0       10.933862   -0.172517    2.493274
     27          6           0       12.885657    0.995916    1.631012
     28          6           0       12.515223    0.636877   -1.959079
     29          6           0       -4.707073    2.185400   -0.307284
     30          6           0        9.860082    0.428195    0.114419
     31          6           0       -3.364573    2.548330   -0.376399
     32          6           0        8.630892    0.987641   -0.042768
     33          6           0       -3.088931    3.960254   -0.735517
     34          6           0       -2.306518    1.665974   -0.089841
     35          6           0        7.444653    0.068236    0.113006
     36          6           0        7.642987   -1.403325    0.177481
     37          6           0        6.274210    0.673978    0.007871
     38          6           0       -0.945458    1.975355   -0.303071
     39          6           0        4.923665    0.132415    0.169801
     40          6           0        0.082834    1.025358    0.080555
     41          6           0        3.843712    0.966319   -0.138350
     42          6           0        1.399186    1.387810   -0.066022
     43          6           0        2.510498    0.478162    0.108981
     44          6           0        2.237668   -0.937263    0.363393
     45          1           0      -12.681574   -2.742981   -1.443028
     46          1           0      -13.691918   -1.492440   -2.077008
     47          1           0      -13.800366   -0.084778    1.885142
     48          1           0      -13.703763    0.581545    0.099286
     49          1           0      -14.665396   -1.726493    0.189116
     50          1           0      -10.579100   -3.044085   -2.272904
     51          1           0      -11.216430   -1.699491   -3.447755
     52          1           0       -9.693726   -1.316840   -2.547189
     53          1           0       -9.261396    1.139841   -0.692865
     54          1           0      -10.066786   -0.065806    2.422226
     55          1           0      -11.884471    0.241375    3.081702
     56          1           0      -11.356979   -1.350614    2.366812
     57          1           0      -12.165815    2.121601    0.339795
     58          1           0      -12.240228    2.371849    2.024169
     59          1           0      -10.652936    1.974373    1.146173
     60          1           0      -12.134834   -2.355285    1.025502
     61          1           0       -8.888195   -1.826573    0.660265
     62          1           0       -5.524481   -1.742701   -0.225256
     63          1           0       -5.650971   -1.593700    1.489965
     64          1           0       -6.727454   -2.674780    0.701713
     65          1           0       -7.329006    1.453164   -0.323317
     66          1           0       -4.485127    0.164095    0.188764
     67          1           0       13.185989   -1.575031    2.191664
     68          1           0       11.823167   -2.229040    1.342067
     69          1           0       13.827584   -2.955168    0.193042
     70          1           0       13.104164   -1.893824   -2.082813
     71          1           0       11.566577   -2.485973   -1.114659
     72          1           0       11.503618   -0.453502    3.352988
     73          1           0       10.376462    0.602642    2.595823
     74          1           0       10.183477   -1.112259    2.382803
     75          1           0       13.558518    1.107971    0.867120
     76          1           0       12.260456    2.026245    1.851088
     77          1           0       13.373081    0.788843    2.596200
     78          1           0       12.577571    0.458430   -3.053059
     79          1           0       12.018655    1.604242   -2.091334
     80          1           0       13.510521    0.731367   -1.411760
     81          1           0       -5.390500    3.096257   -0.426741
     82          1           0       10.045007    0.099029   -2.143167
     83          1           0       14.964384   -0.805849    0.493857
     84          1           0        8.373298    1.988293   -0.245304
     85          1           0       -2.384336    4.338392    0.070106
     86          1           0       -2.534479    4.210591   -1.704525
     87          1           0       -3.876922    4.480941   -0.650796
     88          1           0       -2.569727    0.631848    0.255063
     89          1           0        6.883008   -2.087499    0.384644
     90          1           0        8.320466   -1.647250   -0.718207
     91          1           0        8.363758   -1.595459    1.170788
     92          1           0        6.067438    1.804001    0.052059
     93          1           0       -0.706536    3.039699   -0.472217
     94          1           0        4.787200   -1.079991    0.099902
     95          1           0       -0.336803   -0.033832    0.271212
     96          1           0        3.857997    1.990103   -0.278079
     97          1           0        1.535919    2.648716   -0.319067
     98          1           0        1.270424   -1.192604    0.700051
     99          1           0        2.442401   -1.728028   -0.435522
    100          1           0        2.758907   -1.215700    1.360848
 ---------------------------------------------------------------------

 SCF Done:  E(RCAM-B3LYP) =  -1857.32049882     A.U. after   16 cycles

 Excitation energies and oscillator strengths:

 Excited State   1:      Singlet-A      1.8828 eV  658.50 nm  f=2.8227  <S**2>=0.000
     163 ->166         0.11463
     164 ->165         0.70689
     164 <-165        -0.13131
 This state for optimization and/or second-order correction.
 Total Energy, E(TD-HF/TD-DFT) =  -1857.25130646
 Copying the excited state density for this state as the 1-particle RhoCI density.

 The electronic state is 1-A.
 Alpha  occ. eigenvalues --  -19.23282 -19.22987 -19.20551 -19.20243 -10.33221
 Alpha  occ. eigenvalues --  -10.32867 -10.32582 -10.32071 -10.31349 -10.28526
 Alpha  occ. eigenvalues --  -10.28443 -10.28098 -10.28041 -10.27798 -10.27760
 Alpha  occ. eigenvalues --  -10.27633 -10.27571 -10.27384 -10.27281 -10.27044
 Alpha  occ. eigenvalues --  -10.27038 -10.27002 -10.26893 -10.26845 -10.26835
 Alpha  occ. eigenvalues --  -10.26620 -10.26574 -10.26360 -10.26355 -10.26250
 Alpha  occ. eigenvalues --  -10.26180 -10.26165 -10.26055 -10.26022 -10.25899
 Alpha  occ. eigenvalues --  -10.25815 -10.25666 -10.25346 -10.25336 -10.25332
 Alpha  occ. eigenvalues --  -10.24677 -10.24084 -10.23907 -10.23753  -1.17445
 Alpha  occ. eigenvalues --   -1.11926  -1.11819  -1.08930  -0.93465  -0.92675
 Alpha  occ. eigenvalues --   -0.91794  -0.91374  -0.90852  -0.90236  -0.87213
 Alpha  occ. eigenvalues --   -0.86906  -0.86398  -0.85872  -0.85115  -0.82733
 Alpha  occ. eigenvalues --   -0.82058  -0.81013  -0.80237  -0.78714  -0.77056
 Alpha  occ. eigenvalues --   -0.76996  -0.76861  -0.76656  -0.76271  -0.75816
 Alpha  occ. eigenvalues --   -0.75084  -0.74307  -0.72193  -0.70584  -0.69906
 Alpha  occ. eigenvalues --   -0.68420  -0.66840  -0.65046  -0.64502  -0.64090
 Alpha  occ. eigenvalues --   -0.63506  -0.62003  -0.60531  -0.60006  -0.59400
 Alpha  occ. eigenvalues --   -0.59090  -0.58491  -0.57645  -0.57544  -0.56929
 Alpha  occ. eigenvalues --   -0.56297  -0.55381  -0.55176  -0.54962  -0.54277
 Alpha  occ. eigenvalues --   -0.54004  -0.53042  -0.52874  -0.52260  -0.51919
 Alpha  occ. eigenvalues --   -0.51810  -0.50932  -0.50480  -0.50005  -0.49974
 Alpha  occ. eigenvalues --   -0.49486  -0.49139  -0.48740  -0.48437  -0.48193
 Alpha  occ. eigenvalues --   -0.48089  -0.47798  -0.47576  -0.47401  -0.46730
 Alpha  occ. eigenvalues --   -0.46548  -0.46376  -0.46209  -0.45616  -0.45395
 Alpha  occ. eigenvalues --   -0.44772  -0.44762  -0.44614  -0.44530  -0.44467
 Alpha  occ. eigenvalues --   -0.44060  -0.43429  -0.42996  -0.42741  -0.42564
 Alpha  occ. eigenvalues --   -0.42158  -0.42008  -0.41765  -0.41700  -0.41312
 Alpha  occ. eigenvalues --   -0.40814  -0.40526  -0.40500  -0.40297  -0.39835
 Alpha  occ. eigenvalues --   -0.39537  -0.39227  -0.39117  -0.38846  -0.38572
 Alpha  occ. eigenvalues --   -0.38504  -0.38058  -0.37795  -0.37547  -0.37111
 Alpha  occ. eigenvalues --   -0.37077  -0.36375  -0.35268  -0.34033  -0.33768
 Alpha  occ. eigenvalues --   -0.33143  -0.32555  -0.32284  -0.32006  -0.31532
 Alpha  occ. eigenvalues --   -0.30644  -0.27952  -0.24442  -0.18595
 Alpha virt. eigenvalues --   -0.06927  -0.00638   0.03560   0.06786   0.07324
 Alpha virt. eigenvalues --    0.09549   0.09603   0.10425   0.11083   0.11255
 Alpha virt. eigenvalues --    0.11763   0.12378   0.12693   0.13686   0.13859

 Mulliken charges:
               1
     1  O   -0.486664
     2  O   -0.519516
     3  O   -0.569661
     4  O   -0.532809
     5  C    0.173935
     6  C    0.268399
     7  C   -0.014773
     8  C   -0.212750
     9  C   -0.179144
    10  C    0.131660
    11  C   -0.350181
    12  C   -0.141153
    13  C   -0.289161
    14  C   -0.273989
    15  C   -0.050565
    16  C    0.099818
    17  C   -0.381082
    18  C   -0.102755
    19  C   -0.070030
    20  C   -0.001337
    21  C    0.218142
    22  C   -0.212477
    23  C    0.168233
    24  C   -0.191607
    25  C   -0.036067
    26  C   -0.275653
    27  C   -0.291992
    28  C   -0.320782
    29  C   -0.137558
    30  C    0.118237
    31  C    0.105083
    32  C   -0.240804
    33  C   -0.364777
    34  C   -0.114204
    35  C    0.119178
    36  C   -0.365395
    37  C   -0.119469
    38  C   -0.096620
    39  C   -0.109769
    40  C   -0.074049
    41  C   -0.087643
    42  C   -0.124243
    43  C    0.097144
    44  C   -0.382705
    45  H    0.111630
    46  H    0.107848
    47  H    0.087449
    48  H    0.095085
    49  H    0.096585
    50  H    0.104981
    51  H    0.124457
    52  H    0.108217
    53  H    0.096581
    54  H    0.095678
    55  H    0.108536
    56  H    0.093305
    57  H    0.128369
    58  H    0.073281
    59  H    0.114873
    60  H    0.292638
    61  H    0.059922
    62  H    0.111850
    63  H    0.125730
    64  H    0.114335
    65  H    0.062524
    66  H    0.079242
    67  H    0.085113
    68  H    0.103119
    69  H    0.068987
    70  H    0.117760
    71  H    0.127347
    72  H    0.093617
    73  H    0.119579
    74  H    0.075050
    75  H    0.115634
    76  H    0.080540
    77  H    0.093624
    78  H    0.113419
    79  H    0.086595
    80  H    0.131004
    81  H    0.075888
    82  H    0.299381
    83  H    0.316442
    84  H    0.114071
    85  H    0.111073
    86  H    0.118510
    87  H    0.112003
    88  H    0.074905
    89  H    0.120016
    90  H    0.141074
    91  H    0.086064
    92  H    0.072396
    93  H    0.086602
    94  H    0.088132
    95  H    0.095670
    96  H    0.085833
    97  H    0.071005
    98  H    0.114161
    99  H    0.123416
   100  H    0.110408
 Sum of Mulliken charges =  -0.00000

 Dipole moment (field-independent basis, Debye):
    X=              3.7790    Y=              0.1441    Z=              2.1241  Tot=              4.3374
 Quadrupole moment (field-independent basis, Debye-Ang):
   XX=           -265.6482   YY=           -260.4186   ZZ=           -279.4912
   XY=             -5.3508   XZ=             40.3710   YZ=             -1.5432

 Normal termination of Gaussian 16 at Fri Aug  2 04:00:24 2019.
