 Gaussian 16, Revision A.03,
 Gaussian 16:  ES64L-G16RevA.03 25-Dec-2016

 -------------------------------------
 # td=(NStates=1) CAM-B3LYP/6-31G(d,p)
 -------------------------------------

 --
 TD
 --
 Symbolic Z-matrix:
 Charge =  0 Multiplicity = 1

                         Standard orientation:
 ---------------------------------------------------------------------
 Center     Atomic      Atomic             Coordinates (Angstroms)
 Number     Number       Type             X           Y           Z
 ---------------------------------------------------------------------
      1          8           0      -11.609065    0.293509   -1.598019
      2          8           0      -13.225649   -2.311180    1.443891
      3          8           0       10.604450   -1.036561   -2.027023
      4          8           0       14.567665   -0.702509   -0.273655
      5          6           0      -11.009243   -0.138049   -0.263482
      6          6           0      -11.574131   -1.152914   -1.302652
      7          6           0      -11.856251    0.354621    0.903878
      8          6           0      -12.937717   -1.840976   -1.038152
      9          6           0      -13.345879    0.058813    0.711505
     10          6           0      -13.665287   -1.464395    0.384585
     11          6           0      -10.569277   -1.916671   -2.185512
     12          6           0       -9.609518    0.061103   -0.344983
     13          6           0      -11.328544   -0.077174    2.273113
     14          6           0      -11.648884    1.901347    0.803777
     15          6           0       -8.765264   -0.747779    0.136706
     16          6           0       -7.250517   -0.595280    0.169440
     17          6           0       -6.391676   -1.785746    0.495448
     18          6           0       -6.724874    0.708730    0.051351
     19          6           0       -5.292532    0.919997   -0.128301
     20          6           0       11.955524   -0.030533    1.330799
     21          6           0       11.664242   -0.647837   -1.349749
     22          6           0       12.733546   -1.330840    1.454796
     23          6           0       13.553216   -1.641301    0.154284
     24          6           0       12.537798   -1.797098   -0.990737
     25          6           0       11.102393   -0.039667    0.066978
     26          6           0       10.942835    0.123677    2.580295
     27          6           0       12.924455    1.252949    1.234775
     28          6           0       12.352192    0.416760   -2.161113
     29          6           0       -4.629772    2.153093   -0.364427
     30          6           0        9.887880    0.432469   -0.034450
     31          6           0       -3.330605    2.490525   -0.431652
     32          6           0        8.717389    0.907836   -0.109124
     33          6           0       -2.915480    3.970787   -0.682930
     34          6           0       -2.423060    1.603385   -0.195149
     35          6           0        7.490694    0.140067    0.072323
     36          6           0        7.627099   -1.320203    0.353622
     37          6           0        6.341943    0.739170   -0.010222
     38          6           0       -0.964870    1.688273   -0.389546
     39          6           0        4.950268    0.181810    0.097136
     40          6           0        0.012107    0.839912    0.075064
     41          6           0        3.705812    0.853068    0.042166
     42          6           0        1.361904    1.084730   -0.144541
     43          6           0        2.498022    0.212553    0.057962
     44          6           0        2.180572   -1.257338    0.396740
     45          1           0      -12.751180   -3.038387   -1.080485
     46          1           0      -13.469817   -1.523615   -1.902283
     47          1           0      -13.999072    0.420985    1.624369
     48          1           0      -13.639768    0.709670   -0.320433
     49          1           0      -14.785214   -1.444523    0.305093
     50          1           0      -10.038545   -2.622924   -1.542788
     51          1           0      -11.077167   -2.437302   -3.027503
     52          1           0       -9.933513   -1.082183   -2.712014
     53          1           0       -9.329290    0.945672   -0.833644
     54          1           0      -10.095659   -0.036605    2.268934
     55          1           0      -11.569284    0.535267    3.117880
     56          1           0      -11.476935   -1.254187    2.421017
     57          1           0      -11.900132    1.979777   -0.309885
     58          1           0      -12.485000    2.385993    1.345419
     59          1           0      -10.686178    2.082912    1.316149
     60          1           0      -12.275133   -2.548450    1.306232
     61          1           0       -9.188184   -1.619076    0.495491
     62          1           0       -5.805664   -2.150561   -0.406513
     63          1           0       -5.669007   -1.447880    1.301528
     64          1           0       -6.965384   -2.445693    1.027742
     65          1           0       -7.293144    1.631276   -0.140460
     66          1           0       -4.739280    0.041599   -0.049797
     67          1           0       13.571838   -1.235825    2.339772
     68          1           0       12.054936   -2.035855    1.613497
     69          1           0       14.090260   -2.556261    0.508201
     70          1           0       13.028829   -2.062014   -1.932195
     71          1           0       11.966973   -2.622153   -0.518983
     72          1           0       11.574236   -0.068573    3.409284
     73          1           0       10.290767    0.928496    2.311429
     74          1           0       10.080081   -0.642566    2.575793
     75          1           0       13.653229    1.192714    0.575011
     76          1           0       12.430333    2.236762    1.263687
     77          1           0       13.271591    1.424202    2.195434
     78          1           0       12.897688    0.220721   -3.171882
     79          1           0       11.680296    1.149276   -2.464084
     80          1           0       13.213224    0.820698   -1.403206
     81          1           0       -5.219289    2.904991   -0.421511
     82          1           0       10.176800   -0.239627   -2.131158
     83          1           0       15.094301   -0.864253    0.514816
     84          1           0        8.359169    1.957596   -0.414505
     85          1           0       -2.414334    4.175691    0.320454
     86          1           0       -2.390987    3.966864   -1.492715
     87          1           0       -3.796078    4.643774   -0.673171
     88          1           0       -2.614264    0.581801    0.123689
     89          1           0        6.752827   -1.930571    0.399089
     90          1           0        8.442078   -1.802821   -0.217963
     91          1           0        8.152672   -1.350303    1.355373
     92          1           0        6.268320    1.810412   -0.069117
     93          1           0       -0.639573    2.609064   -0.837131
     94          1           0        5.058905   -0.938217    0.400468
     95          1           0       -0.167758   -0.130022    0.334107
     96          1           0        3.569664    1.924982   -0.200086
     97          1           0        1.547135    2.115926   -0.479452
     98          1           0        1.200385   -1.721236   -0.065333
     99          1           0        3.094201   -1.895002   -0.096795
    100          1           0        2.355829   -1.467745    1.463461
 ---------------------------------------------------------------------

 SCF Done:  E(RCAM-B3LYP) =  -1857.30661645     A.U. after   15 cycles

 Excitation energies and oscillator strengths:

 Excited State   1:      Singlet-A      2.2843 eV  542.77 nm  f=3.0091  <S**2>=0.000
     163 ->166         0.13825
     164 ->165         0.69396
 This state for optimization and/or second-order correction.
 Total Energy, E(TD-HF/TD-DFT) =  -1857.22267124
 Copying the excited state density for this state as the 1-particle RhoCI density.

 The electronic state is 1-A.
 Alpha  occ. eigenvalues --  -19.23033 -19.22243 -19.21902 -19.20690 -10.32919
 Alpha  occ. eigenvalues --  -10.32591 -10.32213 -10.31697 -10.31405 -10.28651
 Alpha  occ. eigenvalues --  -10.28522 -10.28058 -10.27970 -10.27734 -10.27695
 Alpha  occ. eigenvalues --  -10.27385 -10.27153 -10.26853 -10.26798 -10.26772
 Alpha  occ. eigenvalues --  -10.26713 -10.26620 -10.26572 -10.26566 -10.26377
 Alpha  occ. eigenvalues --  -10.26353 -10.26287 -10.26138 -10.26016 -10.25677
 Alpha  occ. eigenvalues --  -10.25639 -10.25435 -10.25301 -10.25263 -10.25206
 Alpha  occ. eigenvalues --  -10.25156 -10.25074 -10.24933 -10.24909 -10.24772
 Alpha  occ. eigenvalues --  -10.24451 -10.24384 -10.24303 -10.22977  -1.15567
 Alpha  occ. eigenvalues --   -1.11430  -1.11383  -1.09463  -0.92998  -0.92901
 Alpha  occ. eigenvalues --   -0.91922  -0.91695  -0.90855  -0.89827  -0.87265
 Alpha  occ. eigenvalues --   -0.86463  -0.86083  -0.85130  -0.84977  -0.82620
 Alpha  occ. eigenvalues --   -0.81816  -0.80113  -0.80039  -0.78161  -0.77437
 Alpha  occ. eigenvalues --   -0.77169  -0.76686  -0.76421  -0.76096  -0.75272
 Alpha  occ. eigenvalues --   -0.74918  -0.74452  -0.73294  -0.70732  -0.70036
 Alpha  occ. eigenvalues --   -0.69170  -0.67581  -0.65454  -0.65134  -0.63815
 Alpha  occ. eigenvalues --   -0.63408  -0.61927  -0.60974  -0.60180  -0.59573
 Alpha  occ. eigenvalues --   -0.59134  -0.58577  -0.58452  -0.57576  -0.56384
 Alpha  occ. eigenvalues --   -0.55978  -0.55727  -0.55389  -0.54940  -0.54004
 Alpha  occ. eigenvalues --   -0.53951  -0.53635  -0.53424  -0.53234  -0.52394
 Alpha  occ. eigenvalues --   -0.51989  -0.51547  -0.50703  -0.50244  -0.50049
 Alpha  occ. eigenvalues --   -0.49906  -0.49802  -0.49566  -0.49455  -0.48582
 Alpha  occ. eigenvalues --   -0.48146  -0.47943  -0.47861  -0.47672  -0.46795
 Alpha  occ. eigenvalues --   -0.46676  -0.46273  -0.45856  -0.45655  -0.45332
 Alpha  occ. eigenvalues --   -0.45027  -0.44613  -0.44496  -0.44139  -0.43588
 Alpha  occ. eigenvalues --   -0.43504  -0.43263  -0.43133  -0.43020  -0.42656
 Alpha  occ. eigenvalues --   -0.42465  -0.42324  -0.42076  -0.41515  -0.40715
 Alpha  occ. eigenvalues --   -0.40701  -0.40494  -0.40264  -0.40158  -0.40072
 Alpha  occ. eigenvalues --   -0.39968  -0.39332  -0.39264  -0.38950  -0.38552
 Alpha  occ. eigenvalues --   -0.38425  -0.38283  -0.37737  -0.37326  -0.37140
 Alpha  occ. eigenvalues --   -0.36518  -0.36152  -0.35770  -0.34660  -0.33749
 Alpha  occ. eigenvalues --   -0.33014  -0.32650  -0.31792  -0.30956  -0.29928
 Alpha  occ. eigenvalues --   -0.29430  -0.28575  -0.24387  -0.19725
 Alpha virt. eigenvalues --   -0.05596  -0.00399   0.04360   0.06054   0.07325
 Alpha virt. eigenvalues --    0.09229   0.09714   0.10876   0.11973   0.12313
 Alpha virt. eigenvalues --    0.12926   0.13294   0.13692   0.14370   0.14565

 Mulliken charges:
               1
     1  O   -0.531065
     2  O   -0.536262
     3  O   -0.504686
     4  O   -0.518129
     5  C    0.135310
     6  C    0.247594
     7  C    0.039959
     8  C   -0.231825
     9  C   -0.183189
    10  C    0.163708
    11  C   -0.332585
    12  C   -0.038058
    13  C   -0.303195
    14  C   -0.320566
    15  C   -0.070698
    16  C    0.048983
    17  C   -0.371933
    18  C   -0.103717
    19  C   -0.069832
    20  C    0.011006
    21  C    0.260876
    22  C   -0.187923
    23  C    0.109612
    24  C   -0.180601
    25  C   -0.092140
    26  C   -0.324916
    27  C   -0.316509
    28  C   -0.303395
    29  C   -0.100862
    30  C    0.198888
    31  C    0.096420
    32  C   -0.352937
    33  C   -0.351358
    34  C   -0.119882
    35  C    0.175820
    36  C   -0.390655
    37  C   -0.140217
    38  C   -0.112639
    39  C   -0.119896
    40  C   -0.050913
    41  C   -0.113957
    42  C   -0.147470
    43  C    0.139422
    44  C   -0.375690
    45  H    0.087520
    46  H    0.132236
    47  H    0.092798
    48  H    0.084525
    49  H    0.106754
    50  H    0.112544
    51  H    0.108197
    52  H    0.130416
    53  H    0.105317
    54  H    0.074966
    55  H    0.119218
    56  H    0.073405
    57  H    0.136452
    58  H    0.096474
    59  H    0.106112
    60  H    0.310109
    61  H    0.058948
    62  H    0.130635
    63  H    0.123342
    64  H    0.120202
    65  H    0.088705
    66  H    0.070675
    67  H    0.059872
    68  H    0.119001
    69  H    0.087826
    70  H    0.109363
    71  H    0.101839
    72  H    0.108595
    73  H    0.128526
    74  H    0.090259
    75  H    0.139075
    76  H    0.098732
    77  H    0.094598
    78  H    0.100278
    79  H    0.094417
    80  H    0.110067
    81  H    0.045734
    82  H    0.295279
    83  H    0.307108
    84  H    0.105400
    85  H    0.128611
    86  H    0.139584
    87  H    0.107945
    88  H    0.074943
    89  H    0.113400
    90  H    0.135680
    91  H    0.111693
    92  H    0.069396
    93  H    0.072269
    94  H    0.069518
    95  H    0.069336
    96  H    0.093745
    97  H    0.070893
    98  H    0.117896
    99  H    0.094535
   100  H    0.135141
 Sum of Mulliken charges =  -0.00000

 Dipole moment (field-independent basis, Debye):
    X=              2.6935    Y=             -1.2951    Z=              1.8663  Tot=              3.5235
 Quadrupole moment (field-independent basis, Debye-Ang):
   XX=           -268.0505   YY=           -259.0052   ZZ=           -276.7194
   XY=              0.6328   XZ=             31.3969   YZ=             -3.4877

 Normal termination of Gaussian 16 at Mon Jul 29 03:31:34 2019.
