 Gaussian 16, Revision A.03,
 Gaussian 16:  ES64L-G16RevA.03 25-Dec-2016

 -------------------------------------
 # td=(NStates=1) CAM-B3LYP/6-31G(d,p)
 -------------------------------------

 --
 TD
 --
 Symbolic Z-matrix:
 Charge =  0 Multiplicity = 1

                         Standard orientation:
 ---------------------------------------------------------------------
 Center     Atomic      Atomic             Coordinates (Angstroms)
 Number     Number       Type             X           Y           Z
 ---------------------------------------------------------------------
      1          8           0      -11.686912    0.373094   -1.449744
      2          8           0      -12.898804   -2.549981    1.162925
      3          8           0       10.716137   -1.117445   -2.096473
      4          8           0       14.499603   -0.942567   -0.152220
      5          6           0      -11.015313   -0.113246   -0.276216
      6          6           0      -11.696581   -1.064498   -1.253230
      7          6           0      -11.780616    0.310786    0.975255
      8          6           0      -12.976483   -1.747934   -1.049734
      9          6           0      -13.188096   -0.176309    0.915534
     10          6           0      -13.482080   -1.550440    0.351625
     11          6           0      -10.890693   -1.825263   -2.276731
     12          6           0       -9.490991    0.121974   -0.367023
     13          6           0      -11.147282   -0.369876    2.305182
     14          6           0      -11.766861    1.821132    1.090607
     15          6           0       -8.636048   -0.681510    0.120272
     16          6           0       -7.181028   -0.554160    0.087516
     17          6           0       -6.293176   -1.819800    0.485227
     18          6           0       -6.658537    0.702029   -0.069260
     19          6           0       -5.272670    0.941292   -0.033481
     20          6           0       11.890852    0.097579    1.322213
     21          6           0       11.670682   -0.544104   -1.222410
     22          6           0       12.740702   -1.265161    1.578974
     23          6           0       13.464549   -1.742708    0.264194
     24          6           0       12.531283   -1.835076   -0.863900
     25          6           0       11.063168    0.033353    0.046180
     26          6           0       11.044410    0.348697    2.620120
     27          6           0       12.904350    1.244066    1.326731
     28          6           0       12.421816    0.459874   -2.143338
     29          6           0       -4.800778    2.236983   -0.315878
     30          6           0        9.853031    0.414539   -0.076114
     31          6           0       -3.388240    2.576003   -0.381867
     32          6           0        8.627698    0.836430   -0.135693
     33          6           0       -3.066254    4.026073   -0.813947
     34          6           0       -2.336592    1.748293   -0.068881
     35          6           0        7.453879   -0.068173   -0.099098
     36          6           0        7.588875   -1.535296    0.176463
     37          6           0        6.198719    0.624041   -0.162123
     38          6           0       -0.962769    2.042402   -0.257571
     39          6           0        4.879412   -0.063574   -0.027051
     40          6           0        0.041755    1.073468   -0.061637
     41          6           0        3.765541    0.740153   -0.060665
     42          6           0        1.423210    1.321327   -0.050474
     43          6           0        2.410804    0.315911    0.080221
     44          6           0        2.074164   -1.185482    0.219730
     45          1           0      -12.903173   -2.645604   -1.290131
     46          1           0      -13.665265   -0.872985   -1.491730
     47          1           0      -13.599361   -0.150067    1.894542
     48          1           0      -13.961103    0.576920    0.453836
     49          1           0      -14.429525   -1.766413    0.350229
     50          1           0      -10.881983   -2.937139   -1.891569
     51          1           0      -11.391262   -2.023148   -3.280684
     52          1           0       -9.794951   -1.534910   -2.661197
     53          1           0       -9.253146    0.911681   -0.966164
     54          1           0       -9.875897   -0.221708    2.233690
     55          1           0      -11.536048   -0.150902    3.316634
     56          1           0      -11.123657   -1.422143    2.153765
     57          1           0      -12.007524    2.183988    0.131745
     58          1           0      -12.464624    2.140901    1.846776
     59          1           0      -10.857604    2.030209    1.474365
     60          1           0      -12.022087   -2.409595    1.049857
     61          1           0       -9.022828   -1.549198    0.591805
     62          1           0       -5.589200   -2.386968   -0.163556
     63          1           0       -5.612222   -1.525270    1.169213
     64          1           0       -6.846288   -2.587762    0.917690
     65          1           0       -7.342079    1.655450   -0.316804
     66          1           0       -4.567268   -0.015031    0.065626
     67          1           0       13.432283   -1.036970    2.462405
     68          1           0       11.949469   -2.037822    1.799945
     69          1           0       13.985291   -2.663657    0.587386
     70          1           0       13.366682   -2.096821   -1.820431
     71          1           0       11.868470   -2.609920   -0.791279
     72          1           0       11.499162    0.315242    3.419415
     73          1           0       10.523294    1.296062    2.411160
     74          1           0       10.270664   -0.570982    2.507563
     75          1           0       13.729956    1.144414    0.694577
     76          1           0       12.240550    2.061553    1.280899
     77          1           0       13.404874    1.175228    2.324091
     78          1           0       12.821973    0.064794   -2.862427
     79          1           0       11.657895    1.367541   -2.379745
     80          1           0       13.214002    0.858400   -1.628128
     81          1           0       -5.565006    3.040219   -0.437062
     82          1           0       10.348479   -0.312315   -2.626563
     83          1           0       15.135406   -0.892286    0.607656
     84          1           0        8.476781    1.874043   -0.355158
     85          1           0       -2.398630    4.551890   -0.245864
     86          1           0       -2.654109    4.209977   -1.742507
     87          1           0       -3.814636    4.879943   -0.693356
     88          1           0       -2.540347    0.775788    0.257664
     89          1           0        6.659524   -2.214945   -0.108061
     90          1           0        8.489665   -1.891856   -0.355603
     91          1           0        7.742558   -1.664922    1.180624
     92          1           0        6.172696    1.814421   -0.368677
     93          1           0       -0.698767    3.160529   -0.700451
     94          1           0        4.707494   -1.003060    0.266519
     95          1           0       -0.289404    0.238152    0.483114
     96          1           0        3.972484    1.838365   -0.420213
     97          1           0        1.916715    2.455877   -0.383244
     98          1           0        1.044004   -1.527559    0.305645
     99          1           0        2.618244   -1.843802   -0.487653
    100          1           0        2.312316   -1.523416    1.115569
 ---------------------------------------------------------------------

 SCF Done:  E(RCAM-B3LYP) =  -1857.25081600     A.U. after   15 cycles

 Excitation energies and oscillator strengths:

 Excited State   1:      Singlet-A      2.3038 eV  538.17 nm  f=2.9947  <S**2>=0.000
     163 ->166         0.13990
     164 ->165         0.69191
 This state for optimization and/or second-order correction.
 Total Energy, E(TD-HF/TD-DFT) =  -1857.16615246
 Copying the excited state density for this state as the 1-particle RhoCI density.

 The electronic state is 1-A.
 Alpha  occ. eigenvalues --  -19.22254 -19.22119 -19.21179 -19.19863 -10.32315
 Alpha  occ. eigenvalues --  -10.32087 -10.32016 -10.30622 -10.28744 -10.28294
 Alpha  occ. eigenvalues --  -10.28071 -10.28070 -10.28053 -10.27895 -10.27893
 Alpha  occ. eigenvalues --  -10.27817 -10.27745 -10.27693 -10.27676 -10.27484
 Alpha  occ. eigenvalues --  -10.27263 -10.27151 -10.26597 -10.26407 -10.26391
 Alpha  occ. eigenvalues --  -10.26363 -10.26225 -10.26114 -10.25765 -10.25681
 Alpha  occ. eigenvalues --  -10.25676 -10.25572 -10.25487 -10.25473 -10.25391
 Alpha  occ. eigenvalues --  -10.25196 -10.24841 -10.24836 -10.24616 -10.24323
 Alpha  occ. eigenvalues --  -10.24024 -10.23457 -10.23155 -10.22689  -1.14704
 Alpha  occ. eigenvalues --   -1.11913  -1.11604  -1.09185  -0.92485  -0.92135
 Alpha  occ. eigenvalues --   -0.91266  -0.90909  -0.90241  -0.89307  -0.88791
 Alpha  occ. eigenvalues --   -0.87008  -0.85645  -0.85472  -0.84460  -0.82663
 Alpha  occ. eigenvalues --   -0.81854  -0.81333  -0.80807  -0.78891  -0.77925
 Alpha  occ. eigenvalues --   -0.77462  -0.77115  -0.76305  -0.76127  -0.75738
 Alpha  occ. eigenvalues --   -0.75645  -0.74296  -0.72909  -0.71447  -0.69729
 Alpha  occ. eigenvalues --   -0.68921  -0.67142  -0.65557  -0.65085  -0.64756
 Alpha  occ. eigenvalues --   -0.63094  -0.61558  -0.60874  -0.60351  -0.59769
 Alpha  occ. eigenvalues --   -0.59397  -0.58696  -0.58512  -0.58038  -0.57447
 Alpha  occ. eigenvalues --   -0.55731  -0.55153  -0.54983  -0.54452  -0.54059
 Alpha  occ. eigenvalues --   -0.53807  -0.53415  -0.52695  -0.52412  -0.51586
 Alpha  occ. eigenvalues --   -0.51089  -0.50804  -0.50736  -0.50382  -0.49674
 Alpha  occ. eigenvalues --   -0.49313  -0.48930  -0.48866  -0.48767  -0.48619
 Alpha  occ. eigenvalues --   -0.48379  -0.48124  -0.47465  -0.47210  -0.47141
 Alpha  occ. eigenvalues --   -0.46983  -0.46733  -0.46402  -0.45960  -0.45752
 Alpha  occ. eigenvalues --   -0.45437  -0.44549  -0.44436  -0.44078  -0.43964
 Alpha  occ. eigenvalues --   -0.43338  -0.43292  -0.43117  -0.42505  -0.42462
 Alpha  occ. eigenvalues --   -0.42131  -0.42003  -0.41894  -0.41540  -0.41309
 Alpha  occ. eigenvalues --   -0.41142  -0.40923  -0.40478  -0.40418  -0.40313
 Alpha  occ. eigenvalues --   -0.39869  -0.39754  -0.39402  -0.38956  -0.38893
 Alpha  occ. eigenvalues --   -0.38474  -0.37941  -0.37773  -0.37545  -0.36761
 Alpha  occ. eigenvalues --   -0.36419  -0.36334  -0.35550  -0.34788  -0.34122
 Alpha  occ. eigenvalues --   -0.32860  -0.32374  -0.32186  -0.31359  -0.30560
 Alpha  occ. eigenvalues --   -0.29549  -0.27711  -0.24165  -0.19746
 Alpha virt. eigenvalues --   -0.05423  -0.00224   0.03906   0.07161   0.07675
 Alpha virt. eigenvalues --    0.09852   0.10423   0.10798   0.11655   0.11897
 Alpha virt. eigenvalues --    0.12421   0.12504   0.13005   0.13703   0.13875

 Mulliken charges:
               1
     1  O   -0.519031
     2  O   -0.535334
     3  O   -0.560010
     4  O   -0.529271
     5  C    0.151127
     6  C    0.270091
     7  C    0.031440
     8  C   -0.167744
     9  C   -0.197008
    10  C    0.144920
    11  C   -0.352545
    12  C   -0.073545
    13  C   -0.319006
    14  C   -0.304458
    15  C   -0.060723
    16  C    0.050570
    17  C   -0.386046
    18  C   -0.097770
    19  C   -0.065884
    20  C   -0.026056
    21  C    0.235110
    22  C   -0.206770
    23  C    0.168152
    24  C   -0.180533
    25  C   -0.096736
    26  C   -0.263182
    27  C   -0.283615
    28  C   -0.289909
    29  C   -0.136751
    30  C    0.231508
    31  C    0.097179
    32  C   -0.298088
    33  C   -0.403190
    34  C   -0.106062
    35  C    0.095004
    36  C   -0.378291
    37  C   -0.123652
    38  C   -0.068132
    39  C   -0.072145
    40  C   -0.107062
    41  C   -0.115170
    42  C   -0.121903
    43  C    0.110073
    44  C   -0.387255
    45  H    0.090470
    46  H    0.122320
    47  H    0.113220
    48  H    0.080354
    49  H    0.096603
    50  H    0.084587
    51  H    0.116558
    52  H    0.113792
    53  H    0.098392
    54  H    0.067407
    55  H    0.118246
    56  H    0.093397
    57  H    0.130860
    58  H    0.098778
    59  H    0.111512
    60  H    0.290648
    61  H    0.073130
    62  H    0.117144
    63  H    0.134831
    64  H    0.117263
    65  H    0.091942
    66  H    0.092360
    67  H    0.074661
    68  H    0.092947
    69  H    0.071688
    70  H    0.076703
    71  H    0.122874
    72  H    0.103233
    73  H    0.103754
    74  H    0.076070
    75  H    0.121005
    76  H    0.101509
    77  H    0.077336
    78  H    0.121409
    79  H    0.063183
    80  H    0.124913
    81  H    0.096763
    82  H    0.308292
    83  H    0.306613
    84  H    0.108221
    85  H    0.129065
    86  H    0.131557
    87  H    0.093847
    88  H    0.072982
    89  H    0.100593
    90  H    0.137319
    91  H    0.139971
    92  H    0.077592
    93  H    0.076864
    94  H    0.079050
    95  H    0.090850
    96  H    0.073787
    97  H    0.068021
    98  H    0.110030
    99  H    0.123600
   100  H    0.137591
 Sum of Mulliken charges =  -0.00000

 Dipole moment (field-independent basis, Debye):
    X=              2.9906    Y=             -0.2295    Z=              1.8511  Tot=              3.5246
 Quadrupole moment (field-independent basis, Debye-Ang):
   XX=           -253.4931   YY=           -260.3803   ZZ=           -274.7663
   XY=              0.5386   XZ=             22.8660   YZ=             -4.0410

 Normal termination of Gaussian 16 at Tue Jul 30 17:09:54 2019.
