 Gaussian 16, Revision A.03,
 Gaussian 16:  ES64L-G16RevA.03 25-Dec-2016

 -------------------------------------
 # td=(NStates=1) CAM-B3LYP/6-31G(d,p)
 -------------------------------------

 --
 TD
 --
 Symbolic Z-matrix:
 Charge =  0 Multiplicity = 1

                         Standard orientation:
 ---------------------------------------------------------------------
 Center     Atomic      Atomic             Coordinates (Angstroms)
 Number     Number       Type             X           Y           Z
 ---------------------------------------------------------------------
      1          8           0      -11.729484   -0.017533   -1.550800
      2          8           0      -12.961359   -2.399133    1.566941
      3          8           0       10.570871   -0.975621   -2.092212
      4          8           0       14.389025   -1.153202   -0.218179
      5          6           0      -10.984723   -0.226290   -0.357592
      6          6           0      -11.601127   -1.322273   -1.221006
      7          6           0      -11.802140    0.346558    0.848198
      8          6           0      -12.935838   -1.934071   -0.811918
      9          6           0      -13.253485   -0.118077    0.806462
     10          6           0      -13.502040   -1.574116    0.572448
     11          6           0      -10.851231   -2.161841   -2.122785
     12          6           0       -9.598156   -0.032367   -0.417826
     13          6           0      -11.032677   -0.064833    2.108983
     14          6           0      -11.824274    1.898627    0.772874
     15          6           0       -8.587936   -0.793033   -0.000559
     16          6           0       -7.131169   -0.455035    0.079248
     17          6           0       -6.299540   -1.696988    0.529326
     18          6           0       -6.683672    0.821159   -0.137971
     19          6           0       -5.283420    1.036319   -0.185000
     20          6           0       11.973990   -0.002898    1.342803
     21          6           0       11.678552   -0.588354   -1.230380
     22          6           0       12.695890   -1.409423    1.526994
     23          6           0       13.255692   -1.932024    0.196803
     24          6           0       12.398660   -1.900069   -0.941782
     25          6           0       11.171875    0.059147    0.080780
     26          6           0       11.079979    0.138619    2.586563
     27          6           0       12.927249    1.219831    1.337465
     28          6           0       12.591050    0.347676   -2.092735
     29          6           0       -4.736504    2.349117   -0.209558
     30          6           0        9.926869    0.422115    0.142969
     31          6           0       -3.331324    2.744534   -0.396470
     32          6           0        8.652304    0.821770   -0.240490
     33          6           0       -3.040266    4.200340   -0.706053
     34          6           0       -2.350118    1.793265   -0.237215
     35          6           0        7.482958    0.098807    0.062789
     36          6           0        7.571305   -1.326973    0.293378
     37          6           0        6.251911    0.659323   -0.148448
     38          6           0       -0.952455    2.106332   -0.225560
     39          6           0        4.890743    0.138266   -0.010340
     40          6           0       -0.013416    1.056080   -0.011010
     41          6           0        3.786682    0.777092   -0.144484
     42          6           0        1.370612    1.318603   -0.057097
     43          6           0        2.393004    0.418994   -0.064305
     44          6           0        2.168644   -1.039917    0.204899
     45          1           0      -12.984559   -3.097058   -0.926317
     46          1           0      -13.677088   -1.449280   -1.605096
     47          1           0      -13.985472    0.012211    1.805946
     48          1           0      -13.865612    0.421629   -0.008595
     49          1           0      -14.332975   -1.921155    0.820685
     50          1           0      -10.801368   -3.277518   -1.827569
     51          1           0      -11.247231   -2.203304   -3.256102
     52          1           0       -9.973448   -1.568656   -2.175895
     53          1           0       -9.368011    0.986355   -0.694593
     54          1           0       -9.945998    0.204858    2.278982
     55          1           0      -11.542844    0.419598    2.910021
     56          1           0      -11.164195   -1.237504    2.368007
     57          1           0      -12.452632    2.094629   -0.029967
     58          1           0      -12.142935    2.390613    1.643046
     59          1           0      -10.721080    2.247634    0.626045
     60          1           0      -12.111959   -2.678277    1.228326
     61          1           0       -9.007453   -1.737415    0.438972
     62          1           0       -5.343143   -1.998113   -0.142766
     63          1           0       -5.918404   -1.595594    1.636318
     64          1           0       -7.096584   -2.440890    0.442836
     65          1           0       -7.321537    1.690815   -0.304547
     66          1           0       -4.584106    0.133062   -0.014588
     67          1           0       13.323466   -1.360089    2.436944
     68          1           0       11.917994   -2.115232    1.736974
     69          1           0       13.633537   -2.999790    0.221654
     70          1           0       12.970930   -2.189505   -1.884116
     71          1           0       11.728590   -2.738063   -0.645844
     72          1           0       11.730811    0.317982    3.390226
     73          1           0       10.535672    1.067918    2.382702
     74          1           0       10.256126   -0.628110    2.793925
     75          1           0       13.628029    1.269268    0.505041
     76          1           0       12.379504    2.143467    1.406398
     77          1           0       13.550088    1.207688    2.306606
     78          1           0       12.561482   -0.083925   -3.154640
     79          1           0       12.162872    1.476997   -2.075934
     80          1           0       13.656171    0.370959   -1.490959
     81          1           0       -5.332655    3.287523   -0.408609
     82          1           0       10.387887    0.070288   -2.359743
     83          1           0       15.048026   -0.860754    0.586437
     84          1           0        8.623918    1.821101   -0.438778
     85          1           0       -2.109254    4.553112   -0.183949
     86          1           0       -2.447631    4.362342   -1.721710
     87          1           0       -4.003228    4.797875   -0.520793
     88          1           0       -2.549328    0.821162    0.092022
     89          1           0        6.819891   -1.825172    0.498466
     90          1           0        8.283397   -1.661710   -0.381550
     91          1           0        8.047428   -1.244643    1.389364
     92          1           0        6.192761    1.757936   -0.276206
     93          1           0       -0.608763    3.185913   -0.550500
     94          1           0        4.838016   -0.933353    0.030030
     95          1           0       -0.482218    0.054833    0.050175
     96          1           0        3.907528    1.818441   -0.484577
     97          1           0        1.510383    2.370510    0.084202
     98          1           0        1.145857   -1.253904    0.660532
     99          1           0        2.143752   -1.613788   -0.821934
    100          1           0        3.150434   -1.443949    0.834599
 ---------------------------------------------------------------------

 SCF Done:  E(RCAM-B3LYP) =  -1857.31251828     A.U. after   15 cycles

 Excitation energies and oscillator strengths:

 Excited State   1:      Singlet-A      2.3602 eV  525.31 nm  f=2.8428  <S**2>=0.000
     163 ->166        -0.14158
     164 ->165         0.68971
 This state for optimization and/or second-order correction.
 Total Energy, E(TD-HF/TD-DFT) =  -1857.22578215
 Copying the excited state density for this state as the 1-particle RhoCI density.

 The electronic state is 1-A.
 Alpha  occ. eigenvalues --  -19.22325 -19.22022 -19.21865 -19.20232 -10.32121
 Alpha  occ. eigenvalues --  -10.31605 -10.31541 -10.30942 -10.28652 -10.28434
 Alpha  occ. eigenvalues --  -10.28284 -10.28013 -10.27941 -10.27940 -10.27887
 Alpha  occ. eigenvalues --  -10.27846 -10.27775 -10.27758 -10.27564 -10.27492
 Alpha  occ. eigenvalues --  -10.27284 -10.27262 -10.27243 -10.26992 -10.26978
 Alpha  occ. eigenvalues --  -10.26877 -10.26704 -10.26633 -10.26603 -10.26366
 Alpha  occ. eigenvalues --  -10.26280 -10.25900 -10.25656 -10.25648 -10.25634
 Alpha  occ. eigenvalues --  -10.25540 -10.25472 -10.25352 -10.25223 -10.25101
 Alpha  occ. eigenvalues --  -10.24725 -10.24637 -10.24161 -10.23227  -1.18480
 Alpha  occ. eigenvalues --   -1.10765  -1.08333  -1.07437  -0.93440  -0.92381
 Alpha  occ. eigenvalues --   -0.92026  -0.91408  -0.90725  -0.89954  -0.87504
 Alpha  occ. eigenvalues --   -0.86954  -0.86545  -0.85868  -0.84674  -0.83353
 Alpha  occ. eigenvalues --   -0.82140  -0.81126  -0.80613  -0.78277  -0.77792
 Alpha  occ. eigenvalues --   -0.76467  -0.76293  -0.76079  -0.75729  -0.75309
 Alpha  occ. eigenvalues --   -0.75297  -0.74432  -0.72910  -0.71158  -0.69548
 Alpha  occ. eigenvalues --   -0.68544  -0.66828  -0.65232  -0.64725  -0.63985
 Alpha  occ. eigenvalues --   -0.63060  -0.62027  -0.61173  -0.60444  -0.60083
 Alpha  occ. eigenvalues --   -0.59400  -0.58532  -0.57965  -0.56948  -0.56250
 Alpha  occ. eigenvalues --   -0.55995  -0.55641  -0.55418  -0.55128  -0.54444
 Alpha  occ. eigenvalues --   -0.54280  -0.53035  -0.52902  -0.52081  -0.51886
 Alpha  occ. eigenvalues --   -0.50885  -0.50784  -0.50707  -0.50301  -0.50122
 Alpha  occ. eigenvalues --   -0.49615  -0.49403  -0.49033  -0.48148  -0.47584
 Alpha  occ. eigenvalues --   -0.47273  -0.47256  -0.47212  -0.46829  -0.46530
 Alpha  occ. eigenvalues --   -0.46320  -0.46191  -0.45865  -0.45520  -0.45483
 Alpha  occ. eigenvalues --   -0.45084  -0.45013  -0.44639  -0.43970  -0.43909
 Alpha  occ. eigenvalues --   -0.43372  -0.43140  -0.43052  -0.42826  -0.42793
 Alpha  occ. eigenvalues --   -0.42309  -0.42011  -0.41925  -0.41806  -0.41679
 Alpha  occ. eigenvalues --   -0.40909  -0.40881  -0.40482  -0.40257  -0.39809
 Alpha  occ. eigenvalues --   -0.39799  -0.39654  -0.39247  -0.39002  -0.38938
 Alpha  occ. eigenvalues --   -0.38812  -0.38341  -0.38120  -0.37969  -0.36703
 Alpha  occ. eigenvalues --   -0.36407  -0.36178  -0.34650  -0.33775  -0.33094
 Alpha  occ. eigenvalues --   -0.32985  -0.32346  -0.31774  -0.31626  -0.30190
 Alpha  occ. eigenvalues --   -0.30149  -0.27729  -0.24506  -0.20405
 Alpha virt. eigenvalues --   -0.05528  -0.01002   0.02299   0.06278   0.07472
 Alpha virt. eigenvalues --    0.08953   0.09795   0.09938   0.11239   0.11499
 Alpha virt. eigenvalues --    0.11986   0.12272   0.12690   0.12839   0.13503

 Mulliken charges:
               1
     1  O   -0.486385
     2  O   -0.550526
     3  O   -0.553183
     4  O   -0.572817
     5  C    0.203457
     6  C    0.253479
     7  C    0.025671
     8  C   -0.241580
     9  C   -0.185086
    10  C    0.202088
    11  C   -0.327341
    12  C   -0.122106
    13  C   -0.314186
    14  C   -0.296234
    15  C   -0.076522
    16  C    0.066328
    17  C   -0.358696
    18  C   -0.083780
    19  C   -0.077813
    20  C   -0.014831
    21  C    0.228006
    22  C   -0.198390
    23  C    0.172090
    24  C   -0.179767
    25  C    0.000451
    26  C   -0.299617
    27  C   -0.308840
    28  C   -0.336029
    29  C   -0.131700
    30  C    0.044236
    31  C    0.103636
    32  C   -0.204871
    33  C   -0.380876
    34  C   -0.103133
    35  C    0.111890
    36  C   -0.322015
    37  C   -0.140274
    38  C   -0.090044
    39  C   -0.080787
    40  C   -0.094586
    41  C   -0.098881
    42  C   -0.129021
    43  C    0.124350
    44  C   -0.367637
    45  H    0.078607
    46  H    0.101475
    47  H    0.075042
    48  H    0.101668
    49  H    0.093482
    50  H    0.097442
    51  H    0.101560
    52  H    0.122003
    53  H    0.088735
    54  H    0.106320
    55  H    0.104142
    56  H    0.083663
    57  H    0.123932
    58  H    0.114799
    59  H    0.077637
    60  H    0.294235
    61  H    0.078036
    62  H    0.106249
    63  H    0.122682
    64  H    0.120659
    65  H    0.100533
    66  H    0.091641
    67  H    0.097419
    68  H    0.108941
    69  H    0.076144
    70  H    0.122020
    71  H    0.108176
    72  H    0.099263
    73  H    0.107235
    74  H    0.105093
    75  H    0.114760
    76  H    0.114136
    77  H    0.075524
    78  H    0.121640
    79  H    0.072888
    80  H    0.142593
    81  H    0.071849
    82  H    0.302046
    83  H    0.303808
    84  H    0.108939
    85  H    0.123890
    86  H    0.118045
    87  H    0.112204
    88  H    0.079858
    89  H    0.104328
    90  H    0.152845
    91  H    0.086254
    92  H    0.060650
    93  H    0.078005
    94  H    0.075044
    95  H    0.086497
    96  H    0.069678
    97  H    0.089276
    98  H    0.106468
    99  H    0.110798
   100  H    0.101013
 Sum of Mulliken charges =  -0.00000

 Dipole moment (field-independent basis, Debye):
    X=              4.0304    Y=              0.4662    Z=              1.8270  Tot=              4.4496
 Quadrupole moment (field-independent basis, Debye-Ang):
   XX=           -264.3893   YY=           -257.5785   ZZ=           -281.0569
   XY=              4.4467   XZ=             32.3175   YZ=             -2.7007

 Normal termination of Gaussian 16 at Fri Aug  2 08:05:35 2019.
