 Gaussian 16, Revision A.03,
 Gaussian 16:  ES64L-G16RevA.03 25-Dec-2016

 -------------------------------------
 # td=(NStates=1) CAM-B3LYP/6-31G(d,p)
 -------------------------------------

 --
 TD
 --
 Symbolic Z-matrix:
 Charge =  0 Multiplicity = 1

                         Standard orientation:
 ---------------------------------------------------------------------
 Center     Atomic      Atomic             Coordinates (Angstroms)
 Number     Number       Type             X           Y           Z
 ---------------------------------------------------------------------
      1          8           0      -11.713651    0.387064   -1.418875
      2          8           0      -12.979454   -2.447576    1.376518
      3          8           0       10.615842   -0.983708   -2.081822
      4          8           0       14.589982   -1.154391   -0.054255
      5          6           0      -11.043313   -0.116528   -0.205143
      6          6           0      -11.808147   -1.009068   -1.135376
      7          6           0      -11.655898    0.428230    1.084459
      8          6           0      -13.197059   -1.591820   -0.976433
      9          6           0      -13.198244   -0.050926    1.091301
     10          6           0      -13.526257   -1.441427    0.545453
     11          6           0      -10.974065   -1.891901   -2.261226
     12          6           0       -9.500706    0.074868   -0.295627
     13          6           0      -10.980425   -0.201023    2.272397
     14          6           0      -11.581475    1.915702    0.956119
     15          6           0       -8.623543   -0.785055    0.123173
     16          6           0       -7.225505   -0.680565    0.026451
     17          6           0       -6.564058   -1.947802    0.281713
     18          6           0       -6.601478    0.534441   -0.098410
     19          6           0       -5.250255    0.762100   -0.078315
     20          6           0       11.849894    0.090864    1.439681
     21          6           0       11.692379   -0.637471   -1.160655
     22          6           0       12.595248   -1.245352    1.592026
     23          6           0       13.287111   -1.811970    0.387214
     24          6           0       12.418521   -1.935051   -0.853859
     25          6           0       11.074252    0.079863    0.059518
     26          6           0       10.824181    0.256972    2.601330
     27          6           0       12.830960    1.262773    1.456790
     28          6           0       12.551039    0.397068   -1.990199
     29          6           0       -4.744798    2.089099   -0.345848
     30          6           0        9.902452    0.533617   -0.109251
     31          6           0       -3.383606    2.446287   -0.428549
     32          6           0        8.713652    1.106769   -0.182340
     33          6           0       -3.053647    3.925412   -0.494372
     34          6           0       -2.276934    1.537429   -0.323699
     35          6           0        7.510793    0.181409   -0.020357
     36          6           0        7.678558   -1.222214    0.160370
     37          6           0        6.290481    0.871701   -0.110183
     38          6           0       -0.910531    1.820428   -0.465195
     39          6           0        4.957688    0.257721   -0.089791
     40          6           0        0.022222    0.856422   -0.395206
     41          6           0        3.810996    0.762789   -0.339340
     42          6           0        1.509041    1.168588   -0.406642
     43          6           0        2.462794    0.300577   -0.227023
     44          6           0        2.388100   -1.087950    0.250477
     45          1           0      -13.190893   -2.737920   -1.105861
     46          1           0      -13.840879   -1.186276   -1.729642
     47          1           0      -13.479642    0.134619    2.122087
     48          1           0      -13.707075    0.750338    0.536051
     49          1           0      -14.515918   -1.570731    0.722642
     50          1           0      -10.909095   -2.867132   -1.840452
     51          1           0      -11.683490   -1.819765   -3.193451
     52          1           0      -10.202670   -1.395932   -2.589994
     53          1           0       -9.033109    0.890919   -0.767575
     54          1           0       -9.968980    0.108992    2.159568
     55          1           0      -11.345682    0.377626    3.227774
     56          1           0      -11.293692   -1.268262    2.326002
     57          1           0      -11.960103    2.339621    0.088311
     58          1           0      -12.304882    2.373543    1.696953
     59          1           0      -10.552596    2.401998    0.911820
     60          1           0      -12.000949   -2.465053    0.936960
     61          1           0       -9.004855   -1.746726    0.390461
     62          1           0       -5.769570   -2.227614   -0.444654
     63          1           0       -5.946430   -1.620319    1.141796
     64          1           0       -7.128712   -2.759116    0.528178
     65          1           0       -7.320575    1.326358   -0.185105
     66          1           0       -4.682181   -0.147753    0.101688
     67          1           0       13.186743   -0.951212    2.408343
     68          1           0       11.906023   -1.943242    1.827572
     69          1           0       13.461036   -2.694846    0.596347
     70          1           0       12.935534   -2.601886   -1.531204
     71          1           0       11.751766   -2.710779   -0.570238
     72          1           0       11.398912    0.240007    3.526569
     73          1           0       10.316324    1.158238    2.468028
     74          1           0       10.086682   -0.630589    2.557576
     75          1           0       13.658241    1.011904    0.788591
     76          1           0       12.348981    2.220499    1.042898
     77          1           0       13.359913    1.244927    2.508309
     78          1           0       12.881543    0.047451   -2.990142
     79          1           0       11.920717    1.077942   -2.149856
     80          1           0       13.428934    0.558437   -1.401446
     81          1           0       -5.361812    2.759537   -0.665820
     82          1           0        9.956833   -0.175038   -2.295524
     83          1           0       15.042250   -1.166777    0.787740
     84          1           0        8.598633    1.985699   -0.620352
     85          1           0       -2.539908    4.362134    0.597389
     86          1           0       -2.364929    4.120873   -1.323119
     87          1           0       -3.902654    4.362236   -0.772659
     88          1           0       -2.692198    0.515832   -0.080175
     89          1           0        6.856413   -1.815449   -0.269051
     90          1           0        8.511988   -1.616148   -0.486619
     91          1           0        8.001230   -1.597186    1.272479
     92          1           0        6.333047    1.759090   -0.475494
     93          1           0       -0.546659    2.810838   -0.446964
     94          1           0        5.058448   -0.860630    0.371529
     95          1           0       -0.133352   -0.231531   -0.352753
     96          1           0        4.004503    1.769705   -0.674129
     97          1           0        1.748585    2.229767   -0.649167
     98          1           0        1.403699   -1.547192    0.271500
     99          1           0        2.948915   -1.889289   -0.334367
    100          1           0        2.553354   -1.135864    1.445517
 ---------------------------------------------------------------------

 SCF Done:  E(RCAM-B3LYP) =  -1857.30676563     A.U. after   15 cycles

 Excitation energies and oscillator strengths:

 Excited State   1:      Singlet-A      2.3450 eV  528.72 nm  f=2.3696  <S**2>=0.000
     163 ->166        -0.11525
     164 ->165         0.69950
     164 <-165        -0.10045
 This state for optimization and/or second-order correction.
 Total Energy, E(TD-HF/TD-DFT) =  -1857.22058973
 Copying the excited state density for this state as the 1-particle RhoCI density.

 The electronic state is 1-A.
 Alpha  occ. eigenvalues --  -19.23318 -19.22224 -19.21711 -19.20330 -10.32985
 Alpha  occ. eigenvalues --  -10.32653 -10.32138 -10.30352 -10.29681 -10.28271
 Alpha  occ. eigenvalues --  -10.28009 -10.27292 -10.27033 -10.27004 -10.26975
 Alpha  occ. eigenvalues --  -10.26723 -10.26662 -10.26662 -10.26525 -10.26495
 Alpha  occ. eigenvalues --  -10.26462 -10.26255 -10.26238 -10.26111 -10.25950
 Alpha  occ. eigenvalues --  -10.25943 -10.25935 -10.25931 -10.25788 -10.25694
 Alpha  occ. eigenvalues --  -10.25687 -10.25187 -10.25136 -10.25089 -10.25080
 Alpha  occ. eigenvalues --  -10.25073 -10.25055 -10.24920 -10.24838 -10.24689
 Alpha  occ. eigenvalues --  -10.24518 -10.24281 -10.24277 -10.21919  -1.14237
 Alpha  occ. eigenvalues --   -1.09866  -1.08067  -1.06359  -0.93695  -0.93435
 Alpha  occ. eigenvalues --   -0.92516  -0.91076  -0.90781  -0.90375  -0.87786
 Alpha  occ. eigenvalues --   -0.87132  -0.86483  -0.86047  -0.85258  -0.83865
 Alpha  occ. eigenvalues --   -0.82691  -0.81230  -0.80320  -0.78016  -0.77746
 Alpha  occ. eigenvalues --   -0.77452  -0.77002  -0.76750  -0.76273  -0.76240
 Alpha  occ. eigenvalues --   -0.76063  -0.74384  -0.73731  -0.71036  -0.70638
 Alpha  occ. eigenvalues --   -0.68592  -0.67218  -0.66022  -0.64461  -0.64305
 Alpha  occ. eigenvalues --   -0.63927  -0.62264  -0.60905  -0.60236  -0.59836
 Alpha  occ. eigenvalues --   -0.58705  -0.58359  -0.58192  -0.57709  -0.57204
 Alpha  occ. eigenvalues --   -0.56790  -0.56319  -0.55374  -0.54854  -0.54556
 Alpha  occ. eigenvalues --   -0.53917  -0.53403  -0.53097  -0.52812  -0.52324
 Alpha  occ. eigenvalues --   -0.51984  -0.51703  -0.50779  -0.50209  -0.49694
 Alpha  occ. eigenvalues --   -0.49593  -0.49326  -0.48964  -0.48714  -0.48533
 Alpha  occ. eigenvalues --   -0.48351  -0.47921  -0.47684  -0.47321  -0.46929
 Alpha  occ. eigenvalues --   -0.46821  -0.46426  -0.46201  -0.46030  -0.45979
 Alpha  occ. eigenvalues --   -0.45653  -0.45417  -0.45094  -0.44641  -0.44457
 Alpha  occ. eigenvalues --   -0.44117  -0.43846  -0.43523  -0.43252  -0.43189
 Alpha  occ. eigenvalues --   -0.42738  -0.42092  -0.41903  -0.41650  -0.41547
 Alpha  occ. eigenvalues --   -0.41386  -0.41218  -0.40702  -0.40025  -0.39832
 Alpha  occ. eigenvalues --   -0.39717  -0.39631  -0.39292  -0.38849  -0.38834
 Alpha  occ. eigenvalues --   -0.38311  -0.38212  -0.37641  -0.37432  -0.36733
 Alpha  occ. eigenvalues --   -0.36501  -0.35974  -0.35012  -0.34392  -0.34174
 Alpha  occ. eigenvalues --   -0.33359  -0.32612  -0.31712  -0.31477  -0.30953
 Alpha  occ. eigenvalues --   -0.30615  -0.28250  -0.24352  -0.20053
 Alpha virt. eigenvalues --   -0.05287  -0.00173   0.03521   0.07098   0.07739
 Alpha virt. eigenvalues --    0.08345   0.09624   0.10635   0.11354   0.12259
 Alpha virt. eigenvalues --    0.12407   0.13476   0.13583   0.13906   0.14231

 Mulliken charges:
               1
     1  O   -0.509566
     2  O   -0.529404
     3  O   -0.598267
     4  O   -0.554911
     5  C    0.187463
     6  C    0.202610
     7  C    0.022974
     8  C   -0.217716
     9  C   -0.198607
    10  C    0.144096
    11  C   -0.304804
    12  C   -0.123647
    13  C   -0.301819
    14  C   -0.327487
    15  C   -0.054089
    16  C    0.089911
    17  C   -0.393833
    18  C   -0.095014
    19  C   -0.081587
    20  C   -0.000369
    21  C    0.254550
    22  C   -0.184104
    23  C    0.141346
    24  C   -0.202417
    25  C   -0.119845
    26  C   -0.290348
    27  C   -0.307081
    28  C   -0.273493
    29  C   -0.103949
    30  C    0.186177
    31  C    0.055761
    32  C   -0.253679
    33  C   -0.345712
    34  C   -0.103537
    35  C    0.103209
    36  C   -0.395680
    37  C   -0.086183
    38  C   -0.076331
    39  C   -0.088378
    40  C   -0.080230
    41  C   -0.109831
    42  C   -0.158102
    43  C    0.176600
    44  C   -0.384366
    45  H    0.108864
    46  H    0.137582
    47  H    0.101608
    48  H    0.100017
    49  H    0.103032
    50  H    0.104492
    51  H    0.091809
    52  H    0.125172
    53  H    0.100217
    54  H    0.116438
    55  H    0.086552
    56  H    0.106986
    57  H    0.139766
    58  H    0.089748
    59  H    0.094867
    60  H    0.296596
    61  H    0.065935
    62  H    0.122798
    63  H    0.130507
    64  H    0.120315
    65  H    0.074302
    66  H    0.087961
    67  H    0.090520
    68  H    0.109103
    69  H    0.092219
    70  H    0.126919
    71  H    0.108072
    72  H    0.092945
    73  H    0.122774
    74  H    0.091943
    75  H    0.126300
    76  H    0.107680
    77  H    0.079066
    78  H    0.103479
    79  H    0.085211
    80  H    0.126134
    81  H    0.074831
    82  H    0.307648
    83  H    0.300960
    84  H    0.105411
    85  H    0.095342
    86  H    0.117704
    87  H    0.108965
    88  H    0.069953
    89  H    0.121758
    90  H    0.138064
    91  H    0.102165
    92  H    0.057647
    93  H    0.092817
    94  H    0.054810
    95  H    0.085562
    96  H    0.063053
    97  H    0.083691
    98  H    0.106178
    99  H    0.120350
   100  H    0.114850
 Sum of Mulliken charges =  -0.00000

 Dipole moment (field-independent basis, Debye):
    X=              1.3916    Y=             -0.8757    Z=              1.5043  Tot=              2.2285
 Quadrupole moment (field-independent basis, Debye-Ang):
   XX=           -273.4449   YY=           -257.2502   ZZ=           -277.5198
   XY=             -3.8051   XZ=             40.4550   YZ=             -3.8450

 Normal termination of Gaussian 16 at Wed Jul 31 16:45:47 2019.
