 Gaussian 16, Revision A.03,
 Gaussian 16:  ES64L-G16RevA.03 25-Dec-2016

 -------------------------------------
 # td=(NStates=1) CAM-B3LYP/6-31G(d,p)
 -------------------------------------

 --
 TD
 --
 Symbolic Z-matrix:
 Charge =  0 Multiplicity = 1

                         Standard orientation:
 ---------------------------------------------------------------------
 Center     Atomic      Atomic             Coordinates (Angstroms)
 Number     Number       Type             X           Y           Z
 ---------------------------------------------------------------------
      1          8           0      -11.759041    0.246652   -1.521463
      2          8           0      -13.037427   -2.318625    1.521952
      3          8           0       10.680212   -1.049956   -2.250623
      4          8           0       14.297937   -0.933673    0.062169
      5          6           0      -11.066214   -0.124861   -0.332615
      6          6           0      -11.597058   -1.141273   -1.142865
      7          6           0      -11.695046    0.314962    0.933862
      8          6           0      -12.941669   -1.841540   -0.820889
      9          6           0      -13.235028   -0.089215    0.966875
     10          6           0      -13.499402   -1.451301    0.561686
     11          6           0      -10.853442   -1.971502   -2.199627
     12          6           0       -9.569470    0.089018   -0.347076
     13          6           0      -10.993116   -0.278815    2.198810
     14          6           0      -11.635316    1.773293    1.078120
     15          6           0       -8.589146   -0.772530    0.076808
     16          6           0       -7.168185   -0.598039    0.041866
     17          6           0       -6.268395   -1.710407    0.173227
     18          6           0       -6.676071    0.708268   -0.009876
     19          6           0       -5.266923    0.960758   -0.140719
     20          6           0       11.731327   -0.002518    1.419248
     21          6           0       11.686217   -0.550818   -1.203844
     22          6           0       12.493927   -1.464545    1.552305
     23          6           0       13.278690   -1.914118    0.293666
     24          6           0       12.350841   -1.912069   -0.950089
     25          6           0       11.063605   -0.072272    0.124282
     26          6           0       10.823528    0.030071    2.701235
     27          6           0       12.669890    1.225980    1.538713
     28          6           0       12.603912    0.433638   -1.880593
     29          6           0       -4.718008    2.192458   -0.198505
     30          6           0        9.859100    0.475927    0.024628
     31          6           0       -3.279339    2.525823   -0.353642
     32          6           0        8.643915    0.980219   -0.124415
     33          6           0       -2.919924    4.042009   -0.546264
     34          6           0       -2.263182    1.649141   -0.398622
     35          6           0        7.446453    0.159661   -0.051022
     36          6           0        7.700082   -1.273461    0.189603
     37          6           0        6.251102    0.685473   -0.218625
     38          6           0       -0.905499    1.991277   -0.497339
     39          6           0        4.890317    0.120375   -0.171870
     40          6           0        0.050574    1.017472   -0.414835
     41          6           0        3.756998    0.947736   -0.200859
     42          6           0        1.433839    1.322489   -0.272779
     43          6           0        2.417448    0.447147   -0.081372
     44          6           0        2.316254   -1.030360    0.084490
     45          1           0      -12.685975   -2.903823   -1.027189
     46          1           0      -13.872385   -1.651271   -1.578471
     47          1           0      -13.811626   -0.064014    1.836004
     48          1           0      -13.720747    0.479642    0.340619
     49          1           0      -14.542509   -1.722848    0.566506
     50          1           0      -10.490309   -2.851393   -1.875769
     51          1           0      -11.294577   -1.995766   -3.326311
     52          1           0       -9.855090   -1.554373   -2.536762
     53          1           0       -9.477739    1.131714   -0.409245
     54          1           0      -10.144833    0.391303    2.455959
     55          1           0      -11.740281   -0.368122    2.995493
     56          1           0      -10.635641   -1.289566    1.938617
     57          1           0      -12.046964    2.145329    0.235337
     58          1           0      -12.226094    2.241147    1.948562
     59          1           0      -10.575248    1.976082    1.111037
     60          1           0      -12.149688   -2.488580    1.523695
     61          1           0       -8.814552   -1.830753    0.409656
     62          1           0       -5.771967   -2.031957   -0.861468
     63          1           0       -5.504902   -1.586511    1.029883
     64          1           0       -6.858476   -2.796178    0.342870
     65          1           0       -7.342815    1.553289    0.029617
     66          1           0       -4.550286    0.092287   -0.111320
     67          1           0       13.290215   -1.525279    2.206846
     68          1           0       11.673153   -2.089051    1.852164
     69          1           0       13.697615   -2.847490    0.431782
     70          1           0       13.100876   -2.248906   -1.787005
     71          1           0       11.712735   -2.719360   -0.896409
     72          1           0       11.515836   -0.319771    3.408834
     73          1           0       10.486759    1.163858    2.989608
     74          1           0       10.091497   -0.601653    2.724487
     75          1           0       13.695514    1.076590    0.870517
     76          1           0       12.163282    2.199977    1.229473
     77          1           0       13.148624    1.343191    2.516388
     78          1           0       13.071818    0.098653   -2.908752
     79          1           0       12.034231    1.276826   -2.212863
     80          1           0       13.484286    0.705388   -1.228549
     81          1           0       -5.447735    2.839296   -0.245482
     82          1           0       10.332738   -0.397566   -2.705785
     83          1           0       14.801799   -0.792698    1.022391
     84          1           0        8.606785    2.172869   -0.700901
     85          1           0       -2.131721    4.470371    0.142834
     86          1           0       -2.581948    4.308975   -1.485370
     87          1           0       -4.038090    4.540258   -0.508177
     88          1           0       -2.356109    0.510954   -0.374760
     89          1           0        6.885613   -1.828038    0.087245
     90          1           0        8.533929   -1.659007   -0.344523
     91          1           0        8.094375   -1.244360    1.115392
     92          1           0        6.113059    1.800375   -0.228138
     93          1           0       -0.588452    3.077598   -0.758316
     94          1           0        4.797467   -0.997739   -0.046356
     95          1           0       -0.177382   -0.072698   -0.118565
     96          1           0        3.898865    2.021142   -0.404100
     97          1           0        1.756397    2.345905   -0.283130
     98          1           0        1.401361   -1.357862   -0.239439
     99          1           0        2.971395   -1.783600   -0.374246
    100          1           0        2.654951   -1.259280    1.312808
 ---------------------------------------------------------------------

 SCF Done:  E(RCAM-B3LYP) =  -1857.30059542     A.U. after   14 cycles

 Excitation energies and oscillator strengths:

 Excited State   1:      Singlet-A      2.5896 eV  478.78 nm  f=2.9441  <S**2>=0.000
     163 ->166        -0.15907
     164 ->165         0.68006
 This state for optimization and/or second-order correction.
 Total Energy, E(TD-HF/TD-DFT) =  -1857.20542979
 Copying the excited state density for this state as the 1-particle RhoCI density.

 The electronic state is 1-A.
 Alpha  occ. eigenvalues --  -19.23215 -19.21909 -19.19601 -19.19060 -10.32992
 Alpha  occ. eigenvalues --  -10.31729 -10.31540 -10.30450 -10.29106 -10.28892
 Alpha  occ. eigenvalues --  -10.28659 -10.28342 -10.27901 -10.27881 -10.27455
 Alpha  occ. eigenvalues --  -10.27291 -10.27119 -10.27050 -10.26878 -10.26855
 Alpha  occ. eigenvalues --  -10.26851 -10.26828 -10.26733 -10.26696 -10.26628
 Alpha  occ. eigenvalues --  -10.26498 -10.26460 -10.26332 -10.26291 -10.26276
 Alpha  occ. eigenvalues --  -10.26118 -10.26046 -10.25659 -10.25571 -10.25555
 Alpha  occ. eigenvalues --  -10.25507 -10.25143 -10.24915 -10.24892 -10.24840
 Alpha  occ. eigenvalues --  -10.24676 -10.23574 -10.22192 -10.22177  -1.15704
 Alpha  occ. eigenvalues --   -1.11116  -1.08914  -1.08295  -0.93331  -0.92774
 Alpha  occ. eigenvalues --   -0.92448  -0.91813  -0.91122  -0.90436  -0.87422
 Alpha  occ. eigenvalues --   -0.86346  -0.86308  -0.85177  -0.84434  -0.83441
 Alpha  occ. eigenvalues --   -0.82181  -0.81391  -0.80500  -0.78374  -0.77443
 Alpha  occ. eigenvalues --   -0.76773  -0.76681  -0.76379  -0.76244  -0.75921
 Alpha  occ. eigenvalues --   -0.75767  -0.75018  -0.73919  -0.71270  -0.69774
 Alpha  occ. eigenvalues --   -0.68755  -0.67404  -0.66214  -0.65930  -0.65092
 Alpha  occ. eigenvalues --   -0.63357  -0.61764  -0.61023  -0.60082  -0.59788
 Alpha  occ. eigenvalues --   -0.59255  -0.58324  -0.58219  -0.56942  -0.56540
 Alpha  occ. eigenvalues --   -0.55904  -0.55379  -0.54930  -0.54234  -0.54166
 Alpha  occ. eigenvalues --   -0.53838  -0.53517  -0.53104  -0.52980  -0.52107
 Alpha  occ. eigenvalues --   -0.51677  -0.51417  -0.51209  -0.49896  -0.49665
 Alpha  occ. eigenvalues --   -0.49410  -0.49172  -0.48989  -0.48816  -0.48607
 Alpha  occ. eigenvalues --   -0.48128  -0.47996  -0.47646  -0.47179  -0.46876
 Alpha  occ. eigenvalues --   -0.46448  -0.46328  -0.45667  -0.45265  -0.45076
 Alpha  occ. eigenvalues --   -0.44768  -0.44538  -0.44329  -0.44045  -0.43810
 Alpha  occ. eigenvalues --   -0.43536  -0.43371  -0.43269  -0.43153  -0.42907
 Alpha  occ. eigenvalues --   -0.42211  -0.41775  -0.41705  -0.41474  -0.41139
 Alpha  occ. eigenvalues --   -0.40872  -0.40852  -0.40433  -0.40194  -0.39773
 Alpha  occ. eigenvalues --   -0.39669  -0.39445  -0.39005  -0.38810  -0.38659
 Alpha  occ. eigenvalues --   -0.38332  -0.37751  -0.37291  -0.36875  -0.36796
 Alpha  occ. eigenvalues --   -0.36242  -0.36058  -0.35612  -0.34353  -0.33685
 Alpha  occ. eigenvalues --   -0.33605  -0.32570  -0.31983  -0.31730  -0.31130
 Alpha  occ. eigenvalues --   -0.29358  -0.27948  -0.24445  -0.20813
 Alpha virt. eigenvalues --   -0.04815  -0.00660   0.03441   0.04872   0.07384
 Alpha virt. eigenvalues --    0.08321   0.10108   0.10573   0.11699   0.12140
 Alpha virt. eigenvalues --    0.12730   0.13303   0.13458   0.13573   0.14015

 Mulliken charges:
               1
     1  O   -0.503023
     2  O   -0.539759
     3  O   -0.556779
     4  O   -0.546892
     5  C    0.226413
     6  C    0.223629
     7  C   -0.004261
     8  C   -0.205783
     9  C   -0.159904
    10  C    0.141621
    11  C   -0.354484
    12  C   -0.100747
    13  C   -0.294409
    14  C   -0.300859
    15  C   -0.084758
    16  C    0.123494
    17  C   -0.388367
    18  C   -0.110620
    19  C   -0.065513
    20  C    0.020445
    21  C    0.245280
    22  C   -0.210840
    23  C    0.142512
    24  C   -0.167774
    25  C   -0.059413
    26  C   -0.293754
    27  C   -0.307655
    28  C   -0.313083
    29  C   -0.094482
    30  C    0.182325
    31  C    0.071141
    32  C   -0.288107
    33  C   -0.373262
    34  C   -0.106719
    35  C    0.108973
    36  C   -0.362923
    37  C   -0.126437
    38  C   -0.068003
    39  C   -0.091582
    40  C   -0.110977
    41  C   -0.133664
    42  C   -0.124880
    43  C    0.148840
    44  C   -0.364109
    45  H    0.099676
    46  H    0.092115
    47  H    0.108329
    48  H    0.104837
    49  H    0.089683
    50  H    0.117736
    51  H    0.110068
    52  H    0.110722
    53  H    0.099718
    54  H    0.100411
    55  H    0.122893
    56  H    0.069408
    57  H    0.126950
    58  H    0.100155
    59  H    0.087350
    60  H    0.286893
    61  H    0.071274
    62  H    0.121050
    63  H    0.132748
    64  H    0.079621
    65  H    0.089369
    66  H    0.080157
    67  H    0.076228
    68  H    0.105091
    69  H    0.088482
    70  H    0.093824
    71  H    0.121617
    72  H    0.110907
    73  H    0.091191
    74  H    0.113307
    75  H    0.085891
    76  H    0.107296
    77  H    0.097868
    78  H    0.099971
    79  H    0.095005
    80  H    0.144524
    81  H    0.062863
    82  H    0.283089
    83  H    0.303151
    84  H    0.084351
    85  H    0.120210
    86  H    0.138425
    87  H    0.083846
    88  H    0.081604
    89  H    0.103707
    90  H    0.140495
    91  H    0.129090
    92  H    0.068066
    93  H    0.089236
    94  H    0.079197
    95  H    0.088112
    96  H    0.083828
    97  H    0.080865
    98  H    0.109061
    99  H    0.128476
   100  H    0.089113
 Sum of Mulliken charges =  -0.00000

 Dipole moment (field-independent basis, Debye):
    X=              4.0881    Y=             -0.6557    Z=              2.0158  Tot=              4.6050
 Quadrupole moment (field-independent basis, Debye-Ang):
   XX=           -275.9695   YY=           -258.0085   ZZ=           -276.2738
   XY=             -2.3229   XZ=             26.1108   YZ=             -2.5618

 Normal termination of Gaussian 16 at Tue Jul 30 17:42:50 2019.
