 Gaussian 16, Revision A.03,
 Gaussian 16:  ES64L-G16RevA.03 25-Dec-2016

 -------------------------------------
 # td=(NStates=1) CAM-B3LYP/6-31G(d,p)
 -------------------------------------

 --
 TD
 --
 Symbolic Z-matrix:
 Charge =  0 Multiplicity = 1

                         Standard orientation:
 ---------------------------------------------------------------------
 Center     Atomic      Atomic             Coordinates (Angstroms)
 Number     Number       Type             X           Y           Z
 ---------------------------------------------------------------------
      1          8           0      -11.774869    0.453094   -1.313138
      2          8           0      -12.893644   -2.481174    1.141389
      3          8           0       10.717024   -0.765649   -2.171361
      4          8           0       14.620936   -1.008249    0.156284
      5          6           0      -10.963037   -0.136354   -0.264769
      6          6           0      -11.766504   -0.934935   -1.297678
      7          6           0      -11.683638    0.240579    1.203040
      8          6           0      -13.074893   -1.663289   -1.035747
      9          6           0      -13.204718   -0.211439    1.076088
     10          6           0      -13.529058   -1.455510    0.406768
     11          6           0      -10.965138   -1.678484   -2.342223
     12          6           0       -9.545754    0.127339   -0.325148
     13          6           0      -11.097969   -0.566034    2.291110
     14          6           0      -11.651645    1.729237    1.481222
     15          6           0       -8.665634   -0.777636    0.224308
     16          6           0       -7.250898   -0.594081    0.105824
     17          6           0       -6.448483   -1.885623    0.251116
     18          6           0       -6.649524    0.710021   -0.136557
     19          6           0       -5.211089    0.966084   -0.087339
     20          6           0       11.797650   -0.100148    1.428378
     21          6           0       11.769021   -0.490356   -1.158013
     22          6           0       12.531448   -1.455269    1.548662
     23          6           0       13.348296   -1.824634    0.309336
     24          6           0       12.513207   -1.796968   -0.987501
     25          6           0       11.145785    0.053267    0.108611
     26          6           0       10.701551    0.016433    2.619916
     27          6           0       12.671933    1.090731    1.635352
     28          6           0       12.672948    0.576255   -1.750141
     29          6           0       -4.653287    2.241258   -0.223008
     30          6           0        9.929965    0.345502    0.114258
     31          6           0       -3.297010    2.591978   -0.269687
     32          6           0        8.624664    0.892347   -0.044215
     33          6           0       -3.037110    4.128591   -0.492806
     34          6           0       -2.259652    1.706344   -0.215055
     35          6           0        7.365986    0.152647   -0.077671
     36          6           0        7.706450   -1.403232   -0.016881
     37          6           0        6.213636    0.751219   -0.202598
     38          6           0       -0.914708    1.935657   -0.376272
     39          6           0        4.939942    0.099937   -0.291495
     40          6           0        0.025143    0.943701   -0.380941
     41          6           0        3.843818    0.871815   -0.390010
     42          6           0        1.411353    1.205127   -0.417994
     43          6           0        2.534016    0.294427   -0.431030
     44          6           0        2.270554   -1.143774   -0.176566
     45          1           0      -13.062936   -2.839280   -1.263874
     46          1           0      -13.837093   -1.047785   -1.784614
     47          1           0      -13.661470   -0.198467    2.113090
     48          1           0      -13.766811    0.564460    0.732027
     49          1           0      -14.616180   -1.516294    0.272995
     50          1           0      -10.460066   -2.425646   -1.921236
     51          1           0      -11.485951   -1.645232   -3.192125
     52          1           0      -10.191989   -1.029791   -2.621635
     53          1           0       -9.338773    0.904024   -0.949105
     54          1           0       -9.872838   -0.621191    2.217053
     55          1           0      -11.404032   -0.053516    3.240631
     56          1           0      -11.307041   -1.571776    2.367052
     57          1           0      -12.042555    2.199582    0.612309
     58          1           0      -12.282942    1.813075    2.361586
     59          1           0      -10.628409    2.112141    1.884350
     60          1           0      -12.119798   -2.733706    0.468069
     61          1           0       -8.711355   -1.945684    0.657821
     62          1           0       -5.983266   -2.068103   -0.814250
     63          1           0       -5.764919   -1.777388    0.806382
     64          1           0       -7.012399   -2.635202    0.242122
     65          1           0       -7.081023    1.425377   -0.125570
     66          1           0       -4.542650   -0.025161    0.207387
     67          1           0       13.215655   -1.497144    2.323425
     68          1           0       11.871185   -2.165651    1.594835
     69          1           0       13.627444   -2.657351    0.556992
     70          1           0       13.388212   -2.095576   -1.847568
     71          1           0       11.733065   -2.543800   -1.105621
     72          1           0       11.133386    0.005893    3.481517
     73          1           0       10.013153    1.099131    2.530462
     74          1           0        9.960317   -0.703461    2.703220
     75          1           0       13.437090    1.052362    0.845730
     76          1           0       12.081384    2.003782    1.612773
     77          1           0       13.210341    0.906674    2.675659
     78          1           0       13.003038    0.070951   -2.570216
     79          1           0       12.170639    1.485347   -2.017311
     80          1           0       13.540425    1.013218   -1.175415
     81          1           0       -5.538330    2.967092   -0.506974
     82          1           0        9.954259   -0.047872   -1.864579
     83          1           0       14.848437   -0.756255    1.057652
     84          1           0        8.500655    1.880210   -0.341061
     85          1           0       -2.341686    4.283633    0.285217
     86          1           0       -2.391785    4.324961   -1.443778
     87          1           0       -3.838836    4.686595   -0.485107
     88          1           0       -2.457918    0.597670   -0.215508
     89          1           0        6.678621   -1.982926   -0.205309
     90          1           0        8.567033   -1.628325   -0.672205
     91          1           0        8.080471   -1.739915    0.878646
     92          1           0        6.179962    1.909233   -0.216765
     93          1           0       -0.500368    3.096461   -0.356838
     94          1           0        4.741242   -0.956119   -0.435769
     95          1           0       -0.300818   -0.071441   -0.154454
     96          1           0        3.732534    2.180364   -0.228299
     97          1           0        1.787892    2.205483   -0.468204
     98          1           0        1.168885   -1.622893   -0.608096
     99          1           0        3.164033   -1.590948   -0.978429
    100          1           0        2.513601   -1.494383    0.859646
 ---------------------------------------------------------------------

 SCF Done:  E(RCAM-B3LYP) =  -1857.06483613     A.U. after   15 cycles

 Excitation energies and oscillator strengths:

 Excited State   1:      Singlet-A      2.1384 eV  579.81 nm  f=3.0257  <S**2>=0.000
     163 ->166        -0.13933
     164 ->165         0.69288
 This state for optimization and/or second-order correction.
 Total Energy, E(TD-HF/TD-DFT) =  -1856.98625245
 Copying the excited state density for this state as the 1-particle RhoCI density.

 The electronic state is 1-A.
 Alpha  occ. eigenvalues --  -19.22929 -19.21836 -19.21610 -19.20809 -10.32618
 Alpha  occ. eigenvalues --  -10.31923 -10.31740 -10.30141 -10.29863 -10.29285
 Alpha  occ. eigenvalues --  -10.29052 -10.28646 -10.28626 -10.28473 -10.28383
 Alpha  occ. eigenvalues --  -10.28172 -10.27997 -10.27846 -10.27790 -10.27625
 Alpha  occ. eigenvalues --  -10.27458 -10.27447 -10.27416 -10.27192 -10.27049
 Alpha  occ. eigenvalues --  -10.26958 -10.26704 -10.26550 -10.26413 -10.26293
 Alpha  occ. eigenvalues --  -10.26242 -10.25807 -10.25777 -10.25497 -10.25093
 Alpha  occ. eigenvalues --  -10.24991 -10.24948 -10.24767 -10.24634 -10.23921
 Alpha  occ. eigenvalues --  -10.23880 -10.23262 -10.23047 -10.22664  -1.16260
 Alpha  occ. eigenvalues --   -1.09620  -1.07807  -1.06076  -0.94702  -0.92420
 Alpha  occ. eigenvalues --   -0.92139  -0.91442  -0.90096  -0.89809  -0.87880
 Alpha  occ. eigenvalues --   -0.87186  -0.87025  -0.85991  -0.85670  -0.84327
 Alpha  occ. eigenvalues --   -0.83165  -0.82525  -0.81276  -0.78546  -0.78098
 Alpha  occ. eigenvalues --   -0.77450  -0.77004  -0.76683  -0.76458  -0.75917
 Alpha  occ. eigenvalues --   -0.75715  -0.75312  -0.73198  -0.71175  -0.69451
 Alpha  occ. eigenvalues --   -0.68725  -0.66298  -0.65672  -0.65220  -0.64037
 Alpha  occ. eigenvalues --   -0.63713  -0.62475  -0.61446  -0.60439  -0.59708
 Alpha  occ. eigenvalues --   -0.59359  -0.58172  -0.57819  -0.57313  -0.56699
 Alpha  occ. eigenvalues --   -0.56233  -0.55937  -0.55388  -0.55200  -0.54692
 Alpha  occ. eigenvalues --   -0.54520  -0.53922  -0.53598  -0.52893  -0.52597
 Alpha  occ. eigenvalues --   -0.52131  -0.51526  -0.51163  -0.50916  -0.50474
 Alpha  occ. eigenvalues --   -0.50205  -0.49818  -0.49779  -0.49596  -0.48464
 Alpha  occ. eigenvalues --   -0.48136  -0.47991  -0.47733  -0.47506  -0.46946
 Alpha  occ. eigenvalues --   -0.46851  -0.46793  -0.46505  -0.45708  -0.45574
 Alpha  occ. eigenvalues --   -0.45182  -0.44887  -0.44489  -0.44422  -0.43987
 Alpha  occ. eigenvalues --   -0.43834  -0.43111  -0.43076  -0.42906  -0.42569
 Alpha  occ. eigenvalues --   -0.42487  -0.41669  -0.41359  -0.41261  -0.41231
 Alpha  occ. eigenvalues --   -0.40995  -0.40635  -0.40581  -0.40235  -0.40201
 Alpha  occ. eigenvalues --   -0.39809  -0.39658  -0.39172  -0.39076  -0.38867
 Alpha  occ. eigenvalues --   -0.38726  -0.38465  -0.38060  -0.37670  -0.37030
 Alpha  occ. eigenvalues --   -0.36321  -0.35793  -0.35132  -0.34514  -0.33287
 Alpha  occ. eigenvalues --   -0.32953  -0.32380  -0.32080  -0.31655  -0.31459
 Alpha  occ. eigenvalues --   -0.30718  -0.27639  -0.24381  -0.19622
 Alpha virt. eigenvalues --   -0.06130  -0.01317   0.02178   0.05896   0.06652
 Alpha virt. eigenvalues --    0.08965   0.09891   0.10043   0.10698   0.11191
 Alpha virt. eigenvalues --    0.11870   0.12102   0.12517   0.12981   0.13459

 Mulliken charges:
               1
     1  O   -0.510895
     2  O   -0.541681
     3  O   -0.599409
     4  O   -0.568014
     5  C    0.155397
     6  C    0.245276
     7  C    0.041571
     8  C   -0.264648
     9  C   -0.166264
    10  C    0.180247
    11  C   -0.318607
    12  C   -0.103435
    13  C   -0.294534
    14  C   -0.314519
    15  C   -0.083759
    16  C    0.028108
    17  C   -0.316532
    18  C   -0.011157
    19  C   -0.065673
    20  C   -0.012974
    21  C    0.247603
    22  C   -0.208767
    23  C    0.179065
    24  C   -0.203615
    25  C   -0.053853
    26  C   -0.293685
    27  C   -0.292214
    28  C   -0.282241
    29  C   -0.155525
    30  C    0.090003
    31  C    0.088448
    32  C   -0.241379
    33  C   -0.351123
    34  C   -0.123088
    35  C    0.143302
    36  C   -0.369616
    37  C   -0.133671
    38  C   -0.056044
    39  C   -0.107532
    40  C   -0.092364
    41  C   -0.076171
    42  C   -0.118422
    43  C    0.097562
    44  C   -0.348032
    45  H    0.109508
    46  H    0.099303
    47  H    0.094606
    48  H    0.095262
    49  H    0.086594
    50  H    0.113912
    51  H    0.120745
    52  H    0.112795
    53  H    0.124713
    54  H    0.062068
    55  H    0.082079
    56  H    0.134702
    57  H    0.127546
    58  H    0.105280
    59  H    0.096229
    60  H    0.308976
    61  H    0.089351
    62  H    0.108194
    63  H    0.128631
    64  H    0.106545
    65  H    0.006937
    66  H    0.064948
    67  H    0.092925
    68  H    0.115621
    69  H    0.091335
    70  H    0.099422
    71  H    0.126197
    72  H    0.103101
    73  H    0.074482
    74  H    0.108568
    75  H    0.115161
    76  H    0.114991
    77  H    0.070718
    78  H    0.120269
    79  H    0.094397
    80  H    0.115708
    81  H    0.083766
    82  H    0.306294
    83  H    0.305140
    84  H    0.105599
    85  H    0.131957
    86  H    0.110886
    87  H    0.115365
    88  H    0.079197
    89  H    0.084636
    90  H    0.130428
    91  H    0.130089
    92  H    0.085607
    93  H    0.071266
    94  H    0.094315
    95  H    0.083645
    96  H    0.068819
    97  H    0.066095
    98  H    0.095115
    99  H    0.075125
   100  H    0.137696
 Sum of Mulliken charges =  -0.00000

 Dipole moment (field-independent basis, Debye):
    X=             -0.6770    Y=             -1.0260    Z=              2.2560  Tot=              2.5692
 Quadrupole moment (field-independent basis, Debye-Ang):
   XX=           -287.9684   YY=           -256.5314   ZZ=           -280.8034
   XY=              3.5128   XZ=             56.2316   YZ=             -0.6273

 Normal termination of Gaussian 16 at Wed Jul 31 13:32:51 2019.
