 Gaussian 16, Revision A.03,
 Gaussian 16:  ES64L-G16RevA.03 25-Dec-2016

 -------------------------------------
 # td=(NStates=1) CAM-B3LYP/6-31G(d,p)
 -------------------------------------

 --
 TD
 --
 Symbolic Z-matrix:
 Charge =  0 Multiplicity = 1

                         Standard orientation:
 ---------------------------------------------------------------------
 Center     Atomic      Atomic             Coordinates (Angstroms)
 Number     Number       Type             X           Y           Z
 ---------------------------------------------------------------------
      1          8           0      -11.797475    0.629618   -1.284548
      2          8           0      -12.944774   -2.737598    1.139465
      3          8           0       10.613635   -0.906258   -2.203493
      4          8           0       14.478320   -0.911708   -0.055243
      5          6           0      -11.113607   -0.181618   -0.259429
      6          6           0      -11.711139   -0.846058   -1.340387
      7          6           0      -11.737953    0.083581    1.260786
      8          6           0      -13.010327   -1.559503   -1.008270
      9          6           0      -13.121364   -0.235636    1.199917
     10          6           0      -13.430996   -1.656510    0.483528
     11          6           0      -10.901239   -1.402173   -2.413442
     12          6           0       -9.591207    0.216222   -0.343387
     13          6           0      -10.954838   -0.718948    2.274824
     14          6           0      -11.611794    1.636847    1.493028
     15          6           0       -8.646831   -0.733731   -0.110160
     16          6           0       -7.205625   -0.553066   -0.034050
     17          6           0       -6.380859   -1.868722    0.060667
     18          6           0       -6.655721    0.742789   -0.047170
     19          6           0       -5.289649    1.037769   -0.099671
     20          6           0       11.871440   -0.153398    1.469388
     21          6           0       11.693712   -0.515754   -1.226974
     22          6           0       12.655769   -1.439039    1.387570
     23          6           0       13.318818   -1.808831    0.124732
     24          6           0       12.413055   -1.793029   -1.078993
     25          6           0       11.091220   -0.056714    0.176926
     26          6           0       11.055022   -0.099658    2.636221
     27          6           0       12.850423    1.069986    1.551030
     28          6           0       12.433343    0.603612   -1.883467
     29          6           0       -4.833790    2.280833   -0.242656
     30          6           0        9.857977    0.474499    0.094503
     31          6           0       -3.378375    2.689288   -0.337693
     32          6           0        8.620786    0.987783    0.049324
     33          6           0       -2.987840    4.120958   -0.231643
     34          6           0       -2.438177    1.664808   -0.308164
     35          6           0        7.433489    0.140811    0.057055
     36          6           0        7.677880   -1.319442    0.289014
     37          6           0        6.206759    0.720853   -0.091506
     38          6           0       -0.952672    1.873075   -0.329651
     39          6           0        4.973681    0.096603   -0.235884
     40          6           0        0.022312    0.972170   -0.276383
     41          6           0        3.818233    0.903496   -0.299615
     42          6           0        1.440737    1.250993   -0.330375
     43          6           0        2.480664    0.335183   -0.366807
     44          6           0        2.333540   -1.169753   -0.187087
     45          1           0      -12.851707   -2.556913   -1.529892
     46          1           0      -13.875023   -1.104790   -1.584495
     47          1           0      -13.694894   -0.134491    2.144498
     48          1           0      -13.684896    0.609290    0.702690
     49          1           0      -14.540855   -1.844888    0.499227
     50          1           0      -10.255918   -2.165746   -2.169953
     51          1           0      -11.661195   -1.831628   -3.180018
     52          1           0      -10.128584   -0.694445   -2.877888
     53          1           0       -9.434704    1.138953   -0.535278
     54          1           0       -9.871840   -0.372565    2.442036
     55          1           0      -11.445814   -0.582693    3.239371
     56          1           0      -10.881757   -1.842729    2.032650
     57          1           0      -12.218561    2.175029    0.607622
     58          1           0      -12.178368    1.845061    2.565968
     59          1           0      -10.585048    2.040185    1.449924
     60          1           0      -12.076146   -2.935170    0.703637
     61          1           0       -8.901233   -1.700704    0.195055
     62          1           0       -5.618372   -1.817697   -0.798219
     63          1           0       -5.607200   -1.737920    0.930961
     64          1           0       -6.918334   -2.815776   -0.084975
     65          1           0       -7.290169    1.577768   -0.112766
     66          1           0       -4.659960    0.088077    0.047843
     67          1           0       13.212180   -1.222991    2.235767
     68          1           0       12.058427   -2.361701    1.890046
     69          1           0       13.597345   -2.798297    0.238268
     70          1           0       13.042566   -1.913818   -1.760750
     71          1           0       11.590126   -2.501339   -0.740182
     72          1           0       11.633837   -0.371214    3.561011
     73          1           0       10.453947    0.737588    2.724848
     74          1           0       10.374149   -0.951793    2.539107
     75          1           0       13.759509    1.001377    0.996846
     76          1           0       12.546330    2.186459    1.652749
     77          1           0       13.356717    1.230411    2.437433
     78          1           0       12.487858    0.059828   -2.747798
     79          1           0       11.717916    1.426387   -2.148746
     80          1           0       13.274346    1.203406   -1.422346
     81          1           0       -5.498209    3.025726   -0.268638
     82          1           0       10.025628   -0.165839   -2.143814
     83          1           0       14.904997   -0.810883    0.842104
     84          1           0        8.698687    1.978549   -0.163819
     85          1           0       -2.359058    4.153016    0.688807
     86          1           0       -2.203206    4.172329   -1.028687
     87          1           0       -3.857634    4.776660   -0.335734
     88          1           0       -2.568488    0.570369   -0.602972
     89          1           0        6.844304   -1.943056   -0.091217
     90          1           0        8.466844   -1.615087   -0.429695
     91          1           0        7.911165   -1.682318    1.406804
     92          1           0        6.150868    1.785609    0.045761
     93          1           0       -0.593305    2.794891   -0.316145
     94          1           0        4.829855   -0.922233   -0.088218
     95          1           0       -0.459106   -0.079751   -0.307606
     96          1           0        3.973348    2.006026   -0.509432
     97          1           0        1.732218    2.311629   -0.297103
     98          1           0        1.228776   -1.459882   -0.745285
     99          1           0        3.172293   -1.679159   -0.786408
    100          1           0        2.308575   -1.612987    1.063699
 ---------------------------------------------------------------------

 SCF Done:  E(RCAM-B3LYP) =  -1857.31137119     A.U. after   14 cycles

 Excitation energies and oscillator strengths:

 Excited State   1:      Singlet-A      2.5484 eV  486.52 nm  f=3.0030  <S**2>=0.000
     163 ->166        -0.17916
     164 ->165         0.67235
 This state for optimization and/or second-order correction.
 Total Energy, E(TD-HF/TD-DFT) =  -1857.21771910
 Copying the excited state density for this state as the 1-particle RhoCI density.

 The electronic state is 1-A.
 Alpha  occ. eigenvalues --  -19.22485 -19.21969 -19.21334 -19.20602 -10.31772
 Alpha  occ. eigenvalues --  -10.31711 -10.31632 -10.31413 -10.30392 -10.29809
 Alpha  occ. eigenvalues --  -10.28312 -10.28216 -10.27989 -10.27916 -10.27785
 Alpha  occ. eigenvalues --  -10.27732 -10.27301 -10.27021 -10.26981 -10.26970
 Alpha  occ. eigenvalues --  -10.26880 -10.26844 -10.26689 -10.26680 -10.26547
 Alpha  occ. eigenvalues --  -10.26468 -10.26354 -10.26344 -10.26202 -10.25979
 Alpha  occ. eigenvalues --  -10.25920 -10.25896 -10.25798 -10.25662 -10.25641
 Alpha  occ. eigenvalues --  -10.25503 -10.25283 -10.25179 -10.24987 -10.24707
 Alpha  occ. eigenvalues --  -10.24109 -10.23989 -10.23874 -10.23431  -1.13119
 Alpha  occ. eigenvalues --   -1.12222  -1.08629  -1.07999  -0.94460  -0.91997
 Alpha  occ. eigenvalues --   -0.91669  -0.90839  -0.90431  -0.89612  -0.88761
 Alpha  occ. eigenvalues --   -0.87425  -0.86953  -0.85866  -0.84777  -0.83225
 Alpha  occ. eigenvalues --   -0.82401  -0.80561  -0.80458  -0.78072  -0.77567
 Alpha  occ. eigenvalues --   -0.77230  -0.76887  -0.76417  -0.76227  -0.74679
 Alpha  occ. eigenvalues --   -0.74632  -0.73780  -0.73067  -0.70969  -0.70652
 Alpha  occ. eigenvalues --   -0.68443  -0.67567  -0.66052  -0.65522  -0.63919
 Alpha  occ. eigenvalues --   -0.63281  -0.62151  -0.61079  -0.60765  -0.59769
 Alpha  occ. eigenvalues --   -0.59688  -0.58694  -0.58061  -0.57918  -0.56768
 Alpha  occ. eigenvalues --   -0.55937  -0.55733  -0.54898  -0.54872  -0.54069
 Alpha  occ. eigenvalues --   -0.53622  -0.53274  -0.52962  -0.52759  -0.52432
 Alpha  occ. eigenvalues --   -0.52135  -0.51044  -0.50564  -0.50307  -0.49877
 Alpha  occ. eigenvalues --   -0.49486  -0.49068  -0.48401  -0.48134  -0.47804
 Alpha  occ. eigenvalues --   -0.47636  -0.47573  -0.47412  -0.46951  -0.46659
 Alpha  occ. eigenvalues --   -0.46534  -0.46383  -0.46048  -0.45765  -0.45432
 Alpha  occ. eigenvalues --   -0.45417  -0.45135  -0.44919  -0.44168  -0.43832
 Alpha  occ. eigenvalues --   -0.43452  -0.43243  -0.42952  -0.42827  -0.42428
 Alpha  occ. eigenvalues --   -0.42266  -0.41897  -0.41642  -0.41321  -0.40998
 Alpha  occ. eigenvalues --   -0.40505  -0.40272  -0.40095  -0.39662  -0.39534
 Alpha  occ. eigenvalues --   -0.39230  -0.39075  -0.38978  -0.38742  -0.38602
 Alpha  occ. eigenvalues --   -0.38551  -0.38397  -0.38046  -0.37908  -0.37612
 Alpha  occ. eigenvalues --   -0.37011  -0.36466  -0.36130  -0.34808  -0.34198
 Alpha  occ. eigenvalues --   -0.33049  -0.32958  -0.31789  -0.31255  -0.30522
 Alpha  occ. eigenvalues --   -0.28954  -0.27845  -0.23746  -0.20580
 Alpha virt. eigenvalues --   -0.04691  -0.01219   0.03272   0.06854   0.07403
 Alpha virt. eigenvalues --    0.09238   0.10032   0.10322   0.11157   0.12080
 Alpha virt. eigenvalues --    0.12553   0.12755   0.13041   0.13232   0.14253

 Mulliken charges:
               1
     1  O   -0.520912
     2  O   -0.511423
     3  O   -0.566915
     4  O   -0.563713
     5  C    0.122740
     6  C    0.305912
     7  C    0.058177
     8  C   -0.249292
     9  C   -0.192425
    10  C    0.158972
    11  C   -0.350406
    12  C   -0.065218
    13  C   -0.289666
    14  C   -0.306996
    15  C   -0.085224
    16  C    0.073497
    17  C   -0.389604
    18  C   -0.111375
    19  C   -0.023095
    20  C    0.056201
    21  C    0.185256
    22  C   -0.228624
    23  C    0.157725
    24  C   -0.121250
    25  C   -0.052388
    26  C   -0.304931
    27  C   -0.334952
    28  C   -0.281758
    29  C   -0.124312
    30  C    0.067165
    31  C    0.071503
    32  C   -0.235685
    33  C   -0.371211
    34  C   -0.122499
    35  C    0.087688
    36  C   -0.372020
    37  C   -0.098482
    38  C   -0.078305
    39  C   -0.082317
    40  C   -0.079682
    41  C   -0.121068
    42  C   -0.131911
    43  C    0.112019
    44  C   -0.335921
    45  H    0.090447
    46  H    0.127105
    47  H    0.093275
    48  H    0.103513
    49  H    0.086530
    50  H    0.121400
    51  H    0.095267
    52  H    0.131661
    53  H    0.091440
    54  H    0.101683
    55  H    0.106163
    56  H    0.078448
    57  H    0.117962
    58  H    0.079061
    59  H    0.103616
    60  H    0.305157
    61  H    0.068078
    62  H    0.121798
    63  H    0.126498
    64  H    0.120262
    65  H    0.077851
    66  H    0.075907
    67  H    0.097347
    68  H    0.078760
    69  H    0.096357
    70  H    0.101404
    71  H    0.126218
    72  H    0.089448
    73  H    0.120984
    74  H    0.099319
    75  H    0.113488
    76  H    0.093004
    77  H    0.096092
    78  H    0.127056
    79  H    0.081431
    80  H    0.129843
    81  H    0.069374
    82  H    0.301758
    83  H    0.309238
    84  H    0.109284
    85  H    0.142515
    86  H    0.133590
    87  H    0.117584
    88  H    0.083733
    89  H    0.103933
    90  H    0.132256
    91  H    0.111494
    92  H    0.081008
    93  H    0.052111
    94  H    0.087303
    95  H    0.063610
    96  H    0.085481
    97  H    0.086977
    98  H    0.088431
    99  H    0.117366
   100  H    0.095806
 Sum of Mulliken charges =  -0.00000

 Dipole moment (field-independent basis, Debye):
    X=              1.5531    Y=             -0.4466    Z=              2.2629  Tot=              2.7807
 Quadrupole moment (field-independent basis, Debye-Ang):
   XX=           -279.9623   YY=           -255.9361   ZZ=           -278.8406
   XY=              8.7187   XZ=             43.4545   YZ=              2.0278

 Normal termination of Gaussian 16 at Wed Jul 31 02:17:55 2019.
