 Gaussian 16, Revision A.03,
 Gaussian 16:  ES64L-G16RevA.03 25-Dec-2016

 -------------------------------------
 # td=(NStates=1) CAM-B3LYP/6-31G(d,p)
 -------------------------------------

 --
 TD
 --
 Symbolic Z-matrix:
 Charge =  0 Multiplicity = 1

                         Standard orientation:
 ---------------------------------------------------------------------
 Center     Atomic      Atomic             Coordinates (Angstroms)
 Number     Number       Type             X           Y           Z
 ---------------------------------------------------------------------
      1          8           0      -11.790621    0.477440   -1.431744
      2          8           0      -12.926115   -2.786047    0.923747
      3          8           0       10.581185   -0.624495   -2.257834
      4          8           0       14.442427   -1.120018   -0.199038
      5          6           0      -11.012423   -0.092068   -0.261061
      6          6           0      -11.484309   -1.002666   -1.286994
      7          6           0      -11.823991    0.137896    0.993339
      8          6           0      -12.888588   -1.702576   -1.202585
      9          6           0      -13.316905   -0.368469    0.760612
     10          6           0      -13.424971   -1.699206    0.206569
     11          6           0      -10.603889   -1.494550   -2.495786
     12          6           0       -9.571889    0.247574   -0.236060
     13          6           0      -11.167165   -0.500472    2.231384
     14          6           0      -11.875395    1.636261    1.300599
     15          6           0       -8.553366   -0.681732    0.124669
     16          6           0       -7.139703   -0.462188    0.152133
     17          6           0       -6.371302   -1.716835    0.529120
     18          6           0       -6.567129    0.715581    0.053640
     19          6           0       -5.231219    0.930217   -0.027066
     20          6           0       11.865202   -0.221246    1.463141
     21          6           0       11.700243   -0.349584   -1.311498
     22          6           0       12.547100   -1.545876    1.373725
     23          6           0       13.302133   -1.911343    0.055144
     24          6           0       12.384491   -1.757007   -1.240827
     25          6           0       11.060028   -0.084251    0.105139
     26          6           0       10.884921   -0.308044    2.655047
     27          6           0       12.797255    0.995359    1.563528
     28          6           0       12.518313    0.766896   -1.907202
     29          6           0       -4.712278    2.197207   -0.185161
     30          6           0        9.918728    0.568026    0.127790
     31          6           0       -3.346557    2.588185   -0.315489
     32          6           0        8.680618    0.983884   -0.115855
     33          6           0       -3.080926    4.152387   -0.495839
     34          6           0       -2.369002    1.702341   -0.142161
     35          6           0        7.488141    0.188533   -0.008447
     36          6           0        7.649423   -1.313120    0.087319
     37          6           0        6.239624    0.829059   -0.088084
     38          6           0       -1.001748    1.948384    0.136635
     39          6           0        4.926668    0.145132   -0.100211
     40          6           0        0.038693    1.036218   -0.065191
     41          6           0        3.855992    0.906113   -0.146695
     42          6           0        1.411963    1.264634   -0.016914
     43          6           0        2.464720    0.325933   -0.067909
     44          6           0        2.336025   -1.140220    0.196089
     45          1           0      -12.762260   -2.822522   -1.423607
     46          1           0      -13.509212   -1.184249   -1.889707
     47          1           0      -13.729390   -0.308496    1.736284
     48          1           0      -13.868091    0.171222    0.160493
     49          1           0      -14.552294   -1.761121    0.171071
     50          1           0      -10.300023   -2.567674   -2.217940
     51          1           0      -11.132376   -1.332991   -3.535203
     52          1           0       -9.726618   -0.902714   -2.681334
     53          1           0       -9.295814    1.301355   -0.374840
     54          1           0      -10.223297    0.068852    2.465907
     55          1           0      -11.953110   -0.313552    3.059094
     56          1           0      -10.955952   -1.708108    2.063717
     57          1           0      -11.936218    2.097346    0.248454
     58          1           0      -12.891375    1.975563    1.844196
     59          1           0      -10.909472    2.161903    1.849369
     60          1           0      -12.008866   -2.618512    0.974053
     61          1           0       -8.805418   -1.714178    0.325279
     62          1           0       -5.690538   -2.131712   -0.297816
     63          1           0       -5.692088   -1.559600    1.412479
     64          1           0       -7.016050   -2.422734    0.783572
     65          1           0       -7.306816    1.496046   -0.018577
     66          1           0       -4.542192    0.081536   -0.038384
     67          1           0       13.382132   -1.682352    2.058967
     68          1           0       11.941298   -2.442503    1.561912
     69          1           0       13.614821   -2.986210    0.187883
     70          1           0       13.233680   -1.805719   -2.145399
     71          1           0       11.504248   -2.569170   -1.300668
     72          1           0       11.522892   -0.369957    3.569016
     73          1           0       10.463943    0.585128    2.732342
     74          1           0       10.008197   -0.936726    2.290889
     75          1           0       13.697100    0.895636    0.830470
     76          1           0       12.321276    1.993099    1.382542
     77          1           0       13.430046    1.198888    2.492377
     78          1           0       12.767801    0.396695   -2.839534
     79          1           0       12.056866    1.817054   -1.742840
     80          1           0       13.411885    0.751933   -1.257141
     81          1           0       -5.618294    2.992446   -0.151101
     82          1           0       10.188597    0.163701   -2.456343
     83          1           0       15.076767   -1.119016    0.525412
     84          1           0        8.368732    1.995570   -0.234567
     85          1           0       -2.677933    4.401422    0.128997
     86          1           0       -2.468709    4.236978   -1.430338
     87          1           0       -3.956104    4.753371   -0.363383
     88          1           0       -2.572131    0.566743    0.009576
     89          1           0        6.651661   -1.851477    0.206654
     90          1           0        8.225375   -1.691512   -0.901432
     91          1           0        8.131601   -1.712318    0.978640
     92          1           0        6.183898    1.959486   -0.293608
     93          1           0       -0.650693    3.012438    0.232227
     94          1           0        4.848607   -0.771910    0.115131
     95          1           0       -0.119396   -0.073092   -0.403048
     96          1           0        4.059832    1.952700   -0.311511
     97          1           0        1.640434    2.218047   -0.065028
     98          1           0        1.057804   -1.406537    0.283542
     99          1           0        2.819430   -2.071712   -0.261159
    100          1           0        2.641634   -1.468026    1.281394
 ---------------------------------------------------------------------

 SCF Done:  E(RCAM-B3LYP) =  -1857.23862623     A.U. after   15 cycles

 Excitation energies and oscillator strengths:

 Excited State   1:      Singlet-A      2.4038 eV  515.77 nm  f=2.9614  <S**2>=0.000
     163 ->166        -0.14659
     164 ->165         0.68925
 This state for optimization and/or second-order correction.
 Total Energy, E(TD-HF/TD-DFT) =  -1857.15028657
 Copying the excited state density for this state as the 1-particle RhoCI density.

 The electronic state is 1-A.
 Alpha  occ. eigenvalues --  -19.22464 -19.21028 -19.20835 -19.19471 -10.32556
 Alpha  occ. eigenvalues --  -10.32237 -10.31986 -10.31860 -10.29582 -10.29534
 Alpha  occ. eigenvalues --  -10.29398 -10.28556 -10.27815 -10.27811 -10.27567
 Alpha  occ. eigenvalues --  -10.27547 -10.27446 -10.27437 -10.27423 -10.27337
 Alpha  occ. eigenvalues --  -10.27326 -10.27290 -10.27277 -10.27239 -10.26837
 Alpha  occ. eigenvalues --  -10.26756 -10.26619 -10.26575 -10.26504 -10.26408
 Alpha  occ. eigenvalues --  -10.26134 -10.26086 -10.26034 -10.25699 -10.25692
 Alpha  occ. eigenvalues --  -10.25561 -10.25372 -10.25183 -10.24687 -10.24681
 Alpha  occ. eigenvalues --  -10.24570 -10.24248 -10.23526 -10.23160  -1.11599
 Alpha  occ. eigenvalues --   -1.10866  -1.10354  -1.08513  -0.93070  -0.92831
 Alpha  occ. eigenvalues --   -0.92002  -0.91268  -0.90871  -0.89971  -0.87626
 Alpha  occ. eigenvalues --   -0.86834  -0.85862  -0.85529  -0.84179  -0.83002
 Alpha  occ. eigenvalues --   -0.82700  -0.80782  -0.80391  -0.79765  -0.77900
 Alpha  occ. eigenvalues --   -0.76747  -0.76549  -0.76144  -0.75605  -0.75388
 Alpha  occ. eigenvalues --   -0.74792  -0.74147  -0.73434  -0.70743  -0.69827
 Alpha  occ. eigenvalues --   -0.68957  -0.66681  -0.65671  -0.65011  -0.64227
 Alpha  occ. eigenvalues --   -0.63279  -0.62791  -0.61666  -0.60734  -0.60051
 Alpha  occ. eigenvalues --   -0.58962  -0.58779  -0.57897  -0.56947  -0.56807
 Alpha  occ. eigenvalues --   -0.55735  -0.55525  -0.54676  -0.54485  -0.53867
 Alpha  occ. eigenvalues --   -0.53472  -0.52743  -0.52499  -0.52161  -0.51824
 Alpha  occ. eigenvalues --   -0.51573  -0.51067  -0.50774  -0.50456  -0.49669
 Alpha  occ. eigenvalues --   -0.49188  -0.48778  -0.48422  -0.48213  -0.47663
 Alpha  occ. eigenvalues --   -0.47566  -0.47425  -0.47304  -0.46929  -0.46532
 Alpha  occ. eigenvalues --   -0.46382  -0.46134  -0.45772  -0.45459  -0.45283
 Alpha  occ. eigenvalues --   -0.44901  -0.44855  -0.44576  -0.44445  -0.43941
 Alpha  occ. eigenvalues --   -0.43687  -0.43199  -0.42845  -0.42482  -0.42278
 Alpha  occ. eigenvalues --   -0.42138  -0.41948  -0.41865  -0.41655  -0.41118
 Alpha  occ. eigenvalues --   -0.40902  -0.40594  -0.40562  -0.40445  -0.40254
 Alpha  occ. eigenvalues --   -0.39722  -0.39471  -0.39134  -0.38831  -0.38473
 Alpha  occ. eigenvalues --   -0.38198  -0.37790  -0.37695  -0.37592  -0.37485
 Alpha  occ. eigenvalues --   -0.36522  -0.36301  -0.35540  -0.34273  -0.33844
 Alpha  occ. eigenvalues --   -0.33083  -0.32522  -0.32072  -0.31582  -0.31140
 Alpha  occ. eigenvalues --   -0.30203  -0.27626  -0.24226  -0.20531
 Alpha virt. eigenvalues --   -0.05450  -0.00895   0.02587   0.05870   0.06533
 Alpha virt. eigenvalues --    0.09812   0.10091   0.10597   0.11305   0.11653
 Alpha virt. eigenvalues --    0.12004   0.12743   0.13364   0.13720   0.13960

 Mulliken charges:
               1
     1  O   -0.530133
     2  O   -0.530821
     3  O   -0.557440
     4  O   -0.539355
     5  C    0.223649
     6  C    0.181071
     7  C    0.018991
     8  C   -0.191310
     9  C   -0.154775
    10  C    0.129867
    11  C   -0.315868
    12  C   -0.130728
    13  C   -0.277056
    14  C   -0.319609
    15  C   -0.094546
    16  C    0.088113
    17  C   -0.372951
    18  C   -0.083357
    19  C   -0.050941
    20  C    0.032716
    21  C    0.230133
    22  C   -0.177165
    23  C    0.141325
    24  C   -0.180330
    25  C   -0.055983
    26  C   -0.305228
    27  C   -0.327242
    28  C   -0.313304
    29  C   -0.136814
    30  C    0.105043
    31  C    0.052875
    32  C   -0.249127
    33  C   -0.298240
    34  C   -0.105978
    35  C    0.137593
    36  C   -0.376571
    37  C   -0.160215
    38  C   -0.123263
    39  C   -0.013866
    40  C   -0.075834
    41  C   -0.105548
    42  C   -0.092497
    43  C    0.103762
    44  C   -0.383625
    45  H    0.100973
    46  H    0.127522
    47  H    0.094329
    48  H    0.118105
    49  H    0.088174
    50  H    0.094584
    51  H    0.111359
    52  H    0.130344
    53  H    0.107882
    54  H    0.117566
    55  H    0.106403
    56  H    0.047692
    57  H    0.128973
    58  H    0.091428
    59  H    0.080792
    60  H    0.296032
    61  H    0.072407
    62  H    0.109436
    63  H    0.117683
    64  H    0.112264
    65  H    0.072922
    66  H    0.087042
    67  H    0.075511
    68  H    0.105560
    69  H    0.074540
    70  H    0.090619
    71  H    0.116574
    72  H    0.101291
    73  H    0.119257
    74  H    0.109273
    75  H    0.105397
    76  H    0.110975
    77  H    0.086349
    78  H    0.129103
    79  H    0.096577
    80  H    0.134666
    81  H    0.074713
    82  H    0.291537
    83  H    0.308328
    84  H    0.094164
    85  H    0.113993
    86  H    0.119285
    87  H    0.102946
    88  H    0.085663
    89  H    0.092786
    90  H    0.134024
    91  H    0.119366
    92  H    0.077275
    93  H    0.080167
    94  H    0.058436
    95  H    0.076753
    96  H    0.080811
    97  H    0.074030
    98  H    0.073991
    99  H    0.132891
   100  H    0.123820
 Sum of Mulliken charges =  -0.00000

 Dipole moment (field-independent basis, Debye):
    X=              5.2084    Y=              0.6038    Z=              2.4513  Tot=              5.7880
 Quadrupole moment (field-independent basis, Debye-Ang):
   XX=           -273.1247   YY=           -260.3630   ZZ=           -278.9403
   XY=             -7.6791   XZ=             24.2368   YZ=             -1.1142

 Normal termination of Gaussian 16 at Wed Jul 31 15:53:03 2019.
