 Gaussian 16, Revision A.03,
 Gaussian 16:  ES64L-G16RevA.03 25-Dec-2016

 -------------------------------------
 # td=(NStates=1) CAM-B3LYP/6-31G(d,p)
 -------------------------------------

 --
 TD
 --
 Symbolic Z-matrix:
 Charge =  0 Multiplicity = 1

                         Standard orientation:
 ---------------------------------------------------------------------
 Center     Atomic      Atomic             Coordinates (Angstroms)
 Number     Number       Type             X           Y           Z
 ---------------------------------------------------------------------
      1          8           0      -11.692122    0.088168   -1.543012
      2          8           0      -12.698480   -2.417512    1.571676
      3          8           0       10.439532   -0.919764   -2.065721
      4          8           0       14.430224   -1.129542   -0.397853
      5          6           0      -11.010669   -0.169627   -0.328832
      6          6           0      -11.570781   -1.198592   -1.184350
      7          6           0      -11.777073    0.324517    0.807415
      8          6           0      -12.957085   -1.884309   -0.910293
      9          6           0      -13.182494   -0.128638    0.904437
     10          6           0      -13.396393   -1.558729    0.524857
     11          6           0      -10.773377   -2.100933   -2.124708
     12          6           0       -9.543119    0.050546   -0.446927
     13          6           0      -11.012452    0.063816    2.208566
     14          6           0      -11.671337    1.910970    0.708827
     15          6           0       -8.639962   -0.775501    0.079047
     16          6           0       -7.222634   -0.549032    0.136958
     17          6           0       -6.292173   -1.825379    0.369660
     18          6           0       -6.680326    0.720097   -0.112090
     19          6           0       -5.260761    0.917184   -0.223399
     20          6           0       11.918543    0.047868    1.287408
     21          6           0       11.584310   -0.655020   -1.242376
     22          6           0       12.663960   -1.332886    1.386725
     23          6           0       13.301089   -1.876005    0.186082
     24          6           0       12.205743   -2.031216   -0.950966
     25          6           0       11.070246    0.029431   -0.001003
     26          6           0       11.018088    0.229472    2.509233
     27          6           0       12.961744    1.207994    1.304903
     28          6           0       12.497742    0.293127   -2.103870
     29          6           0       -4.727486    2.193838   -0.424794
     30          6           0        9.920356    0.550365   -0.037653
     31          6           0       -3.358194    2.578601   -0.471682
     32          6           0        8.640149    1.022678   -0.055879
     33          6           0       -3.075165    4.032600   -0.817093
     34          6           0       -2.451010    1.627089   -0.225809
     35          6           0        7.440874    0.222353    0.118469
     36          6           0        7.617222   -1.276406    0.474729
     37          6           0        6.228493    0.817910    0.106121
     38          6           0       -1.099819    1.923347   -0.302244
     39          6           0        4.988430    0.228936    0.156296
     40          6           0        0.015016    0.980266   -0.078687
     41          6           0        3.762239    0.992844    0.227990
     42          6           0        1.390762    1.222413   -0.030096
     43          6           0        2.477201    0.397142    0.142200
     44          6           0        2.259921   -1.050595    0.231870
     45          1           0      -12.873535   -2.922731   -0.817106
     46          1           0      -13.742517   -1.433531   -1.610038
     47          1           0      -13.452767   -0.027995    2.048891
     48          1           0      -13.909654    0.622848    0.443123
     49          1           0      -14.342017   -1.847078    0.659390
     50          1           0      -10.704881   -2.962593   -1.535851
     51          1           0      -11.501024   -2.415935   -2.844423
     52          1           0       -9.959513   -1.612690   -2.578425
     53          1           0       -9.193316    0.978952   -1.033484
     54          1           0      -10.113131    0.592346    2.287762
     55          1           0      -11.717977    0.317306    2.923896
     56          1           0      -10.959778   -1.024509    2.324822
     57          1           0      -11.963317    2.198589   -0.213554
     58          1           0      -12.302974    2.335827    1.515343
     59          1           0      -10.673303    2.212074    0.885977
     60          1           0      -11.672373   -2.424701    1.299472
     61          1           0       -9.023637   -1.648463    0.568247
     62          1           0       -5.872731   -2.083804   -0.668537
     63          1           0       -5.554663   -1.366910    0.999686
     64          1           0       -6.912306   -2.540151    0.958761
     65          1           0       -7.286191    1.523710   -0.387410
     66          1           0       -4.633042   -0.104023    0.127156
     67          1           0       13.444791   -1.423601    1.980662
     68          1           0       12.126122   -2.108471    2.055063
     69          1           0       13.725087   -2.853708    0.464211
     70          1           0       12.647846   -2.259207   -1.938413
     71          1           0       11.542442   -2.634563   -0.674240
     72          1           0       11.729579   -0.000213    3.458871
     73          1           0       10.427287    1.030105    2.592754
     74          1           0       10.048872   -0.451746    2.487767
     75          1           0       13.619557    1.167089    0.382904
     76          1           0       12.410646    2.226980    1.327585
     77          1           0       13.682862    1.136658    2.192465
     78          1           0       12.821878   -0.314577   -3.058262
     79          1           0       11.990145    1.182495   -2.524157
     80          1           0       13.316660    0.538390   -1.316772
     81          1           0       -5.371062    3.152950   -0.605600
     82          1           0        9.883625   -0.246882   -2.373658
     83          1           0       15.223155   -1.302896    0.314956
     84          1           0        8.428479    1.988495   -0.481553
     85          1           0       -2.206450    4.755950   -0.176567
     86          1           0       -2.771327    4.024176   -1.959905
     87          1           0       -4.021486    4.639801   -0.831684
     88          1           0       -2.782293    0.470759    0.027734
     89          1           0        6.819831   -1.923760    0.557832
     90          1           0        8.403191   -1.469231   -0.482761
     91          1           0        8.255988   -1.435432    1.268065
     92          1           0        5.995116    1.990081   -0.020717
     93          1           0       -0.628467    2.844266   -0.702554
     94          1           0        4.632715   -0.822581    0.375420
     95          1           0       -0.485402   -0.142323    0.047435
     96          1           0        3.952484    2.087738    0.133290
     97          1           0        1.485967    2.302691   -0.077739
     98          1           0        1.204444   -1.517212   -0.128021
     99          1           0        2.877544   -1.623644   -0.453711
    100          1           0        2.542668   -1.381139    1.470616
 ---------------------------------------------------------------------

 SCF Done:  E(RCAM-B3LYP) =  -1857.27050168     A.U. after   15 cycles

 Excitation energies and oscillator strengths:

 Excited State   1:      Singlet-A      2.0323 eV  610.08 nm  f=3.1496  <S**2>=0.000
     163 ->166        -0.13294
     164 ->165         0.69721
     164 <-165        -0.10133
 This state for optimization and/or second-order correction.
 Total Energy, E(TD-HF/TD-DFT) =  -1857.19581734
 Copying the excited state density for this state as the 1-particle RhoCI density.

 The electronic state is 1-A.
 Alpha  occ. eigenvalues --  -19.23691 -19.21785 -19.21683 -19.19316 -10.32147
 Alpha  occ. eigenvalues --  -10.31955 -10.31256 -10.30941 -10.29608 -10.29297
 Alpha  occ. eigenvalues --  -10.28921 -10.28290 -10.28105 -10.28102 -10.27870
 Alpha  occ. eigenvalues --  -10.27698 -10.27638 -10.27504 -10.27336 -10.27046
 Alpha  occ. eigenvalues --  -10.27006 -10.26977 -10.26899 -10.26798 -10.26637
 Alpha  occ. eigenvalues --  -10.26576 -10.26560 -10.26528 -10.26485 -10.26432
 Alpha  occ. eigenvalues --  -10.26396 -10.26148 -10.25951 -10.25925 -10.25871
 Alpha  occ. eigenvalues --  -10.25772 -10.25633 -10.25597 -10.25359 -10.25283
 Alpha  occ. eigenvalues --  -10.24278 -10.23728 -10.23225 -10.23056  -1.19102
 Alpha  occ. eigenvalues --   -1.09126  -1.07995  -1.05496  -0.93459  -0.92251
 Alpha  occ. eigenvalues --   -0.91797  -0.91380  -0.90419  -0.90121  -0.86955
 Alpha  occ. eigenvalues --   -0.86759  -0.86099  -0.85848  -0.84718  -0.83220
 Alpha  occ. eigenvalues --   -0.81890  -0.80848  -0.80246  -0.78243  -0.77178
 Alpha  occ. eigenvalues --   -0.76660  -0.76441  -0.75926  -0.75890  -0.75553
 Alpha  occ. eigenvalues --   -0.75315  -0.74813  -0.72586  -0.70878  -0.69703
 Alpha  occ. eigenvalues --   -0.68364  -0.66720  -0.66223  -0.65342  -0.64775
 Alpha  occ. eigenvalues --   -0.63628  -0.61764  -0.59845  -0.59617  -0.59116
 Alpha  occ. eigenvalues --   -0.59033  -0.58097  -0.57606  -0.57377  -0.56498
 Alpha  occ. eigenvalues --   -0.55909  -0.55331  -0.54989  -0.54868  -0.54473
 Alpha  occ. eigenvalues --   -0.53942  -0.53285  -0.53153  -0.52468  -0.51080
 Alpha  occ. eigenvalues --   -0.50862  -0.50568  -0.50355  -0.49657  -0.49622
 Alpha  occ. eigenvalues --   -0.49327  -0.49045  -0.48850  -0.48581  -0.48090
 Alpha  occ. eigenvalues --   -0.47635  -0.47470  -0.47289  -0.47163  -0.46989
 Alpha  occ. eigenvalues --   -0.46694  -0.46267  -0.46032  -0.45552  -0.45268
 Alpha  occ. eigenvalues --   -0.44936  -0.44826  -0.44411  -0.44041  -0.43956
 Alpha  occ. eigenvalues --   -0.43409  -0.42916  -0.42890  -0.42785  -0.42501
 Alpha  occ. eigenvalues --   -0.42347  -0.41914  -0.41437  -0.41233  -0.41059
 Alpha  occ. eigenvalues --   -0.40935  -0.40703  -0.40503  -0.40319  -0.39724
 Alpha  occ. eigenvalues --   -0.39396  -0.39200  -0.38820  -0.38513  -0.38235
 Alpha  occ. eigenvalues --   -0.37593  -0.37557  -0.37255  -0.37120  -0.36764
 Alpha  occ. eigenvalues --   -0.36285  -0.35929  -0.35230  -0.34127  -0.34032
 Alpha  occ. eigenvalues --   -0.33608  -0.32098  -0.31583  -0.31487  -0.31252
 Alpha  occ. eigenvalues --   -0.30761  -0.27706  -0.24055  -0.18913
 Alpha virt. eigenvalues --   -0.06236  -0.00881   0.03012   0.07066   0.07345
 Alpha virt. eigenvalues --    0.08020   0.08622   0.09856   0.10157   0.11812
 Alpha virt. eigenvalues --    0.12142   0.12679   0.13532   0.13729   0.13807

 Mulliken charges:
               1
     1  O   -0.487890
     2  O   -0.570332
     3  O   -0.586240
     4  O   -0.549886
     5  C    0.205686
     6  C    0.212923
     7  C    0.001949
     8  C   -0.212433
     9  C   -0.182439
    10  C    0.138418
    11  C   -0.316774
    12  C   -0.116019
    13  C   -0.295145
    14  C   -0.316866
    15  C   -0.054979
    16  C    0.015425
    17  C   -0.358303
    18  C   -0.072790
    19  C   -0.084029
    20  C    0.039297
    21  C    0.240263
    22  C   -0.168629
    23  C    0.101232
    24  C   -0.134275
    25  C   -0.096364
    26  C   -0.296823
    27  C   -0.294050
    28  C   -0.285063
    29  C   -0.138725
    30  C    0.166860
    31  C    0.134327
    32  C   -0.274990
    33  C   -0.361957
    34  C   -0.101096
    35  C    0.101800
    36  C   -0.358074
    37  C   -0.115263
    38  C   -0.107453
    39  C   -0.077474
    40  C   -0.093420
    41  C   -0.135563
    42  C   -0.130548
    43  C    0.151789
    44  C   -0.373387
    45  H    0.114471
    46  H    0.119663
    47  H    0.095884
    48  H    0.097195
    49  H    0.104773
    50  H    0.103800
    51  H    0.113939
    52  H    0.120775
    53  H    0.100939
    54  H    0.113982
    55  H    0.109376
    56  H    0.076806
    57  H    0.125289
    58  H    0.093705
    59  H    0.103272
    60  H    0.297104
    61  H    0.066804
    62  H    0.135220
    63  H    0.132060
    64  H    0.111743
    65  H    0.081963
    66  H    0.074862
    67  H    0.087783
    68  H    0.100942
    69  H    0.084533
    70  H    0.111866
    71  H    0.112329
    72  H    0.077715
    73  H    0.125629
    74  H    0.084162
    75  H    0.116013
    76  H    0.099202
    77  H    0.090913
    78  H    0.097215
    79  H    0.092406
    80  H    0.121741
    81  H    0.076723
    82  H    0.299760
    83  H    0.306662
    84  H    0.107858
    85  H    0.097443
    86  H    0.120027
    87  H    0.110933
    88  H    0.086696
    89  H    0.117968
    90  H    0.110784
    91  H    0.131449
    92  H    0.071638
    93  H    0.088245
    94  H    0.082740
    95  H    0.049082
    96  H    0.078278
    97  H    0.077722
    98  H    0.107951
    99  H    0.131124
   100  H    0.088155
 Sum of Mulliken charges =  -0.00000

 Dipole moment (field-independent basis, Debye):
    X=              4.2391    Y=             -0.4328    Z=              1.0811  Tot=              4.3962
 Quadrupole moment (field-independent basis, Debye-Ang):
   XX=           -242.1644   YY=           -259.3849   ZZ=           -279.2626
   XY=            -12.8482   XZ=             36.3517   YZ=             -4.2972

 Normal termination of Gaussian 16 at Wed Jul 31 22:57:29 2019.
