 Gaussian 16, Revision A.03,
 Gaussian 16:  ES64L-G16RevA.03 25-Dec-2016

 -------------------------------------
 # td=(NStates=1) CAM-B3LYP/6-31G(d,p)
 -------------------------------------

 --
 TD
 --
 Symbolic Z-matrix:
 Charge =  0 Multiplicity = 1

                         Standard orientation:
 ---------------------------------------------------------------------
 Center     Atomic      Atomic             Coordinates (Angstroms)
 Number     Number       Type             X           Y           Z
 ---------------------------------------------------------------------
      1          8           0      -11.661120    0.274592   -1.493500
      2          8           0      -13.023163   -2.464212    1.297764
      3          8           0       10.504806   -1.092979   -2.120046
      4          8           0       14.341300   -1.162012   -0.034422
      5          6           0      -11.028331   -0.211219   -0.279289
      6          6           0      -11.654946   -1.127306   -1.230660
      7          6           0      -11.778248    0.315327    0.922243
      8          6           0      -13.010113   -1.751850   -1.001032
      9          6           0      -13.331186   -0.055835    0.922445
     10          6           0      -13.531494   -1.462604    0.381965
     11          6           0      -10.734714   -1.843544   -2.132487
     12          6           0       -9.519875    0.123558   -0.264589
     13          6           0      -11.061745   -0.340871    2.228723
     14          6           0      -11.722326    1.879078    0.974565
     15          6           0       -8.657875   -0.809677    0.208993
     16          6           0       -7.239886   -0.643170    0.277481
     17          6           0       -6.300892   -1.856216    0.445590
     18          6           0       -6.615228    0.521174   -0.029724
     19          6           0       -5.246568    0.864835   -0.159282
     20          6           0       11.940501    0.096636    1.307244
     21          6           0       11.564772   -0.719449   -1.332266
     22          6           0       12.585657   -1.205960    1.516313
     23          6           0       13.157448   -1.821429    0.350688
     24          6           0       12.255942   -2.022905   -0.835603
     25          6           0       11.109884    0.013774   -0.032626
     26          6           0       11.014057    0.325975    2.486402
     27          6           0       12.984526    1.114557    1.160669
     28          6           0       12.537885    0.149774   -2.146672
     29          6           0       -4.754965    2.153025   -0.444919
     30          6           0        9.942542    0.642722   -0.009327
     31          6           0       -3.356885    2.521662   -0.409820
     32          6           0        8.727090    1.064061   -0.128216
     33          6           0       -3.089885    4.054384   -0.708782
     34          6           0       -2.351236    1.589874   -0.211919
     35          6           0        7.479666    0.229659    0.001047
     36          6           0        7.692780   -1.194398    0.347554
     37          6           0        6.185558    0.868639    0.007879
     38          6           0       -1.014928    1.990263   -0.314087
     39          6           0        4.943581    0.217156    0.108798
     40          6           0        0.038868    0.988960   -0.074903
     41          6           0        3.864081    0.916594   -0.061121
     42          6           0        1.369598    1.233987   -0.230739
     43          6           0        2.580892    0.470239   -0.041414
     44          6           0        2.381712   -1.127787    0.113793
     45          1           0      -12.891469   -2.767710   -1.379823
     46          1           0      -13.599845   -1.039562   -1.684088
     47          1           0      -13.798000    0.176045    1.879898
     48          1           0      -13.673533    0.604156    0.134483
     49          1           0      -14.674137   -1.551730    0.312239
     50          1           0      -10.407751   -2.777395   -1.583530
     51          1           0      -11.162299   -2.174056   -3.093151
     52          1           0       -9.911180   -1.237402   -2.421169
     53          1           0       -9.342715    1.196208   -0.523449
     54          1           0      -10.066202    0.112651    2.504096
     55          1           0      -11.854037   -0.404475    2.983220
     56          1           0      -10.962060   -1.387466    2.038416
     57          1           0      -12.025587    2.102816   -0.081832
     58          1           0      -12.369856    2.356745    1.719233
     59          1           0      -10.650023    2.468767    1.113713
     60          1           0      -12.094066   -2.425214    1.221207
     61          1           0       -9.027077   -1.681083    0.394650
     62          1           0       -5.584262   -1.967283   -0.493110
     63          1           0       -5.531702   -1.640834    1.392555
     64          1           0       -6.848487   -2.776195    0.714315
     65          1           0       -7.375111    1.284745   -0.431986
     66          1           0       -4.314867    0.191219    0.385327
     67          1           0       13.258403   -1.221823    2.454490
     68          1           0       11.910017   -1.893883    1.992789
     69          1           0       13.295101   -2.931407    0.533627
     70          1           0       12.682225   -2.499421   -1.612307
     71          1           0       11.439275   -2.705312   -0.356415
     72          1           0       11.714138    0.616642    3.398549
     73          1           0       10.528546    1.304665    2.284731
     74          1           0       10.300318   -0.571502    2.584628
     75          1           0       13.911176    0.985534    0.392223
     76          1           0       12.613214    2.243442    1.082149
     77          1           0       13.539172    1.284784    2.247654
     78          1           0       12.907374   -0.432075   -2.997101
     79          1           0       12.146105    1.085356   -2.360782
     80          1           0       13.443582    0.382345   -1.506633
     81          1           0       -5.503207    2.897568   -0.828634
     82          1           0       10.091800   -0.133457   -2.495912
     83          1           0       14.949381   -1.221423    0.632203
     84          1           0        8.535918    2.032170   -0.419325
     85          1           0       -2.357961    4.473690    0.132246
     86          1           0       -2.453609    3.996868   -1.610373
     87          1           0       -3.996780    4.471393   -0.841107
     88          1           0       -2.666738    0.670722   -0.000612
     89          1           0        6.637940   -1.629516    0.618794
     90          1           0        8.020816   -1.757639   -0.591824
     91          1           0        8.532226   -1.465385    1.255669
     92          1           0        6.141828    2.049094   -0.031190
     93          1           0       -0.566592    3.040444   -0.461397
     94          1           0        4.945497   -0.758177    0.205278
     95          1           0       -0.253635    0.055728    0.146794
     96          1           0        4.044631    1.900642   -0.251700
     97          1           0        1.617714    2.223354   -0.515392
     98          1           0        1.403076   -1.748965   -0.483956
     99          1           0        3.481235   -1.476953   -0.221885
    100          1           0        2.443210   -1.283739    1.227666
 ---------------------------------------------------------------------

 SCF Done:  E(RCAM-B3LYP) =  -1857.30332987     A.U. after   16 cycles

 Excitation energies and oscillator strengths:

 Excited State   1:      Singlet-A      1.9075 eV  649.97 nm  f=2.9953  <S**2>=0.000
     163 ->166         0.12381
     164 ->165         0.70133
     164 <-165        -0.11897
 This state for optimization and/or second-order correction.
 Total Energy, E(TD-HF/TD-DFT) =  -1857.23322907
 Copying the excited state density for this state as the 1-particle RhoCI density.

 The electronic state is 1-A.
 Alpha  occ. eigenvalues --  -19.22360 -19.21505 -19.21426 -19.20721 -10.31798
 Alpha  occ. eigenvalues --  -10.31663 -10.31494 -10.31438 -10.30707 -10.28542
 Alpha  occ. eigenvalues --  -10.28453 -10.28446 -10.28162 -10.28151 -10.27878
 Alpha  occ. eigenvalues --  -10.27843 -10.27802 -10.27642 -10.27595 -10.27477
 Alpha  occ. eigenvalues --  -10.27448 -10.27252 -10.27182 -10.26881 -10.26840
 Alpha  occ. eigenvalues --  -10.26519 -10.26378 -10.26324 -10.26215 -10.26146
 Alpha  occ. eigenvalues --  -10.25948 -10.25947 -10.25937 -10.25906 -10.25756
 Alpha  occ. eigenvalues --  -10.25698 -10.25544 -10.25159 -10.25084 -10.24999
 Alpha  occ. eigenvalues --  -10.24930 -10.24631 -10.24429 -10.23589  -1.15259
 Alpha  occ. eigenvalues --   -1.12214  -1.09755  -1.09622  -0.94184  -0.92944
 Alpha  occ. eigenvalues --   -0.92063  -0.91125  -0.89746  -0.89483  -0.87739
 Alpha  occ. eigenvalues --   -0.87302  -0.86762  -0.85519  -0.84592  -0.83058
 Alpha  occ. eigenvalues --   -0.81959  -0.80794  -0.80013  -0.78436  -0.76925
 Alpha  occ. eigenvalues --   -0.76922  -0.76134  -0.75770  -0.75467  -0.75088
 Alpha  occ. eigenvalues --   -0.74190  -0.74089  -0.72570  -0.70293  -0.69856
 Alpha  occ. eigenvalues --   -0.68992  -0.66957  -0.65973  -0.64655  -0.64339
 Alpha  occ. eigenvalues --   -0.63978  -0.63683  -0.62259  -0.60939  -0.59235
 Alpha  occ. eigenvalues --   -0.58654  -0.58605  -0.57616  -0.57052  -0.56957
 Alpha  occ. eigenvalues --   -0.56356  -0.55684  -0.54985  -0.54587  -0.54134
 Alpha  occ. eigenvalues --   -0.53748  -0.53024  -0.52703  -0.52548  -0.52180
 Alpha  occ. eigenvalues --   -0.51648  -0.51199  -0.50730  -0.49906  -0.49495
 Alpha  occ. eigenvalues --   -0.49379  -0.48764  -0.48613  -0.48246  -0.47979
 Alpha  occ. eigenvalues --   -0.47513  -0.47290  -0.46976  -0.46833  -0.46786
 Alpha  occ. eigenvalues --   -0.46747  -0.46555  -0.46234  -0.45995  -0.45576
 Alpha  occ. eigenvalues --   -0.45420  -0.45183  -0.44718  -0.44410  -0.43913
 Alpha  occ. eigenvalues --   -0.43632  -0.43115  -0.43097  -0.43068  -0.42800
 Alpha  occ. eigenvalues --   -0.42336  -0.42198  -0.41858  -0.41431  -0.41211
 Alpha  occ. eigenvalues --   -0.40768  -0.40414  -0.40313  -0.39722  -0.39637
 Alpha  occ. eigenvalues --   -0.39614  -0.39370  -0.39029  -0.38891  -0.38518
 Alpha  occ. eigenvalues --   -0.38148  -0.37677  -0.37523  -0.36835  -0.36735
 Alpha  occ. eigenvalues --   -0.36696  -0.35495  -0.35243  -0.34712  -0.34362
 Alpha  occ. eigenvalues --   -0.32656  -0.32292  -0.32070  -0.31811  -0.31527
 Alpha  occ. eigenvalues --   -0.29376  -0.27722  -0.24500  -0.18804
 Alpha virt. eigenvalues --   -0.06969  -0.01064   0.03126   0.06472   0.07006
 Alpha virt. eigenvalues --    0.09198   0.10519   0.10558   0.10816   0.11320
 Alpha virt. eigenvalues --    0.12203   0.12384   0.12628   0.13544   0.13820

 Mulliken charges:
               1
     1  O   -0.518425
     2  O   -0.550391
     3  O   -0.557580
     4  O   -0.527682
     5  C    0.155114
     6  C    0.252106
     7  C    0.018985
     8  C   -0.201369
     9  C   -0.189039
    10  C    0.136012
    11  C   -0.339466
    12  C   -0.096676
    13  C   -0.310843
    14  C   -0.320907
    15  C   -0.042999
    16  C    0.091087
    17  C   -0.360371
    18  C   -0.115059
    19  C   -0.076431
    20  C    0.032381
    21  C    0.269233
    22  C   -0.171629
    23  C    0.145892
    24  C   -0.175816
    25  C   -0.052174
    26  C   -0.297950
    27  C   -0.291660
    28  C   -0.315505
    29  C   -0.122717
    30  C    0.126406
    31  C    0.055579
    32  C   -0.281043
    33  C   -0.348343
    34  C   -0.060822
    35  C    0.108591
    36  C   -0.360701
    37  C   -0.139493
    38  C   -0.107792
    39  C   -0.033664
    40  C   -0.059122
    41  C   -0.068656
    42  C   -0.124861
    43  C    0.066376
    44  C   -0.357112
    45  H    0.117699
    46  H    0.121664
    47  H    0.117840
    48  H    0.114303
    49  H    0.094336
    50  H    0.092052
    51  H    0.108458
    52  H    0.133891
    53  H    0.117389
    54  H    0.117677
    55  H    0.109314
    56  H    0.068101
    57  H    0.128508
    58  H    0.108408
    59  H    0.071878
    60  H    0.301622
    61  H    0.064655
    62  H    0.120665
    63  H    0.095406
    64  H    0.103600
    65  H    0.069708
    66  H    0.067218
    67  H    0.079867
    68  H    0.092810
    69  H    0.072757
    70  H    0.113961
    71  H    0.097250
    72  H    0.085358
    73  H    0.114616
    74  H    0.107294
    75  H    0.127517
    76  H    0.081644
    77  H    0.055331
    78  H    0.109357
    79  H    0.097047
    80  H    0.124587
    81  H    0.087199
    82  H    0.308409
    83  H    0.297395
    84  H    0.096173
    85  H    0.112951
    86  H    0.130385
    87  H    0.115308
    88  H    0.074873
    89  H    0.091426
    90  H    0.138954
    91  H    0.096215
    92  H    0.078156
    93  H    0.096226
    94  H    0.069713
    95  H    0.070152
    96  H    0.073163
    97  H    0.060083
    98  H    0.096874
    99  H    0.095612
   100  H    0.125481
 Sum of Mulliken charges =  -0.00000

 Dipole moment (field-independent basis, Debye):
    X=              3.2693    Y=              0.2193    Z=              0.8485  Tot=              3.3848
 Quadrupole moment (field-independent basis, Debye-Ang):
   XX=           -259.1538   YY=           -262.4661   ZZ=           -276.9562
   XY=             -6.5396   XZ=             25.4348   YZ=             -2.7029

 Normal termination of Gaussian 16 at Fri Aug  2 12:50:45 2019.
