 Gaussian 16, Revision A.03,
 Gaussian 16:  ES64L-G16RevA.03 25-Dec-2016

 -------------------------------------
 # td=(NStates=1) CAM-B3LYP/6-31G(d,p)
 -------------------------------------

 --
 TD
 --
 Symbolic Z-matrix:
 Charge =  0 Multiplicity = 1

                         Standard orientation:
 ---------------------------------------------------------------------
 Center     Atomic      Atomic             Coordinates (Angstroms)
 Number     Number       Type             X           Y           Z
 ---------------------------------------------------------------------
      1          8           0      -11.820519    0.312320   -1.283874
      2          8           0      -13.169034   -2.514151    1.368577
      3          8           0       10.797154   -1.121035   -2.136047
      4          8           0       14.564678   -1.002825    0.166078
      5          6           0      -11.084635   -0.118319   -0.221376
      6          6           0      -11.766989   -1.040683   -1.213117
      7          6           0      -11.765578    0.236851    1.087917
      8          6           0      -13.124658   -1.657239   -0.879374
      9          6           0      -13.251865   -0.069601    1.032675
     10          6           0      -13.564194   -1.496306    0.528501
     11          6           0      -10.956558   -1.795434   -2.243860
     12          6           0       -9.624714    0.073939   -0.401590
     13          6           0      -11.006264   -0.496358    2.317094
     14          6           0      -11.587804    1.783831    1.282473
     15          6           0       -8.622790   -0.798556   -0.110152
     16          6           0       -7.246929   -0.526395   -0.130325
     17          6           0       -6.379108   -1.743336    0.031318
     18          6           0       -6.650439    0.688891   -0.153314
     19          6           0       -5.258771    1.036623   -0.301213
     20          6           0       11.865015    0.107653    1.343132
     21          6           0       11.717860   -0.623656   -1.256936
     22          6           0       12.665207   -1.178287    1.662086
     23          6           0       13.497335   -1.840822    0.414895
     24          6           0       12.508024   -1.869825   -0.823902
     25          6           0       11.122900   -0.000029    0.003699
     26          6           0       10.923707    0.212904    2.492452
     27          6           0       12.801707    1.316592    1.338989
     28          6           0       12.605574    0.399607   -1.965787
     29          6           0       -4.687639    2.248279   -0.267928
     30          6           0        9.885680    0.407080   -0.122799
     31          6           0       -3.379129    2.626491   -0.354041
     32          6           0        8.671976    0.923339   -0.171887
     33          6           0       -2.984915    4.065894   -0.510523
     34          6           0       -2.292551    1.767272   -0.280956
     35          6           0        7.533662    0.057931   -0.006294
     36          6           0        7.761008   -1.450586    0.378801
     37          6           0        6.239369    0.667860   -0.248747
     38          6           0       -0.994151    1.978052   -0.282527
     39          6           0        4.967498   -0.002950   -0.120468
     40          6           0       -0.028682    0.977752   -0.163395
     41          6           0        3.766897    0.743147   -0.287907
     42          6           0        1.393283    1.197873   -0.249177
     43          6           0        2.504541    0.277923   -0.274802
     44          6           0        2.227662   -1.095743    0.156393
     45          1           0      -13.140675   -2.841083   -0.968316
     46          1           0      -13.805800   -1.175165   -1.613423
     47          1           0      -13.707870    0.195075    2.005766
     48          1           0      -13.705659    0.655017    0.303910
     49          1           0      -14.674989   -1.681751    0.340179
     50          1           0      -10.215933   -2.548026   -1.819382
     51          1           0      -11.468260   -2.020143   -3.238227
     52          1           0      -10.242182   -1.036197   -2.946251
     53          1           0       -9.338472    1.043151   -1.038559
     54          1           0       -9.992386   -0.233573    2.328982
     55          1           0      -11.478613   -0.302955    3.288828
     56          1           0      -11.148472   -1.649425    2.345815
     57          1           0      -11.749966    2.279834    0.365973
     58          1           0      -12.089312    2.084045    2.183414
     59          1           0      -10.502828    1.952898    1.701479
     60          1           0      -12.214216   -2.757804    1.221880
     61          1           0       -8.830293   -1.759386    0.235998
     62          1           0       -6.045441   -1.959971   -0.867494
     63          1           0       -5.480076   -1.700472    0.648784
     64          1           0       -6.711229   -2.756785    0.376021
     65          1           0       -7.376163    1.651537    0.089379
     66          1           0       -4.541558    0.315620   -0.143924
     67          1           0       13.206088   -1.086499    2.489816
     68          1           0       12.178334   -2.082742    1.962637
     69          1           0       13.735928   -2.916946    0.616070
     70          1           0       12.967921   -2.100450   -1.767752
     71          1           0       11.858385   -2.770605   -0.782087
     72          1           0       11.328205    0.029013    3.333489
     73          1           0       10.420854    1.188438    2.474882
     74          1           0       10.286249   -0.564650    2.536337
     75          1           0       13.597173    1.391190    0.771596
     76          1           0       12.277182    2.362400    0.921005
     77          1           0       13.015629    1.515335    2.327543
     78          1           0       12.842946   -0.090562   -2.997988
     79          1           0       11.717339    1.254884   -2.097177
     80          1           0       13.441125    0.781184   -1.524606
     81          1           0       -5.269337    3.138121   -0.536339
     82          1           0       10.196365   -0.392071   -2.173125
     83          1           0       14.929466   -0.781241    1.195704
     84          1           0        8.692443    1.961149   -0.449180
     85          1           0       -2.380700    4.467497    0.294438
     86          1           0       -2.518917    4.291480   -1.639367
     87          1           0       -4.034746    4.674907   -0.462956
     88          1           0       -2.741963    0.662392   -0.010521
     89          1           0        6.948808   -2.076043    0.590628
     90          1           0        8.250416   -1.549431   -0.660247
     91          1           0        8.380250   -1.350470    1.269394
     92          1           0        6.059426    1.791950   -0.527527
     93          1           0       -0.799935    2.969076   -0.278298
     94          1           0        4.884520   -1.016378   -0.089529
     95          1           0       -0.308554   -0.081482   -0.014746
     96          1           0        3.779726    1.779520   -0.508775
     97          1           0        1.527993    2.187730   -0.453113
     98          1           0        1.205260   -1.391292   -0.366381
     99          1           0        2.900236   -1.743523   -0.551333
    100          1           0        2.504790   -1.550758    1.220636
 ---------------------------------------------------------------------

 SCF Done:  E(RCAM-B3LYP) =  -1857.25803632     A.U. after   16 cycles

 Excitation energies and oscillator strengths:

 Excited State   1:      Singlet-A      1.9032 eV  651.44 nm  f=3.2673  <S**2>=0.000
     163 ->166         0.12602
     164 ->165         0.70231
     164 <-165        -0.12118
 This state for optimization and/or second-order correction.
 Total Energy, E(TD-HF/TD-DFT) =  -1857.18809396
 Copying the excited state density for this state as the 1-particle RhoCI density.

 The electronic state is 1-A.
 Alpha  occ. eigenvalues --  -19.23144 -19.22765 -19.21677 -19.21643 -10.32120
 Alpha  occ. eigenvalues --  -10.32028 -10.31532 -10.31406 -10.30297 -10.29373
 Alpha  occ. eigenvalues --  -10.28786 -10.27663 -10.27543 -10.27541 -10.27421
 Alpha  occ. eigenvalues --  -10.27333 -10.27326 -10.27270 -10.27247 -10.27205
 Alpha  occ. eigenvalues --  -10.27106 -10.27068 -10.26671 -10.26629 -10.26381
 Alpha  occ. eigenvalues --  -10.26348 -10.26348 -10.26100 -10.26089 -10.25801
 Alpha  occ. eigenvalues --  -10.25781 -10.25548 -10.25403 -10.25354 -10.25307
 Alpha  occ. eigenvalues --  -10.25285 -10.25117 -10.24980 -10.24890 -10.24677
 Alpha  occ. eigenvalues --  -10.24658 -10.24440 -10.24243 -10.22500  -1.20355
 Alpha  occ. eigenvalues --   -1.13263  -1.10520  -1.09669  -0.93681  -0.93100
 Alpha  occ. eigenvalues --   -0.92033  -0.91538  -0.90558  -0.89881  -0.88134
 Alpha  occ. eigenvalues --   -0.86481  -0.86358  -0.85132  -0.84262  -0.82879
 Alpha  occ. eigenvalues --   -0.81953  -0.80347  -0.80134  -0.78870  -0.78574
 Alpha  occ. eigenvalues --   -0.77707  -0.76604  -0.76436  -0.75759  -0.75688
 Alpha  occ. eigenvalues --   -0.75385  -0.74741  -0.72335  -0.70694  -0.69942
 Alpha  occ. eigenvalues --   -0.69201  -0.67815  -0.66486  -0.65835  -0.64839
 Alpha  occ. eigenvalues --   -0.64069  -0.62543  -0.61001  -0.60446  -0.60353
 Alpha  occ. eigenvalues --   -0.59583  -0.58972  -0.57705  -0.57059  -0.56994
 Alpha  occ. eigenvalues --   -0.56249  -0.55740  -0.55575  -0.55169  -0.54378
 Alpha  occ. eigenvalues --   -0.53867  -0.53578  -0.52720  -0.52549  -0.52462
 Alpha  occ. eigenvalues --   -0.51818  -0.51286  -0.50968  -0.50872  -0.50570
 Alpha  occ. eigenvalues --   -0.49904  -0.49736  -0.49473  -0.49025  -0.48613
 Alpha  occ. eigenvalues --   -0.48546  -0.48377  -0.48201  -0.47812  -0.47435
 Alpha  occ. eigenvalues --   -0.47311  -0.46662  -0.46405  -0.46108  -0.45716
 Alpha  occ. eigenvalues --   -0.45665  -0.44737  -0.44216  -0.44166  -0.43852
 Alpha  occ. eigenvalues --   -0.43360  -0.43071  -0.42922  -0.42478  -0.42354
 Alpha  occ. eigenvalues --   -0.42062  -0.41991  -0.41738  -0.41537  -0.41213
 Alpha  occ. eigenvalues --   -0.40783  -0.40370  -0.40060  -0.39714  -0.39624
 Alpha  occ. eigenvalues --   -0.39513  -0.39264  -0.38990  -0.38839  -0.38570
 Alpha  occ. eigenvalues --   -0.38274  -0.38109  -0.37652  -0.37397  -0.36476
 Alpha  occ. eigenvalues --   -0.36146  -0.35789  -0.35184  -0.34529  -0.33873
 Alpha  occ. eigenvalues --   -0.33267  -0.32467  -0.31681  -0.31315  -0.30740
 Alpha  occ. eigenvalues --   -0.29886  -0.27885  -0.24166  -0.18714
 Alpha virt. eigenvalues --   -0.07076  -0.00947   0.02776   0.06590   0.07442
 Alpha virt. eigenvalues --    0.08416   0.10512   0.10791   0.12131   0.12386
 Alpha virt. eigenvalues --    0.12688   0.13254   0.13738   0.14089   0.14524

 Mulliken charges:
               1
     1  O   -0.469895
     2  O   -0.538099
     3  O   -0.536315
     4  O   -0.529689
     5  C    0.198719
     6  C    0.251942
     7  C    0.023702
     8  C   -0.222599
     9  C   -0.190037
    10  C    0.182008
    11  C   -0.353434
    12  C   -0.109904
    13  C   -0.319164
    14  C   -0.316942
    15  C   -0.070317
    16  C    0.109960
    17  C   -0.402875
    18  C   -0.139716
    19  C   -0.065813
    20  C    0.026742
    21  C    0.220163
    22  C   -0.239013
    23  C    0.164268
    24  C   -0.196090
    25  C   -0.036051
    26  C   -0.288972
    27  C   -0.298757
    28  C   -0.263424
    29  C   -0.100473
    30  C    0.072089
    31  C    0.097783
    32  C   -0.212824
    33  C   -0.375379
    34  C   -0.085957
    35  C    0.002259
    36  C   -0.325808
    37  C   -0.109661
    38  C   -0.072292
    39  C   -0.079296
    40  C   -0.091567
    41  C   -0.097165
    42  C   -0.110720
    43  C    0.108123
    44  C   -0.375864
    45  H    0.093937
    46  H    0.115788
    47  H    0.096295
    48  H    0.104522
    49  H    0.086859
    50  H    0.116407
    51  H    0.114926
    52  H    0.088238
    53  H    0.101576
    54  H    0.122224
    55  H    0.106012
    56  H    0.065739
    57  H    0.128264
    58  H    0.110808
    59  H    0.086143
    60  H    0.304965
    61  H    0.077665
    62  H    0.144556
    63  H    0.118170
    64  H    0.102707
    65  H    0.074532
    66  H    0.076716
    67  H    0.087704
    68  H    0.097410
    69  H    0.074473
    70  H    0.106726
    71  H    0.106437
    72  H    0.099406
    73  H    0.106068
    74  H    0.108936
    75  H    0.129579
    76  H    0.067526
    77  H    0.105231
    78  H    0.104780
    79  H    0.048272
    80  H    0.133018
    81  H    0.070148
    82  H    0.296547
    83  H    0.310183
    84  H    0.123462
    85  H    0.134383
    86  H    0.104718
    87  H    0.081040
    88  H    0.045726
    89  H    0.119764
    90  H    0.143700
    91  H    0.134274
    92  H    0.081150
    93  H    0.082039
    94  H    0.080148
    95  H    0.082502
    96  H    0.073303
    97  H    0.069421
    98  H    0.101769
    99  H    0.093494
   100  H    0.125973
 Sum of Mulliken charges =  -0.00000

 Dipole moment (field-independent basis, Debye):
    X=              3.5853    Y=             -0.3500    Z=              2.3685  Tot=              4.3113
 Quadrupole moment (field-independent basis, Debye-Ang):
   XX=           -282.7584   YY=           -260.3086   ZZ=           -272.6713
   XY=              4.5338   XZ=             44.7866   YZ=             -2.6152

 Normal termination of Gaussian 16 at Tue Jul 30 06:27:23 2019.
