 Gaussian 16, Revision A.03,
 Gaussian 16:  ES64L-G16RevA.03 25-Dec-2016

 -------------------------------------
 # td=(NStates=1) CAM-B3LYP/6-31G(d,p)
 -------------------------------------

 --
 TD
 --
 Symbolic Z-matrix:
 Charge =  0 Multiplicity = 1

                         Standard orientation:
 ---------------------------------------------------------------------
 Center     Atomic      Atomic             Coordinates (Angstroms)
 Number     Number       Type             X           Y           Z
 ---------------------------------------------------------------------
      1          8           0      -11.705988    0.319911   -1.567233
      2          8           0      -12.974712   -2.462371    1.359874
      3          8           0       10.746083   -1.086411   -2.046017
      4          8           0       14.593715   -0.707403   -0.017661
      5          6           0      -11.059716   -0.023981   -0.318977
      6          6           0      -11.657270   -1.053450   -1.215166
      7          6           0      -11.826705    0.457955    0.960450
      8          6           0      -13.048671   -1.684385   -0.940679
      9          6           0      -13.324528    0.028247    0.883686
     10          6           0      -13.511543   -1.541291    0.458105
     11          6           0      -10.678217   -1.843906   -2.136154
     12          6           0       -9.545513    0.136496   -0.251524
     13          6           0      -11.119911   -0.097720    2.153805
     14          6           0      -11.618068    1.923373    0.983964
     15          6           0       -8.713160   -0.799744    0.295055
     16          6           0       -7.249610   -0.609144    0.338935
     17          6           0       -6.405306   -1.952291    0.554727
     18          6           0       -6.547807    0.644948    0.070967
     19          6           0       -5.277754    0.886191   -0.118087
     20          6           0       11.896654    0.105631    1.422406
     21          6           0       11.734963   -0.628515   -1.172579
     22          6           0       12.707290   -1.194053    1.598625
     23          6           0       13.442466   -1.700196    0.407982
     24          6           0       12.530875   -1.850834   -0.793731
     25          6           0       11.107149    0.048903    0.043593
     26          6           0       10.940912    0.163575    2.585322
     27          6           0       12.697332    1.312516    1.472123
     28          6           0       12.617129    0.381670   -1.933019
     29          6           0       -4.700934    2.156328   -0.171984
     30          6           0        9.827447    0.520371   -0.065023
     31          6           0       -3.336379    2.450305   -0.468617
     32          6           0        8.658604    0.867001   -0.217281
     33          6           0       -3.103580    3.833297   -0.553077
     34          6           0       -2.358080    1.508871   -0.306911
     35          6           0        7.391828    0.113944   -0.171149
     36          6           0        7.689358   -1.361722    0.002661
     37          6           0        6.195603    0.667374   -0.308274
     38          6           0       -0.938976    1.792818   -0.453113
     39          6           0        4.904181    0.040506   -0.122726
     40          6           0        0.055027    0.828682   -0.251637
     41          6           0        3.705963    0.734816   -0.293876
     42          6           0        1.384783    1.169357   -0.335380
     43          6           0        2.432293    0.222624   -0.234872
     44          6           0        2.286214   -1.239119    0.034285
     45          1           0      -12.841992   -2.723050   -1.185768
     46          1           0      -13.788909   -1.299762   -1.796216
     47          1           0      -13.906541    0.368673    1.835978
     48          1           0      -13.822640    0.612652   -0.073462
     49          1           0      -14.617972   -1.545257    0.301597
     50          1           0       -9.936792   -2.657395   -1.550007
     51          1           0      -11.454355   -2.161209   -2.989802
     52          1           0       -9.993358   -1.175419   -2.685018
     53          1           0       -9.098807    1.037777   -0.963109
     54          1           0      -10.113625    0.460167    2.112635
     55          1           0      -11.667240    0.276439    2.983779
     56          1           0      -11.265044   -1.383519    2.343964
     57          1           0      -12.094609    2.306105    0.108818
     58          1           0      -12.262641    2.271486    1.759417
     59          1           0      -10.599696    2.237190    1.062696
     60          1           0      -12.004096   -2.330333    1.340639
     61          1           0       -9.035052   -1.710998    0.848136
     62          1           0       -6.120200   -2.495202   -0.469914
     63          1           0       -5.423997   -1.798333    1.334082
     64          1           0       -6.929004   -2.665725    1.264895
     65          1           0       -7.439096    1.464898    0.208110
     66          1           0       -4.700424    0.021695   -0.144501
     67          1           0       13.350579   -0.959422    2.439753
     68          1           0       12.114485   -1.884225    2.000042
     69          1           0       13.830257   -2.614363    0.595980
     70          1           0       13.196755   -2.011250   -1.599354
     71          1           0       11.918562   -2.734983   -0.477642
     72          1           0       11.363560   -0.114969    3.482166
     73          1           0       10.532943    1.251870    2.660481
     74          1           0       10.283250   -0.841987    2.513006
     75          1           0       13.513803    1.585088    0.917398
     76          1           0       11.723058    2.168736    1.547321
     77          1           0       13.163435    1.564160    2.425227
     78          1           0       13.215120   -0.377125   -2.718887
     79          1           0       11.847703    0.994060   -2.408268
     80          1           0       13.302870    0.977115   -1.340478
     81          1           0       -5.292530    3.042366   -0.456059
     82          1           0       10.195419   -0.478604   -2.324937
     83          1           0       14.739462   -0.286931    1.072460
     84          1           0        8.538309    1.995282   -0.705483
     85          1           0       -2.268063    4.219799    0.075523
     86          1           0       -2.543918    3.768797   -1.454836
     87          1           0       -3.956664    4.560972   -0.550829
     88          1           0       -2.774726    0.396094   -0.210521
     89          1           0        6.664599   -2.022009   -0.144429
     90          1           0        8.631303   -1.530273   -0.668810
     91          1           0        7.901547   -1.492914    1.103966
     92          1           0        6.098057    1.724883   -0.741664
     93          1           0       -0.746494    2.806707   -0.708916
     94          1           0        4.794459   -1.040131    0.342712
     95          1           0       -0.525090   -0.035059    0.020802
     96          1           0        3.807226    1.937253   -0.573619
     97          1           0        1.602551    2.134445   -0.386508
     98          1           0        1.140451   -1.450442   -0.189468
     99          1           0        2.688403   -1.807545   -0.712983
    100          1           0        2.686580   -1.558749    1.101080
 ---------------------------------------------------------------------

 SCF Done:  E(RCAM-B3LYP) =  -1857.18856927     A.U. after   16 cycles

 Excitation energies and oscillator strengths:

 Excited State   1:      Singlet-A      2.0059 eV  618.10 nm  f=2.8297  <S**2>=0.000
     163 ->166        -0.12942
     164 ->165         0.69861
     164 <-165        -0.10565
 This state for optimization and/or second-order correction.
 Total Energy, E(TD-HF/TD-DFT) =  -1857.11485451
 Copying the excited state density for this state as the 1-particle RhoCI density.

 The electronic state is 1-A.
 Alpha  occ. eigenvalues --  -19.23009 -19.22550 -19.22150 -19.20423 -10.31872
 Alpha  occ. eigenvalues --  -10.31753 -10.31752 -10.31642 -10.30606 -10.29272
 Alpha  occ. eigenvalues --  -10.29150 -10.28546 -10.28468 -10.28232 -10.27599
 Alpha  occ. eigenvalues --  -10.27545 -10.27467 -10.27467 -10.27319 -10.27299
 Alpha  occ. eigenvalues --  -10.27180 -10.27132 -10.27062 -10.27028 -10.26854
 Alpha  occ. eigenvalues --  -10.26810 -10.26761 -10.26721 -10.26721 -10.26675
 Alpha  occ. eigenvalues --  -10.26563 -10.26510 -10.26410 -10.26352 -10.26157
 Alpha  occ. eigenvalues --  -10.26104 -10.26006 -10.25825 -10.25810 -10.25595
 Alpha  occ. eigenvalues --  -10.25281 -10.25071 -10.25002 -10.23436  -1.15037
 Alpha  occ. eigenvalues --   -1.12692  -1.11048  -1.03630  -0.94019  -0.93502
 Alpha  occ. eigenvalues --   -0.92355  -0.91952  -0.91139  -0.90109  -0.87884
 Alpha  occ. eigenvalues --   -0.87740  -0.86622  -0.86174  -0.85625  -0.83568
 Alpha  occ. eigenvalues --   -0.81256  -0.80743  -0.79475  -0.79084  -0.77511
 Alpha  occ. eigenvalues --   -0.76789  -0.76479  -0.76401  -0.76007  -0.75488
 Alpha  occ. eigenvalues --   -0.74710  -0.73731  -0.73316  -0.70640  -0.70042
 Alpha  occ. eigenvalues --   -0.68949  -0.67427  -0.66193  -0.64721  -0.63975
 Alpha  occ. eigenvalues --   -0.63467  -0.62730  -0.61261  -0.59906  -0.59474
 Alpha  occ. eigenvalues --   -0.58721  -0.58339  -0.58159  -0.56644  -0.56293
 Alpha  occ. eigenvalues --   -0.55736  -0.55317  -0.55107  -0.54317  -0.53886
 Alpha  occ. eigenvalues --   -0.53624  -0.53349  -0.53171  -0.52616  -0.52188
 Alpha  occ. eigenvalues --   -0.51288  -0.51014  -0.50595  -0.50376  -0.50070
 Alpha  occ. eigenvalues --   -0.49872  -0.49497  -0.49199  -0.48930  -0.48339
 Alpha  occ. eigenvalues --   -0.48013  -0.47830  -0.47647  -0.47169  -0.46644
 Alpha  occ. eigenvalues --   -0.46409  -0.46128  -0.45963  -0.45467  -0.45228
 Alpha  occ. eigenvalues --   -0.44693  -0.44611  -0.44428  -0.43757  -0.43632
 Alpha  occ. eigenvalues --   -0.43490  -0.43269  -0.42926  -0.42545  -0.42210
 Alpha  occ. eigenvalues --   -0.42056  -0.41745  -0.41507  -0.40982  -0.40913
 Alpha  occ. eigenvalues --   -0.40709  -0.40266  -0.39966  -0.39890  -0.39704
 Alpha  occ. eigenvalues --   -0.39652  -0.39386  -0.39163  -0.38827  -0.38624
 Alpha  occ. eigenvalues --   -0.38554  -0.38211  -0.38002  -0.37607  -0.37531
 Alpha  occ. eigenvalues --   -0.37215  -0.35675  -0.35182  -0.35036  -0.34023
 Alpha  occ. eigenvalues --   -0.33138  -0.33049  -0.32312  -0.31785  -0.31044
 Alpha  occ. eigenvalues --   -0.28745  -0.28117  -0.24297  -0.19425
 Alpha virt. eigenvalues --   -0.06785  -0.01546   0.03764   0.04845   0.06609
 Alpha virt. eigenvalues --    0.07100   0.08843   0.10075   0.11472   0.11577
 Alpha virt. eigenvalues --    0.12053   0.12476   0.12645   0.12937   0.13492

 Mulliken charges:
               1
     1  O   -0.505253
     2  O   -0.532399
     3  O   -0.535938
     4  O   -0.561456
     5  C    0.229116
     6  C    0.224018
     7  C    0.008463
     8  C   -0.210739
     9  C   -0.212664
    10  C    0.161844
    11  C   -0.317637
    12  C   -0.158802
    13  C   -0.278338
    14  C   -0.309467
    15  C   -0.052119
    16  C    0.036426
    17  C   -0.363015
    18  C   -0.087040
    19  C   -0.062828
    20  C    0.040378
    21  C    0.251945
    22  C   -0.236430
    23  C    0.154447
    24  C   -0.176725
    25  C   -0.075148
    26  C   -0.298389
    27  C   -0.296716
    28  C   -0.260814
    29  C   -0.128462
    30  C    0.244343
    31  C    0.112730
    32  C   -0.377013
    33  C   -0.395803
    34  C   -0.116864
    35  C    0.136326
    36  C   -0.364894
    37  C   -0.123024
    38  C   -0.112446
    39  C   -0.111648
    40  C   -0.065237
    41  C   -0.103770
    42  C   -0.102004
    43  C    0.112359
    44  C   -0.372503
    45  H    0.115284
    46  H    0.108814
    47  H    0.089555
    48  H    0.087774
    49  H    0.108204
    50  H    0.090506
    51  H    0.091346
    52  H    0.131045
    53  H    0.114869
    54  H    0.115722
    55  H    0.112413
    56  H    0.044365
    57  H    0.125914
    58  H    0.100417
    59  H    0.109787
    60  H    0.306451
    61  H    0.094128
    62  H    0.119046
    63  H    0.087415
    64  H    0.109270
    65  H    0.066946
    66  H    0.091313
    67  H    0.091368
    68  H    0.110064
    69  H    0.104467
    70  H    0.118312
    71  H    0.106109
    72  H    0.111262
    73  H    0.104849
    74  H    0.088342
    75  H    0.124288
    76  H    0.063449
    77  H    0.093836
    78  H    0.080648
    79  H    0.082641
    80  H    0.131554
    81  H    0.082556
    82  H    0.285300
    83  H    0.287120
    84  H    0.083333
    85  H    0.128237
    86  H    0.135601
    87  H    0.115665
    88  H    0.074071
    89  H    0.084884
    90  H    0.133556
    91  H    0.120046
    92  H    0.078995
    93  H    0.073192
    94  H    0.082194
    95  H    0.093184
    96  H    0.062717
    97  H    0.084870
    98  H    0.094340
    99  H    0.141286
   100  H    0.120275
 Sum of Mulliken charges =  -0.00000

 Dipole moment (field-independent basis, Debye):
    X=              1.4506    Y=              0.4816    Z=              2.4560  Tot=              2.8928
 Quadrupole moment (field-independent basis, Debye-Ang):
   XX=           -304.7793   YY=           -262.2664   ZZ=           -275.5815
   XY=             -4.8470   XZ=             37.0326   YZ=             -3.3688

 Normal termination of Gaussian 16 at Thu Aug  1 22:49:29 2019.
