 Gaussian 16, Revision A.03,
 Gaussian 16:  ES64L-G16RevA.03 25-Dec-2016

 -------------------------------------
 # td=(NStates=1) CAM-B3LYP/6-31G(d,p)
 -------------------------------------

 --
 TD
 --
 Symbolic Z-matrix:
 Charge =  0 Multiplicity = 1

                         Standard orientation:
 ---------------------------------------------------------------------
 Center     Atomic      Atomic             Coordinates (Angstroms)
 Number     Number       Type             X           Y           Z
 ---------------------------------------------------------------------
      1          8           0      -11.696544    0.289701   -1.464482
      2          8           0      -13.165645   -2.334751    1.500318
      3          8           0       10.508880   -1.196100   -2.044834
      4          8           0       14.476279   -1.069445   -0.196809
      5          6           0      -11.053414   -0.085424   -0.353433
      6          6           0      -11.742588   -1.103432   -1.282316
      7          6           0      -11.762830    0.450958    0.808257
      8          6           0      -13.116316   -1.696724   -0.867745
      9          6           0      -13.237539    0.092519    0.845466
     10          6           0      -13.574865   -1.339752    0.559664
     11          6           0      -10.814945   -1.975878   -2.178567
     12          6           0       -9.533137    0.034163   -0.421324
     13          6           0      -11.109429   -0.091159    2.190760
     14          6           0      -11.614851    2.068147    0.813813
     15          6           0       -8.645935   -0.837955    0.078492
     16          6           0       -7.237531   -0.643205    0.042797
     17          6           0       -6.435949   -1.752388    0.604676
     18          6           0       -6.628319    0.571379   -0.144780
     19          6           0       -5.355833    0.824049   -0.132560
     20          6           0       11.951994    0.299522    1.245347
     21          6           0       11.607078   -0.677260   -1.267093
     22          6           0       12.713562   -1.096135    1.537274
     23          6           0       13.354678   -1.820774    0.325662
     24          6           0       12.298873   -1.912015   -0.805329
     25          6           0       11.056438    0.027390   -0.017279
     26          6           0       11.095893    0.445819    2.497479
     27          6           0       13.010913    1.420865    1.037943
     28          6           0       12.448630    0.311469   -2.141413
     29          6           0       -4.724739    2.134564   -0.407897
     30          6           0        9.875517    0.587061    0.000777
     31          6           0       -3.348314    2.375011   -0.339550
     32          6           0        8.689667    0.983302   -0.213197
     33          6           0       -2.949078    3.817597   -0.805837
     34          6           0       -2.434349    1.389092   -0.138675
     35          6           0        7.504974    0.093689    0.074240
     36          6           0        7.797070   -1.341843    0.462016
     37          6           0        6.270380    0.693232   -0.117243
     38          6           0       -1.031560    1.663695   -0.329401
     39          6           0        4.975983    0.149049    0.165916
     40          6           0       -0.003648    0.806061   -0.023196
     41          6           0        3.862501    0.917404   -0.139957
     42          6           0        1.389097    1.086410   -0.189123
     43          6           0        2.519128    0.294065    0.075414
     44          6           0        2.399703   -1.157336    0.525100
     45          1           0      -13.207623   -2.855310   -1.103389
     46          1           0      -13.637337   -1.270760   -1.691177
     47          1           0      -13.588491    0.380840    1.758314
     48          1           0      -13.811427    0.812137    0.093389
     49          1           0      -14.690723   -1.524111    0.653125
     50          1           0      -10.544648   -2.985866   -1.548840
     51          1           0      -11.358809   -2.253809   -3.117835
     52          1           0       -9.988131   -1.393684   -2.653409
     53          1           0       -8.987592    0.944441   -0.760967
     54          1           0      -10.213804    0.367839    2.392211
     55          1           0      -11.709955    0.004092    3.108353
     56          1           0      -10.877566   -1.256944    1.981696
     57          1           0      -11.945839    2.379852   -0.191124
     58          1           0      -12.362329    2.484105    1.389897
     59          1           0      -10.572457    2.367226    1.022635
     60          1           0      -12.142941   -2.458912    1.260017
     61          1           0       -8.856316   -1.808379    0.595979
     62          1           0       -5.361895   -1.904171   -0.194503
     63          1           0       -5.912962   -1.529163    1.618881
     64          1           0       -7.048713   -2.745632    0.453088
     65          1           0       -7.246083    1.489951   -0.417681
     66          1           0       -4.750430   -0.021313    0.443695
     67          1           0       13.418387   -0.872742    2.508563
     68          1           0       12.006980   -1.806918    2.010241
     69          1           0       13.582550   -2.970009    0.488957
     70          1           0       12.834956   -2.428424   -1.629000
     71          1           0       11.613686   -2.484815   -0.412383
     72          1           0       11.623585    0.379596    3.327626
     73          1           0       10.906222    1.534023    2.411279
     74          1           0       10.340216   -0.091845    2.623947
     75          1           0       13.823397    1.201573    0.310551
     76          1           0       12.378477    2.309566    0.760172
     77          1           0       13.497840    1.659078    1.933126
     78          1           0       12.917729   -0.148206   -2.949359
     79          1           0       12.057253    1.181905   -2.546881
     80          1           0       13.089459    0.794681   -1.626895
     81          1           0       -5.391872    2.971777   -0.536995
     82          1           0        9.773456   -0.484619   -2.045196
     83          1           0       15.096855   -1.414536    0.440664
     84          1           0        8.660800    1.988299   -0.623948
     85          1           0       -2.149662    4.226545   -0.005289
     86          1           0       -2.211931    3.588009   -1.579997
     87          1           0       -3.846959    4.374604   -1.119046
     88          1           0       -2.735453    0.512912    0.082228
     89          1           0        6.981376   -2.158089    0.309021
     90          1           0        8.539661   -1.820201   -0.191926
     91          1           0        8.336680   -1.367742    1.409035
     92          1           0        6.309280    1.698021   -0.457697
     93          1           0       -0.786915    2.562491   -0.675228
     94          1           0        4.821429   -0.866538    0.404366
     95          1           0       -0.417928   -0.085891    0.199995
     96          1           0        3.662934    1.876766   -0.225161
     97          1           0        1.486504    1.981787   -0.831533
     98          1           0        1.310192   -1.511080    0.343845
     99          1           0        2.717595   -1.743548   -0.379085
    100          1           0        2.784085   -1.355501    1.375031
 ---------------------------------------------------------------------

 SCF Done:  E(RCAM-B3LYP) =  -1857.27070186     A.U. after   15 cycles

 Excitation energies and oscillator strengths:

 Excited State   1:      Singlet-A      2.0566 eV  602.86 nm  f=2.5166  <S**2>=0.000
     163 ->166        -0.12589
     164 ->165         0.70133
     164 <-165        -0.11286
 This state for optimization and/or second-order correction.
 Total Energy, E(TD-HF/TD-DFT) =  -1857.19512328
 Copying the excited state density for this state as the 1-particle RhoCI density.

 The electronic state is 1-A.
 Alpha  occ. eigenvalues --  -19.22876 -19.22083 -19.22064 -19.20437 -10.32989
 Alpha  occ. eigenvalues --  -10.32109 -10.31892 -10.31416 -10.31127 -10.29099
 Alpha  occ. eigenvalues --  -10.28552 -10.28529 -10.27925 -10.27532 -10.27439
 Alpha  occ. eigenvalues --  -10.27217 -10.26910 -10.26877 -10.26854 -10.26831
 Alpha  occ. eigenvalues --  -10.26798 -10.26780 -10.26755 -10.26638 -10.26532
 Alpha  occ. eigenvalues --  -10.26490 -10.26483 -10.26299 -10.26235 -10.25954
 Alpha  occ. eigenvalues --  -10.25918 -10.25679 -10.25433 -10.25340 -10.25273
 Alpha  occ. eigenvalues --  -10.25147 -10.25131 -10.24904 -10.24550 -10.24462
 Alpha  occ. eigenvalues --  -10.24349 -10.23543 -10.22133 -10.21210  -1.19438
 Alpha  occ. eigenvalues --   -1.10435  -1.08295  -1.07649  -0.93053  -0.92567
 Alpha  occ. eigenvalues --   -0.91749  -0.91058  -0.90152  -0.89800  -0.87452
 Alpha  occ. eigenvalues --   -0.86454  -0.86219  -0.85595  -0.84665  -0.82541
 Alpha  occ. eigenvalues --   -0.81706  -0.80843  -0.79773  -0.78643  -0.77821
 Alpha  occ. eigenvalues --   -0.77587  -0.76960  -0.76161  -0.76083  -0.75951
 Alpha  occ. eigenvalues --   -0.75868  -0.73872  -0.73706  -0.70072  -0.69648
 Alpha  occ. eigenvalues --   -0.68473  -0.67295  -0.65336  -0.64903  -0.64470
 Alpha  occ. eigenvalues --   -0.64323  -0.62266  -0.61635  -0.61071  -0.59227
 Alpha  occ. eigenvalues --   -0.58734  -0.58237  -0.58066  -0.57528  -0.57498
 Alpha  occ. eigenvalues --   -0.55810  -0.55439  -0.55095  -0.54533  -0.54430
 Alpha  occ. eigenvalues --   -0.54083  -0.53065  -0.52791  -0.52638  -0.52483
 Alpha  occ. eigenvalues --   -0.51403  -0.51060  -0.50355  -0.50254  -0.50053
 Alpha  occ. eigenvalues --   -0.49720  -0.49416  -0.48605  -0.48363  -0.48280
 Alpha  occ. eigenvalues --   -0.47961  -0.47748  -0.47332  -0.47040  -0.46727
 Alpha  occ. eigenvalues --   -0.46648  -0.46454  -0.46269  -0.46166  -0.45862
 Alpha  occ. eigenvalues --   -0.45277  -0.44857  -0.44642  -0.44137  -0.43980
 Alpha  occ. eigenvalues --   -0.43692  -0.43208  -0.43158  -0.43021  -0.42759
 Alpha  occ. eigenvalues --   -0.42717  -0.42670  -0.42381  -0.41925  -0.41605
 Alpha  occ. eigenvalues --   -0.41586  -0.41023  -0.40679  -0.40617  -0.40143
 Alpha  occ. eigenvalues --   -0.39541  -0.39531  -0.39140  -0.39099  -0.38691
 Alpha  occ. eigenvalues --   -0.38538  -0.38117  -0.37604  -0.37123  -0.36348
 Alpha  occ. eigenvalues --   -0.36040  -0.35864  -0.35228  -0.34344  -0.33763
 Alpha  occ. eigenvalues --   -0.32749  -0.32651  -0.32220  -0.31592  -0.30546
 Alpha  occ. eigenvalues --   -0.29634  -0.28294  -0.23985  -0.19418
 Alpha virt. eigenvalues --   -0.06343  -0.01173   0.04028   0.07024   0.07426
 Alpha virt. eigenvalues --    0.08416   0.10088   0.11119   0.11199   0.12405
 Alpha virt. eigenvalues --    0.13112   0.13184   0.13933   0.13999   0.14200

 Mulliken charges:
               1
     1  O   -0.476267
     2  O   -0.543012
     3  O   -0.581774
     4  O   -0.520989
     5  C    0.224108
     6  C    0.205004
     7  C    0.018220
     8  C   -0.221816
     9  C   -0.175261
    10  C    0.154343
    11  C   -0.323856
    12  C   -0.131061
    13  C   -0.293912
    14  C   -0.331242
    15  C   -0.042304
    16  C    0.089415
    17  C   -0.373020
    18  C   -0.076295
    19  C   -0.083722
    20  C    0.002023
    21  C    0.263612
    22  C   -0.182689
    23  C    0.093053
    24  C   -0.155558
    25  C   -0.064936
    26  C   -0.281305
    27  C   -0.314496
    28  C   -0.299076
    29  C   -0.158019
    30  C    0.127578
    31  C    0.096075
    32  C   -0.295120
    33  C   -0.374368
    34  C   -0.055502
    35  C    0.099976
    36  C   -0.392945
    37  C   -0.102363
    38  C   -0.090622
    39  C   -0.096542
    40  C   -0.055396
    41  C   -0.064189
    42  C   -0.159564
    43  C    0.068460
    44  C   -0.366859
    45  H    0.098563
    46  H    0.130402
    47  H    0.109745
    48  H    0.091301
    49  H    0.096502
    50  H    0.094404
    51  H    0.104157
    52  H    0.131257
    53  H    0.093720
    54  H    0.115017
    55  H    0.110098
    56  H    0.045979
    57  H    0.118685
    58  H    0.111648
    59  H    0.105466
    60  H    0.299156
    61  H    0.070474
    62  H    0.066304
    63  H    0.134462
    64  H    0.103930
    65  H    0.072891
    66  H    0.078150
    67  H    0.057811
    68  H    0.088878
    69  H    0.076460
    70  H    0.108554
    71  H    0.113862
    72  H    0.104362
    73  H    0.093518
    74  H    0.112666
    75  H    0.144228
    76  H    0.091235
    77  H    0.103589
    78  H    0.111533
    79  H    0.092513
    80  H    0.116699
    81  H    0.087793
    82  H    0.309389
    83  H    0.308957
    84  H    0.116894
    85  H    0.111646
    86  H    0.136889
    87  H    0.114390
    88  H    0.057152
    89  H    0.107731
    90  H    0.139095
    91  H    0.126649
    92  H    0.083203
    93  H    0.052230
    94  H    0.096503
    95  H    0.065127
    96  H    0.083327
    97  H    0.081998
    98  H    0.103339
    99  H    0.128301
   100  H    0.133382
 Sum of Mulliken charges =  -0.00000

 Dipole moment (field-independent basis, Debye):
    X=              2.4649    Y=             -0.1392    Z=              1.5510  Tot=              2.9156
 Quadrupole moment (field-independent basis, Debye-Ang):
   XX=           -271.8330   YY=           -259.3982   ZZ=           -277.1631
   XY=             -8.0729   XZ=             35.5984   YZ=             -4.2307

 Normal termination of Gaussian 16 at Tue Jul 30 01:34:20 2019.
