 Gaussian 16, Revision A.03,
 Gaussian 16:  ES64L-G16RevA.03 25-Dec-2016

 -------------------------------------
 # td=(NStates=1) CAM-B3LYP/6-31G(d,p)
 -------------------------------------

 --
 TD
 --
 Symbolic Z-matrix:
 Charge =  0 Multiplicity = 1

                         Standard orientation:
 ---------------------------------------------------------------------
 Center     Atomic      Atomic             Coordinates (Angstroms)
 Number     Number       Type             X           Y           Z
 ---------------------------------------------------------------------
      1          8           0      -11.760786    0.478296   -1.490288
      2          8           0      -12.894687   -2.537401    1.332080
      3          8           0       10.604988   -0.957360   -2.164163
      4          8           0       14.549752   -1.127201   -0.047421
      5          6           0      -11.061567   -0.122280   -0.340249
      6          6           0      -11.794857   -0.912945   -1.273041
      7          6           0      -11.633114    0.259365    1.136535
      8          6           0      -13.173901   -1.617532   -0.993970
      9          6           0      -13.136928   -0.022722    1.074016
     10          6           0      -13.553455   -1.532181    0.512589
     11          6           0      -11.064742   -1.722417   -2.398558
     12          6           0       -9.588873    0.109294   -0.342615
     13          6           0      -10.912277   -0.281867    2.280885
     14          6           0      -11.601328    1.792087    1.197912
     15          6           0       -8.636631   -0.851436   -0.029379
     16          6           0       -7.226166   -0.705564    0.095871
     17          6           0       -6.377588   -1.881517    0.281344
     18          6           0       -6.648006    0.562872   -0.202606
     19          6           0       -5.329743    0.850238   -0.156853
     20          6           0       11.870741    0.103765    1.301850
     21          6           0       11.723949   -0.643642   -1.224313
     22          6           0       12.606715   -1.345834    1.439339
     23          6           0       13.394442   -1.947729    0.269192
     24          6           0       12.394940   -1.990560   -0.964852
     25          6           0       11.096642    0.045608   -0.010248
     26          6           0       10.901812    0.322405    2.438357
     27          6           0       12.962364    1.127561    1.384658
     28          6           0       12.579485    0.322935   -1.884587
     29          6           0       -4.749784    2.075871   -0.436421
     30          6           0        9.887853    0.512210   -0.096254
     31          6           0       -3.415607    2.454101   -0.379792
     32          6           0        8.655434    0.973457   -0.169376
     33          6           0       -3.056599    3.832811   -0.763699
     34          6           0       -2.330158    1.592946   -0.057576
     35          6           0        7.464291    0.221081   -0.016560
     36          6           0        7.568391   -1.230492    0.259513
     37          6           0        6.292518    0.773189   -0.172175
     38          6           0       -0.977717    1.872122   -0.122339
     39          6           0        4.942962    0.278497   -0.015416
     40          6           0        0.030607    0.905098   -0.071106
     41          6           0        3.840815    0.936671   -0.206888
     42          6           0        1.383900    1.258517   -0.067672
     43          6           0        2.574828    0.421791   -0.001001
     44          6           0        2.350730   -1.047769    0.400167
     45          1           0      -13.283967   -2.671828   -1.135124
     46          1           0      -13.872606   -1.279236   -1.668814
     47          1           0      -13.400532    0.145197    2.057822
     48          1           0      -13.699722    0.637751    0.380334
     49          1           0      -14.532257   -1.731316    0.556410
     50          1           0      -10.769224   -2.768114   -2.175006
     51          1           0      -11.764259   -1.815589   -3.304428
     52          1           0      -10.192521   -1.261214   -2.541588
     53          1           0       -9.312821    0.772830   -0.988110
     54          1           0       -9.789200   -0.036779    2.332751
     55          1           0      -11.483266   -0.304464    3.197105
     56          1           0      -11.024414   -1.475100    1.930902
     57          1           0      -12.083456    2.341287    0.390505
     58          1           0      -12.118240    2.394391    2.156876
     59          1           0      -10.317338    2.077380    1.283500
     60          1           0      -12.034705   -2.555531    1.001889
     61          1           0       -9.017315   -1.671457    0.511579
     62          1           0       -5.934662   -2.401588   -0.632828
     63          1           0       -5.503365   -1.660844    1.008900
     64          1           0       -6.927605   -2.553337    0.774909
     65          1           0       -7.338271    1.408587   -0.325501
     66          1           0       -4.647549    0.032586   -0.156828
     67          1           0       13.196130   -1.241493    2.248942
     68          1           0       11.928199   -1.983692    1.865517
     69          1           0       13.605241   -3.035286    0.429991
     70          1           0       12.967939   -2.111166   -1.765290
     71          1           0       11.634881   -2.715883   -0.660700
     72          1           0       11.333670    0.289360    3.422792
     73          1           0       10.546020    1.276753    2.251592
     74          1           0       10.088245   -0.249297    2.487227
     75          1           0       13.823721    0.942560    0.671732
     76          1           0       12.311327    1.995676    1.089078
     77          1           0       13.337271    1.318455    2.293910
     78          1           0       12.925717    0.055171   -3.015570
     79          1           0       12.122543    1.302399   -2.126211
     80          1           0       13.530760    0.540489   -1.328893
     81          1           0       -5.455239    3.107140   -0.978795
     82          1           0       10.003957   -0.145262   -2.268199
     83          1           0       15.054992   -0.933918    0.883005
     84          1           0        8.577869    2.102525   -0.538064
     85          1           0       -2.411677    4.378143    0.045404
     86          1           0       -2.534769    3.941353   -1.680555
     87          1           0       -3.965559    4.424661   -0.822981
     88          1           0       -2.548609    0.449009    0.233465
     89          1           0        6.580241   -1.666822    0.074040
     90          1           0        8.533921   -1.598021   -0.246815
     91          1           0        7.825229   -1.515941    1.301778
     92          1           0        6.198493    1.848770   -0.303529
     93          1           0       -0.642853    2.937218   -0.248582
     94          1           0        4.772371   -0.751265    0.197821
     95          1           0       -0.365280   -0.034023    0.504530
     96          1           0        4.078051    1.963611   -0.682788
     97          1           0        1.527433    2.293672   -0.310686
     98          1           0        1.262424   -1.176093    0.906261
     99          1           0        2.538163   -1.441922   -0.738655
    100          1           0        3.146065   -1.529191    1.064220
 ---------------------------------------------------------------------

 SCF Done:  E(RCAM-B3LYP) =  -1857.28536773     A.U. after   16 cycles

 Excitation energies and oscillator strengths:

 Excited State   1:      Singlet-A      1.8744 eV  661.45 nm  f=2.8597  <S**2>=0.000
     163 ->166         0.11884
     164 ->165         0.70586
     164 <-165        -0.12944
 This state for optimization and/or second-order correction.
 Total Energy, E(TD-HF/TD-DFT) =  -1857.21648360
 Copying the excited state density for this state as the 1-particle RhoCI density.

 The electronic state is 1-A.
 Alpha  occ. eigenvalues --  -19.23760 -19.23058 -19.21155 -19.20014 -10.32693
 Alpha  occ. eigenvalues --  -10.32270 -10.32233 -10.31613 -10.30408 -10.28867
 Alpha  occ. eigenvalues --  -10.28847 -10.28690 -10.28396 -10.27999 -10.27726
 Alpha  occ. eigenvalues --  -10.27653 -10.27560 -10.27480 -10.27422 -10.27139
 Alpha  occ. eigenvalues --  -10.27020 -10.26961 -10.26917 -10.26914 -10.26658
 Alpha  occ. eigenvalues --  -10.26558 -10.26287 -10.26090 -10.26000 -10.25893
 Alpha  occ. eigenvalues --  -10.25639 -10.25571 -10.25494 -10.25486 -10.25478
 Alpha  occ. eigenvalues --  -10.25442 -10.25276 -10.24976 -10.24694 -10.24678
 Alpha  occ. eigenvalues --  -10.24670 -10.24343 -10.24255 -10.23048  -1.15726
 Alpha  occ. eigenvalues --   -1.09937  -1.08490  -1.06325  -0.93886  -0.93064
 Alpha  occ. eigenvalues --   -0.92674  -0.91690  -0.91143  -0.90621  -0.88189
 Alpha  occ. eigenvalues --   -0.87222  -0.86292  -0.85905  -0.85341  -0.83566
 Alpha  occ. eigenvalues --   -0.82830  -0.81455  -0.80370  -0.78457  -0.78226
 Alpha  occ. eigenvalues --   -0.77634  -0.76769  -0.76498  -0.76209  -0.76056
 Alpha  occ. eigenvalues --   -0.75172  -0.73907  -0.72770  -0.71246  -0.69762
 Alpha  occ. eigenvalues --   -0.68896  -0.67675  -0.66540  -0.65179  -0.63949
 Alpha  occ. eigenvalues --   -0.63651  -0.61885  -0.61262  -0.60521  -0.60164
 Alpha  occ. eigenvalues --   -0.58898  -0.58583  -0.57800  -0.57186  -0.57073
 Alpha  occ. eigenvalues --   -0.56151  -0.55279  -0.54995  -0.54853  -0.54460
 Alpha  occ. eigenvalues --   -0.53451  -0.53428  -0.53251  -0.52644  -0.52317
 Alpha  occ. eigenvalues --   -0.52184  -0.51257  -0.50641  -0.50389  -0.50081
 Alpha  occ. eigenvalues --   -0.49769  -0.49064  -0.48953  -0.48825  -0.48612
 Alpha  occ. eigenvalues --   -0.48503  -0.48222  -0.47733  -0.47443  -0.47124
 Alpha  occ. eigenvalues --   -0.46833  -0.46800  -0.46107  -0.45792  -0.45601
 Alpha  occ. eigenvalues --   -0.45389  -0.44965  -0.44685  -0.44491  -0.44085
 Alpha  occ. eigenvalues --   -0.43741  -0.43607  -0.43206  -0.42916  -0.42660
 Alpha  occ. eigenvalues --   -0.42406  -0.42261  -0.42065  -0.41942  -0.41598
 Alpha  occ. eigenvalues --   -0.41131  -0.40959  -0.40726  -0.40214  -0.40090
 Alpha  occ. eigenvalues --   -0.39946  -0.39716  -0.39137  -0.38781  -0.38177
 Alpha  occ. eigenvalues --   -0.37889  -0.37727  -0.37597  -0.37398  -0.36916
 Alpha  occ. eigenvalues --   -0.36815  -0.36517  -0.35392  -0.34690  -0.33939
 Alpha  occ. eigenvalues --   -0.33350  -0.32420  -0.32230  -0.31711  -0.30460
 Alpha  occ. eigenvalues --   -0.30274  -0.28201  -0.24728  -0.19099
 Alpha virt. eigenvalues --   -0.07421  -0.01237   0.02779   0.06288   0.06513
 Alpha virt. eigenvalues --    0.08893   0.09514   0.09942   0.10493   0.11490
 Alpha virt. eigenvalues --    0.12421   0.13001   0.13461   0.13614   0.13923

 Mulliken charges:
               1
     1  O   -0.501913
     2  O   -0.532867
     3  O   -0.596126
     4  O   -0.553211
     5  C    0.182916
     6  C    0.249555
     7  C    0.016273
     8  C   -0.240915
     9  C   -0.182948
    10  C    0.132666
    11  C   -0.316261
    12  C   -0.099190
    13  C   -0.280534
    14  C   -0.275000
    15  C   -0.095533
    16  C    0.069143
    17  C   -0.368925
    18  C   -0.083632
    19  C   -0.087657
    20  C    0.000470
    21  C    0.255636
    22  C   -0.210099
    23  C    0.147169
    24  C   -0.160790
    25  C   -0.078399
    26  C   -0.308324
    27  C   -0.297479
    28  C   -0.310112
    29  C   -0.116411
    30  C    0.167167
    31  C    0.122020
    32  C   -0.309533
    33  C   -0.383457
    34  C   -0.121132
    35  C    0.171712
    36  C   -0.385565
    37  C   -0.130988
    38  C   -0.073476
    39  C   -0.069699
    40  C   -0.087700
    41  C   -0.083297
    42  C   -0.128856
    43  C    0.064331
    44  C   -0.346939
    45  H    0.119375
    46  H    0.126362
    47  H    0.097588
    48  H    0.107494
    49  H    0.101097
    50  H    0.098398
    51  H    0.102501
    52  H    0.119226
    53  H    0.104422
    54  H    0.122874
    55  H    0.127386
    56  H    0.038191
    57  H    0.128059
    58  H    0.073096
    59  H    0.048417
    60  H    0.299812
    61  H    0.068819
    62  H    0.124065
    63  H    0.106272
    64  H    0.117243
    65  H    0.088300
    66  H    0.097309
    67  H    0.080309
    68  H    0.098093
    69  H    0.090647
    70  H    0.121781
    71  H    0.120222
    72  H    0.094001
    73  H    0.114922
    74  H    0.115913
    75  H    0.109691
    76  H    0.091885
    77  H    0.109742
    78  H    0.088401
    79  H    0.095370
    80  H    0.134212
    81  H    0.050412
    82  H    0.305041
    83  H    0.313531
    84  H    0.103267
    85  H    0.107973
    86  H    0.136134
    87  H    0.107674
    88  H    0.068257
    89  H    0.112073
    90  H    0.129060
    91  H    0.115404
    92  H    0.067886
    93  H    0.087171
    94  H    0.065343
    95  H    0.080338
    96  H    0.079898
    97  H    0.080120
    98  H    0.107716
    99  H    0.118550
   100  H    0.120570
 Sum of Mulliken charges =  -0.00000

 Dipole moment (field-independent basis, Debye):
    X=              3.6067    Y=             -0.3328    Z=              2.2834  Tot=              4.2817
 Quadrupole moment (field-independent basis, Debye-Ang):
   XX=           -263.5873   YY=           -263.6486   ZZ=           -276.7339
   XY=              7.6439   XZ=             45.1345   YZ=             -3.8359

 Normal termination of Gaussian 16 at Tue Jul 30 13:03:34 2019.
