 Gaussian 16, Revision A.03,
 Gaussian 16:  ES64L-G16RevA.03 25-Dec-2016

 -------------------------------------
 # td=(NStates=1) CAM-B3LYP/6-31G(d,p)
 -------------------------------------

 --
 TD
 --
 Symbolic Z-matrix:
 Charge =  0 Multiplicity = 1

                         Standard orientation:
 ---------------------------------------------------------------------
 Center     Atomic      Atomic             Coordinates (Angstroms)
 Number     Number       Type             X           Y           Z
 ---------------------------------------------------------------------
      1          8           0      -11.622995    0.235503   -1.585110
      2          8           0      -13.035296   -2.553986    1.285714
      3          8           0       10.816720   -1.093822   -2.120753
      4          8           0       14.555435   -0.981537    0.026108
      5          6           0      -10.987849   -0.082957   -0.296111
      6          6           0      -11.619412   -1.129459   -1.237294
      7          6           0      -11.695891    0.434202    1.037289
      8          6           0      -13.026693   -1.744980   -0.991650
      9          6           0      -13.232629   -0.035800    0.866532
     10          6           0      -13.487552   -1.505151    0.418133
     11          6           0      -10.794032   -2.053579   -1.992839
     12          6           0       -9.564244    0.010696   -0.317361
     13          6           0      -11.073382   -0.085468    2.310974
     14          6           0      -11.837006    2.018449    1.016485
     15          6           0       -8.636274   -0.784556    0.205292
     16          6           0       -7.189611   -0.562369    0.186004
     17          6           0       -6.350786   -1.780947    0.431336
     18          6           0       -6.575384    0.615197   -0.119941
     19          6           0       -5.147878    0.899542   -0.102152
     20          6           0       11.788477    0.120550    1.388332
     21          6           0       11.768095   -0.607052   -1.128805
     22          6           0       12.613608   -1.189160    1.575774
     23          6           0       13.389196   -1.741974    0.354462
     24          6           0       12.513479   -1.823189   -0.834403
     25          6           0       11.004095    0.012233    0.124028
     26          6           0       10.772099    0.215401    2.513962
     27          6           0       12.769020    1.294599    1.501683
     28          6           0       12.591899    0.357931   -1.925381
     29          6           0       -4.651038    2.050853   -0.353186
     30          6           0        9.847291    0.595131   -0.022402
     31          6           0       -3.333472    2.456577   -0.462242
     32          6           0        8.568172    0.786031   -0.207620
     33          6           0       -3.145290    4.029648   -0.795634
     34          6           0       -2.263611    1.706861   -0.246071
     35          6           0        7.338703   -0.011687   -0.157366
     36          6           0        7.618858   -1.466124   -0.018264
     37          6           0        6.141245    0.638610   -0.240455
     38          6           0       -0.958598    1.963823   -0.351920
     39          6           0        4.932627    0.127243   -0.083984
     40          6           0        0.113297    1.024361   -0.179530
     41          6           0        3.765289    0.853077   -0.241547
     42          6           0        1.415605    1.234580   -0.328285
     43          6           0        2.447948    0.336315   -0.190623
     44          6           0        2.183346   -1.104041    0.337332
     45          1           0      -12.914409   -2.765676   -1.197359
     46          1           0      -13.865468   -1.244667   -1.686511
     47          1           0      -13.828149    0.058535    1.805339
     48          1           0      -13.886621    0.731441    0.325628
     49          1           0      -14.373876   -1.732155    0.595625
     50          1           0      -10.768145   -3.045000   -1.462457
     51          1           0      -11.372083   -2.497573   -2.915926
     52          1           0       -9.780553   -1.535059   -2.239577
     53          1           0       -9.383605    0.954248   -0.930681
     54          1           0       -9.824430   -0.052874    2.284797
     55          1           0      -11.628066    0.478257    3.199020
     56          1           0      -11.445608   -1.260766    2.579983
     57          1           0      -12.379226    2.484483    0.214412
     58          1           0      -12.360692    2.418317    1.929182
     59          1           0      -10.667926    2.411831    0.958727
     60          1           0      -12.203883   -2.774273    1.039848
     61          1           0       -8.976393   -1.710058    0.861741
     62          1           0       -5.392223   -1.937918   -0.287860
     63          1           0       -5.685251   -1.629496    1.506951
     64          1           0       -6.935984   -2.602455    0.509178
     65          1           0       -7.216072    1.585591   -0.450815
     66          1           0       -4.426945    0.018256    0.168101
     67          1           0       13.291277   -1.117284    2.441159
     68          1           0       12.216959   -2.092029    1.959331
     69          1           0       13.827669   -2.755817    0.621392
     70          1           0       13.183996   -2.015189   -1.956265
     71          1           0       11.820926   -2.647768   -0.686885
     72          1           0       11.159356    0.070540    3.513847
     73          1           0       10.517599    1.204424    2.410553
     74          1           0       10.076560   -0.462555    2.343259
     75          1           0       13.454986    1.293469    0.597562
     76          1           0       12.232987    2.312703    1.419739
     77          1           0       13.352245    1.214033    2.594174
     78          1           0       13.032127   -0.451243   -2.712346
     79          1           0       11.926959    1.231220   -2.356744
     80          1           0       13.446418    0.802958   -1.662664
     81          1           0       -5.457237    2.857116   -0.482370
     82          1           0       10.151568   -0.285901   -2.387777
     83          1           0       14.982922   -0.649060    0.979119
     84          1           0        8.352855    1.916340   -0.336516
     85          1           0       -2.365210    4.466029   -0.118670
     86          1           0       -2.894213    4.015528   -1.952007
     87          1           0       -4.141259    4.721202   -0.460793
     88          1           0       -2.392289    0.601135    0.069446
     89          1           0        6.717044   -2.037638   -0.243623
     90          1           0        8.621251   -1.539295   -0.507284
     91          1           0        7.774397   -1.913418    1.176154
     92          1           0        6.335644    1.812167   -0.320820
     93          1           0       -0.698259    2.974434   -0.392909
     94          1           0        4.945563   -1.045450    0.027210
     95          1           0       -0.146322    0.041643   -0.217411
     96          1           0        3.787255    1.965632   -0.308969
     97          1           0        1.890745    2.241975   -0.645433
     98          1           0        1.083805   -1.239633    0.005836
     99          1           0        3.067709   -1.881272   -0.107403
    100          1           0        2.378329   -1.251758    1.387770
 ---------------------------------------------------------------------

 SCF Done:  E(RCAM-B3LYP) =  -1857.20755267     A.U. after   15 cycles

 Excitation energies and oscillator strengths:

 Excited State   1:      Singlet-A      2.1490 eV  576.94 nm  f=3.3974  <S**2>=0.000
     163 ->166        -0.12884
     164 ->165         0.69767
     164 <-165        -0.10064
 This state for optimization and/or second-order correction.
 Total Energy, E(TD-HF/TD-DFT) =  -1857.12857899
 Copying the excited state density for this state as the 1-particle RhoCI density.

 The electronic state is 1-A.
 Alpha  occ. eigenvalues --  -19.22686 -19.21803 -19.21246 -19.20565 -10.32201
 Alpha  occ. eigenvalues --  -10.32035 -10.31836 -10.30888 -10.29421 -10.28914
 Alpha  occ. eigenvalues --  -10.28734 -10.28333 -10.28281 -10.28153 -10.28073
 Alpha  occ. eigenvalues --  -10.27922 -10.27816 -10.27662 -10.27655 -10.27652
 Alpha  occ. eigenvalues --  -10.27529 -10.27511 -10.27487 -10.27460 -10.27088
 Alpha  occ. eigenvalues --  -10.26983 -10.26978 -10.26861 -10.26785 -10.26758
 Alpha  occ. eigenvalues --  -10.26563 -10.26464 -10.26437 -10.26425 -10.26262
 Alpha  occ. eigenvalues --  -10.26160 -10.26121 -10.26035 -10.25978 -10.25800
 Alpha  occ. eigenvalues --  -10.25727 -10.25711 -10.24682 -10.22386  -1.14839
 Alpha  occ. eigenvalues --   -1.11043  -1.07776  -1.06954  -0.93885  -0.93517
 Alpha  occ. eigenvalues --   -0.92797  -0.91765  -0.91134  -0.89468  -0.88298
 Alpha  occ. eigenvalues --   -0.87286  -0.87003  -0.86506  -0.85071  -0.83934
 Alpha  occ. eigenvalues --   -0.82402  -0.81547  -0.80664  -0.78680  -0.77252
 Alpha  occ. eigenvalues --   -0.76785  -0.76354  -0.75678  -0.75633  -0.75332
 Alpha  occ. eigenvalues --   -0.74774  -0.74420  -0.73429  -0.70956  -0.70486
 Alpha  occ. eigenvalues --   -0.69129  -0.67271  -0.65784  -0.64872  -0.64180
 Alpha  occ. eigenvalues --   -0.63643  -0.61761  -0.61071  -0.59853  -0.59295
 Alpha  occ. eigenvalues --   -0.58868  -0.58102  -0.57707  -0.56714  -0.56419
 Alpha  occ. eigenvalues --   -0.56197  -0.55884  -0.54443  -0.54342  -0.54224
 Alpha  occ. eigenvalues --   -0.54143  -0.53081  -0.52854  -0.52644  -0.52363
 Alpha  occ. eigenvalues --   -0.51604  -0.51115  -0.50725  -0.50154  -0.49784
 Alpha  occ. eigenvalues --   -0.49273  -0.48933  -0.48605  -0.48371  -0.47670
 Alpha  occ. eigenvalues --   -0.47568  -0.47293  -0.47019  -0.46716  -0.46439
 Alpha  occ. eigenvalues --   -0.46348  -0.46076  -0.45571  -0.45300  -0.45093
 Alpha  occ. eigenvalues --   -0.44891  -0.44320  -0.44273  -0.43751  -0.43422
 Alpha  occ. eigenvalues --   -0.43262  -0.43190  -0.42888  -0.42424  -0.42239
 Alpha  occ. eigenvalues --   -0.42062  -0.42023  -0.41433  -0.41328  -0.41114
 Alpha  occ. eigenvalues --   -0.40954  -0.40719  -0.40672  -0.40320  -0.39909
 Alpha  occ. eigenvalues --   -0.39562  -0.39490  -0.39454  -0.38803  -0.38663
 Alpha  occ. eigenvalues --   -0.38586  -0.38363  -0.37923  -0.37557  -0.37499
 Alpha  occ. eigenvalues --   -0.36597  -0.36336  -0.35402  -0.34552  -0.33691
 Alpha  occ. eigenvalues --   -0.33217  -0.32528  -0.32415  -0.31417  -0.30759
 Alpha  occ. eigenvalues --   -0.29985  -0.28289  -0.25216  -0.19820
 Alpha virt. eigenvalues --   -0.06785  -0.00880   0.02619   0.05110   0.07506
 Alpha virt. eigenvalues --    0.09113   0.09712   0.09874   0.10535   0.11077
 Alpha virt. eigenvalues --    0.11199   0.11613   0.11940   0.12610   0.12922

 Mulliken charges:
               1
     1  O   -0.508408
     2  O   -0.550029
     3  O   -0.571772
     4  O   -0.562706
     5  C    0.178738
     6  C    0.284231
     7  C    0.054205
     8  C   -0.224784
     9  C   -0.211845
    10  C    0.199944
    11  C   -0.345242
    12  C   -0.099019
    13  C   -0.312015
    14  C   -0.303289
    15  C   -0.109223
    16  C    0.106035
    17  C   -0.353996
    18  C   -0.130281
    19  C   -0.038069
    20  C    0.005871
    21  C    0.225755
    22  C   -0.216785
    23  C    0.168223
    24  C   -0.160448
    25  C   -0.000210
    26  C   -0.280801
    27  C   -0.299760
    28  C   -0.255104
    29  C   -0.108503
    30  C    0.029849
    31  C    0.080861
    32  C   -0.250714
    33  C   -0.355455
    34  C   -0.099470
    35  C    0.162526
    36  C   -0.364223
    37  C   -0.096721
    38  C   -0.076840
    39  C   -0.097217
    40  C   -0.112932
    41  C   -0.119193
    42  C   -0.088730
    43  C    0.100814
    44  C   -0.342403
    45  H    0.098975
    46  H    0.107774
    47  H    0.091469
    48  H    0.100523
    49  H    0.094113
    50  H    0.100574
    51  H    0.105567
    52  H    0.121938
    53  H    0.116444
    54  H    0.099962
    55  H    0.101288
    56  H    0.093979
    57  H    0.128871
    58  H    0.103155
    59  H    0.070486
    60  H    0.286165
    61  H    0.087466
    62  H    0.113640
    63  H    0.085904
    64  H    0.114318
    65  H    0.074384
    66  H    0.078260
    67  H    0.078734
    68  H    0.106763
    69  H    0.072707
    70  H    0.082342
    71  H    0.121677
    72  H    0.087347
    73  H    0.111775
    74  H    0.117070
    75  H    0.122510
    76  H    0.098038
    77  H    0.078654
    78  H    0.090377
    79  H    0.069563
    80  H    0.130247
    81  H    0.077509
    82  H    0.306312
    83  H    0.303802
    84  H    0.083038
    85  H    0.124157
    86  H    0.126010
    87  H    0.090637
    88  H    0.067897
    89  H    0.112324
    90  H    0.141709
    91  H    0.078180
    92  H    0.074254
    93  H    0.075750
    94  H    0.076673
    95  H    0.077440
    96  H    0.087964
    97  H    0.074187
    98  H    0.103497
    99  H    0.082902
   100  H    0.141835
 Sum of Mulliken charges =  -0.00000

 Dipole moment (field-independent basis, Debye):
    X=              0.5446    Y=              0.4176    Z=              2.5378  Tot=              2.6289
 Quadrupole moment (field-independent basis, Debye-Ang):
   XX=           -287.9573   YY=           -261.2998   ZZ=           -280.0318
   XY=              9.3286   XZ=             36.8421   YZ=             -2.8114

 Normal termination of Gaussian 16 at Fri Aug  2 03:42:29 2019.
