 Gaussian 16, Revision A.03,
 Gaussian 16:  ES64L-G16RevA.03 25-Dec-2016

 -------------------------------------
 # td=(NStates=1) CAM-B3LYP/6-31G(d,p)
 -------------------------------------

 --
 TD
 --
 Symbolic Z-matrix:
 Charge =  0 Multiplicity = 1

                         Standard orientation:
 ---------------------------------------------------------------------
 Center     Atomic      Atomic             Coordinates (Angstroms)
 Number     Number       Type             X           Y           Z
 ---------------------------------------------------------------------
      1          8           0      -11.566288    0.295796   -1.581666
      2          8           0      -13.203323   -2.389938    1.376944
      3          8           0       10.594788   -1.282099   -1.977768
      4          8           0       14.434046   -1.142896    0.040903
      5          6           0      -11.006972   -0.143935   -0.302367
      6          6           0      -11.576536   -1.131628   -1.180910
      7          6           0      -11.760428    0.381972    0.928819
      8          6           0      -12.888112   -1.773949   -1.016350
      9          6           0      -13.246113    0.063267    0.818260
     10          6           0      -13.551670   -1.432232    0.327111
     11          6           0      -10.680761   -1.958770   -2.189830
     12          6           0       -9.576100    0.173170   -0.286116
     13          6           0      -11.064124   -0.174877    2.231260
     14          6           0      -11.716589    1.951543    0.940050
     15          6           0       -8.527956   -0.731339    0.054885
     16          6           0       -7.147694   -0.582190    0.169089
     17          6           0       -6.378831   -1.868911    0.622360
     18          6           0       -6.567946    0.642477   -0.022032
     19          6           0       -5.196527    0.854329   -0.139804
     20          6           0       11.858291    0.226778    1.303825
     21          6           0       11.556121   -0.681975   -1.208870
     22          6           0       12.537987   -1.149156    1.660273
     23          6           0       13.230801   -1.815947    0.427807
     24          6           0       12.235343   -2.022271   -0.778730
     25          6           0       11.038028    0.018238    0.094454
     26          6           0       10.982960    0.732868    2.542888
     27          6           0       12.911882    1.350899    1.076586
     28          6           0       12.481653    0.118122   -2.227103
     29          6           0       -4.684642    2.102486   -0.354888
     30          6           0        9.805872    0.487378   -0.041810
     31          6           0       -3.354367    2.531781   -0.426980
     32          6           0        8.600862    1.017364   -0.425750
     33          6           0       -2.989281    3.889315   -0.884813
     34          6           0       -2.319522    1.560176   -0.195386
     35          6           0        7.486473    0.204438   -0.193450
     36          6           0        7.765420   -1.192656    0.231051
     37          6           0        6.268738    0.714592   -0.336703
     38          6           0       -0.969667    1.844621   -0.293627
     39          6           0        5.005066    0.181991   -0.003622
     40          6           0        0.034696    0.824474    0.147044
     41          6           0        3.801849    0.816521   -0.253778
     42          6           0        1.402014    1.156923   -0.118360
     43          6           0        2.498834    0.349516    0.066066
     44          6           0        2.346187   -1.190460    0.564509
     45          1           0      -12.632131   -2.852681   -1.043013
     46          1           0      -13.521489   -1.601417   -1.992562
     47          1           0      -13.730281    0.164165    1.870584
     48          1           0      -13.721733    0.735677    0.257779
     49          1           0      -14.537588   -1.590584    0.414558
     50          1           0      -10.284756   -2.849194   -1.701076
     51          1           0      -11.310393   -2.273545   -3.048298
     52          1           0       -9.966385   -1.375817   -2.580095
     53          1           0       -9.324731    1.101303   -0.835467
     54          1           0      -10.146780    0.057079    2.520319
     55          1           0      -11.662143    0.098036    3.216665
     56          1           0      -11.027746   -1.241790    2.467074
     57          1           0      -12.104398    2.376787    0.011058
     58          1           0      -12.391059    2.344017    1.824584
     59          1           0      -10.625941    2.363796    1.260110
     60          1           0      -12.285419   -2.739556    1.289051
     61          1           0       -8.801330   -1.704790    0.339311
     62          1           0       -5.555524   -2.371269   -0.031298
     63          1           0       -5.787532   -1.623957    1.574575
     64          1           0       -7.000482   -2.637537    0.899169
     65          1           0       -7.201626    1.516838    0.015308
     66          1           0       -4.703701   -0.115883   -0.181872
     67          1           0       13.189521   -1.017966    2.514515
     68          1           0       11.745700   -1.792063    2.006566
     69          1           0       13.153908   -2.895293    1.060975
     70          1           0       12.983156   -2.266049   -1.538397
     71          1           0       11.511797   -2.863934   -0.529296
     72          1           0       11.557939    0.459790    3.488509
     73          1           0       10.620288    1.883621    2.302278
     74          1           0       10.200432    0.021203    2.702165
     75          1           0       13.494894    1.176939    0.199900
     76          1           0       12.406088    2.452091    0.821258
     77          1           0       13.547441    1.285303    1.921018
     78          1           0       12.337956   -0.560067   -3.280404
     79          1           0       11.944567    1.110710   -2.350652
     80          1           0       13.552309    0.131330   -1.920723
     81          1           0       -5.582174    2.843068   -0.773747
     82          1           0        9.995173   -0.587175   -2.194715
     83          1           0       14.781692   -0.972195    0.965045
     84          1           0        8.611069    2.087605   -0.989327
     85          1           0       -2.275448    4.362130   -0.195713
     86          1           0       -2.641220    3.759517   -1.990663
     87          1           0       -3.889979    4.506621   -0.954037
     88          1           0       -2.655617    0.471907    0.045398
     89          1           0        6.809105   -1.916580   -0.166932
     90          1           0        8.676770   -1.654573   -0.151716
     91          1           0        8.025500   -1.212076    1.302330
     92          1           0        6.109222    1.752623   -0.786930
     93          1           0       -0.889726    2.964068   -0.720052
     94          1           0        4.885351   -0.585826    0.542067
     95          1           0       -0.352640   -0.132604    0.345131
     96          1           0        4.106089    1.804820   -0.473991
     97          1           0        1.532661    2.178502   -0.545118
     98          1           0        1.193173   -1.304343    0.504469
     99          1           0        2.870755   -1.811895   -0.076482
    100          1           0        2.822197   -1.375445    1.553148
 ---------------------------------------------------------------------

 SCF Done:  E(RCAM-B3LYP) =  -1857.30948735     A.U. after   15 cycles

 Excitation energies and oscillator strengths:

 Excited State   1:      Singlet-A      1.8650 eV  664.79 nm  f=2.9435  <S**2>=0.000
     163 ->166        -0.12158
     164 ->165         0.70372
     164 <-165        -0.12287
 This state for optimization and/or second-order correction.
 Total Energy, E(TD-HF/TD-DFT) =  -1857.24094974
 Copying the excited state density for this state as the 1-particle RhoCI density.

 The electronic state is 1-A.
 Alpha  occ. eigenvalues --  -19.24446 -19.21201 -19.21198 -19.20728 -10.32721
 Alpha  occ. eigenvalues --  -10.32152 -10.31925 -10.31423 -10.30259 -10.28498
 Alpha  occ. eigenvalues --  -10.28359 -10.28200 -10.28199 -10.28039 -10.27865
 Alpha  occ. eigenvalues --  -10.27752 -10.27699 -10.27447 -10.27349 -10.27248
 Alpha  occ. eigenvalues --  -10.27157 -10.26860 -10.26773 -10.26767 -10.26746
 Alpha  occ. eigenvalues --  -10.26723 -10.26679 -10.26664 -10.26641 -10.26607
 Alpha  occ. eigenvalues --  -10.26321 -10.26301 -10.26235 -10.26222 -10.26051
 Alpha  occ. eigenvalues --  -10.25639 -10.25590 -10.25536 -10.25521 -10.25373
 Alpha  occ. eigenvalues --  -10.24685 -10.24619 -10.24274 -10.24218  -1.13046
 Alpha  occ. eigenvalues --   -1.12698  -1.11077  -1.07475  -0.93226  -0.92492
 Alpha  occ. eigenvalues --   -0.92028  -0.91011  -0.90199  -0.89788  -0.87123
 Alpha  occ. eigenvalues --   -0.86844  -0.85543  -0.84715  -0.84052  -0.82678
 Alpha  occ. eigenvalues --   -0.81934  -0.79832  -0.79668  -0.78053  -0.77038
 Alpha  occ. eigenvalues --   -0.76872  -0.76458  -0.76067  -0.75539  -0.75459
 Alpha  occ. eigenvalues --   -0.75381  -0.74632  -0.73033  -0.71501  -0.69278
 Alpha  occ. eigenvalues --   -0.68561  -0.66976  -0.66192  -0.65079  -0.64730
 Alpha  occ. eigenvalues --   -0.63079  -0.62453  -0.61537  -0.60357  -0.59758
 Alpha  occ. eigenvalues --   -0.58601  -0.58375  -0.57807  -0.57282  -0.56479
 Alpha  occ. eigenvalues --   -0.55534  -0.54949  -0.54378  -0.54282  -0.53792
 Alpha  occ. eigenvalues --   -0.53107  -0.52735  -0.52530  -0.51957  -0.51499
 Alpha  occ. eigenvalues --   -0.51337  -0.50211  -0.50019  -0.49879  -0.49815
 Alpha  occ. eigenvalues --   -0.49555  -0.48955  -0.48688  -0.48307  -0.47911
 Alpha  occ. eigenvalues --   -0.47615  -0.47557  -0.47192  -0.46646  -0.46341
 Alpha  occ. eigenvalues --   -0.46052  -0.45840  -0.45745  -0.45513  -0.45110
 Alpha  occ. eigenvalues --   -0.44807  -0.44554  -0.44311  -0.44245  -0.44162
 Alpha  occ. eigenvalues --   -0.43677  -0.43597  -0.42747  -0.42444  -0.42306
 Alpha  occ. eigenvalues --   -0.42278  -0.42067  -0.41847  -0.41738  -0.41085
 Alpha  occ. eigenvalues --   -0.40630  -0.40495  -0.40415  -0.40199  -0.39853
 Alpha  occ. eigenvalues --   -0.39787  -0.39594  -0.39447  -0.39334  -0.39101
 Alpha  occ. eigenvalues --   -0.38972  -0.38268  -0.37985  -0.37733  -0.37468
 Alpha  occ. eigenvalues --   -0.37351  -0.36336  -0.36056  -0.35458  -0.33908
 Alpha  occ. eigenvalues --   -0.32722  -0.31868  -0.31601  -0.31235  -0.31013
 Alpha  occ. eigenvalues --   -0.29210  -0.27427  -0.23887  -0.18791
 Alpha virt. eigenvalues --   -0.07054  -0.00956   0.02553   0.05560   0.07195
 Alpha virt. eigenvalues --    0.09201   0.09710   0.10444   0.12232   0.12576
 Alpha virt. eigenvalues --    0.12644   0.13163   0.13406   0.13609   0.14152

 Mulliken charges:
               1
     1  O   -0.524225
     2  O   -0.572373
     3  O   -0.521287
     4  O   -0.530869
     5  C    0.218831
     6  C    0.226642
     7  C    0.037140
     8  C   -0.227767
     9  C   -0.185344
    10  C    0.168023
    11  C   -0.320472
    12  C   -0.115673
    13  C   -0.321210
    14  C   -0.311658
    15  C   -0.087369
    16  C    0.085464
    17  C   -0.382380
    18  C   -0.115224
    19  C   -0.043733
    20  C    0.005025
    21  C    0.248691
    22  C   -0.233407
    23  C    0.150757
    24  C   -0.178733
    25  C   -0.020393
    26  C   -0.296954
    27  C   -0.292811
    28  C   -0.324831
    29  C   -0.146821
    30  C    0.043668
    31  C    0.090453
    32  C   -0.227798
    33  C   -0.392735
    34  C   -0.090459
    35  C    0.129965
    36  C   -0.372952
    37  C   -0.123217
    38  C   -0.103130
    39  C   -0.051080
    40  C   -0.113042
    41  C   -0.108803
    42  C   -0.102463
    43  C    0.064697
    44  C   -0.357418
    45  H    0.110292
    46  H    0.121097
    47  H    0.096933
    48  H    0.114619
    49  H    0.106306
    50  H    0.100202
    51  H    0.104038
    52  H    0.134097
    53  H    0.113988
    54  H    0.124402
    55  H    0.081165
    56  H    0.088724
    57  H    0.129963
    58  H    0.091035
    59  H    0.084801
    60  H    0.297785
    61  H    0.058162
    62  H    0.109983
    63  H    0.118963
    64  H    0.119702
    65  H    0.086600
    66  H    0.090850
    67  H    0.087678
    68  H    0.107806
    69  H    0.045709
    70  H    0.119483
    71  H    0.115719
    72  H    0.088909
    73  H    0.104698
    74  H    0.106124
    75  H    0.125228
    76  H    0.076751
    77  H    0.096415
    78  H    0.100262
    79  H    0.093887
    80  H    0.139025
    81  H    0.073732
    82  H    0.291031
    83  H    0.320282
    84  H    0.112429
    85  H    0.134336
    86  H    0.127759
    87  H    0.117446
    88  H    0.077037
    89  H    0.086220
    90  H    0.138465
    91  H    0.122152
    92  H    0.065785
    93  H    0.091834
    94  H    0.053561
    95  H    0.101834
    96  H    0.071387
    97  H    0.094166
    98  H    0.097710
    99  H    0.135296
   100  H    0.123415
 Sum of Mulliken charges =  -0.00000

 Dipole moment (field-independent basis, Debye):
    X=              2.4524    Y=             -0.2419    Z=              1.4890  Tot=              2.8792
 Quadrupole moment (field-independent basis, Debye-Ang):
   XX=           -291.6297   YY=           -260.3111   ZZ=           -275.1382
   XY=             12.2125   XZ=             32.8976   YZ=             -6.4519

 Normal termination of Gaussian 16 at Thu Aug  1 00:44:25 2019.
