 Gaussian 16, Revision A.03,
 Gaussian 16:  ES64L-G16RevA.03 25-Dec-2016

 -------------------------------------
 # td=(NStates=1) CAM-B3LYP/6-31G(d,p)
 -------------------------------------

 --
 TD
 --
 Symbolic Z-matrix:
 Charge =  0 Multiplicity = 1

                         Standard orientation:
 ---------------------------------------------------------------------
 Center     Atomic      Atomic             Coordinates (Angstroms)
 Number     Number       Type             X           Y           Z
 ---------------------------------------------------------------------
      1          8           0      -11.804601    0.347705   -1.390672
      2          8           0      -13.138088   -2.257727    1.586825
      3          8           0       10.733990   -1.238836   -1.973808
      4          8           0       14.662466   -0.706647    0.141593
      5          6           0      -11.025019   -0.102990   -0.278660
      6          6           0      -11.781320   -1.089987   -1.105942
      7          6           0      -11.800345    0.350882    0.959817
      8          6           0      -13.138054   -1.650008   -0.739138
      9          6           0      -13.287785    0.130659    0.926508
     10          6           0      -13.616595   -1.290567    0.653255
     11          6           0      -11.034381   -1.844193   -2.143055
     12          6           0       -9.628028    0.119201   -0.287714
     13          6           0      -11.189239   -0.121164    2.335358
     14          6           0      -11.646478    2.037383    0.942661
     15          6           0       -8.656023   -0.718045    0.068148
     16          6           0       -7.261863   -0.680196    0.001738
     17          6           0       -6.476096   -2.121042    0.011239
     18          6           0       -6.587320    0.551113   -0.127340
     19          6           0       -5.225853    0.793912   -0.231657
     20          6           0       11.950735    0.228699    1.427228
     21          6           0       11.706265   -0.702740   -1.124030
     22          6           0       12.708871   -1.221949    1.675709
     23          6           0       13.476440   -1.612135    0.484104
     24          6           0       12.528019   -1.800642   -0.682431
     25          6           0       11.202405    0.139330    0.088838
     26          6           0       10.915836    0.293381    2.532700
     27          6           0       12.813007    1.448563    1.302500
     28          6           0       12.545071    0.340542   -1.958448
     29          6           0       -4.647540    2.032483   -0.309099
     30          6           0        9.910124    0.510344   -0.041918
     31          6           0       -3.275579    2.404559   -0.416032
     32          6           0        8.740617    0.889938   -0.242691
     33          6           0       -2.979784    3.824693   -0.671905
     34          6           0       -2.331903    1.444004   -0.361607
     35          6           0        7.494487    0.115552   -0.147941
     36          6           0        7.559401   -1.370463    0.156113
     37          6           0        6.306355    0.572759   -0.159052
     38          6           0       -0.920034    1.790711   -0.435142
     39          6           0        4.932572    0.050626   -0.211893
     40          6           0        0.061973    0.764931   -0.338796
     41          6           0        3.756394    0.855072   -0.310059
     42          6           0        1.428323    1.125763   -0.414226
     43          6           0        2.474566    0.184299   -0.232215
     44          6           0        2.205024   -1.194281    0.038813
     45          1           0      -12.898768   -2.693925   -0.770836
     46          1           0      -13.594790   -1.243553   -1.601831
     47          1           0      -13.885446    0.482879    1.845587
     48          1           0      -13.913537    0.655949    0.245312
     49          1           0      -14.746139   -1.392539    0.777063
     50          1           0      -10.863837   -2.806282   -1.652311
     51          1           0      -11.533803   -2.218338   -2.866300
     52          1           0      -10.180916   -1.265704   -2.372621
     53          1           0       -9.237188    1.077742   -0.653850
     54          1           0      -10.097823    0.146538    2.341916
     55          1           0      -11.533962    0.490572    3.138839
     56          1           0      -11.353413   -1.277853    2.589525
     57          1           0      -11.894262    2.576906    0.124133
     58          1           0      -11.938996    2.442433    1.785441
     59          1           0      -10.609054    2.253518    1.055866
     60          1           0      -12.181888   -2.499442    1.551177
     61          1           0       -9.092821   -1.633071    0.269568
     62          1           0       -5.919772   -2.324343   -0.898463
     63          1           0       -5.361724   -1.819901    0.533634
     64          1           0       -7.015075   -2.788163    0.611928
     65          1           0       -7.266857    1.541190    0.006510
     66          1           0       -4.531741    0.000027   -0.079457
     67          1           0       13.384433   -0.872125    2.526763
     68          1           0       11.902239   -2.074068    1.864409
     69          1           0       13.828439   -2.594445    0.660672
     70          1           0       13.039518   -2.172302   -1.476289
     71          1           0       11.867950   -2.678406   -0.306641
     72          1           0       11.620549    0.617756    3.447890
     73          1           0       10.178066    1.062092    2.513241
     74          1           0       10.348667   -0.734557    2.584336
     75          1           0       13.367898    1.520582    0.269813
     76          1           0       12.356511    2.269774    1.467970
     77          1           0       13.787383    1.296496    2.064130
     78          1           0       13.008476   -0.317164   -2.875703
     79          1           0       11.949373    1.038639   -2.382371
     80          1           0       13.549075    0.597595   -1.436649
     81          1           0       -5.265138    2.808744   -0.358427
     82          1           0        9.915339   -0.505949   -2.129248
     83          1           0       15.286888   -0.937673    0.858232
     84          1           0        8.575490    2.011036   -0.470939
     85          1           0       -2.394096    4.288972   -0.046710
     86          1           0       -2.239053    3.748177   -1.540447
     87          1           0       -3.874448    4.433838   -0.877682
     88          1           0       -2.518777    0.603559   -0.209422
     89          1           0        6.615194   -1.882266   -0.006439
     90          1           0        8.224945   -1.989717   -0.394098
     91          1           0        7.790600   -1.563120    1.254608
     92          1           0        6.223979    1.643612   -0.501558
     93          1           0       -0.577663    2.783893   -0.465761
     94          1           0        4.964466   -0.991793    0.070758
     95          1           0       -0.183270   -0.385047   -0.117114
     96          1           0        3.876144    1.892370   -0.371653
     97          1           0        1.788265    2.179670   -0.677486
     98          1           0        1.050730   -1.575195    0.266207
     99          1           0        2.490703   -1.888065   -0.861707
    100          1           0        2.839326   -1.369507    0.962537
 ---------------------------------------------------------------------

 SCF Done:  E(RCAM-B3LYP) =  -1857.22407357     A.U. after   15 cycles

 Excitation energies and oscillator strengths:

 Excited State   1:      Singlet-A      2.2818 eV  543.37 nm  f=2.9414  <S**2>=0.000
     163 ->166        -0.13930
     164 ->165         0.69330
 This state for optimization and/or second-order correction.
 Total Energy, E(TD-HF/TD-DFT) =  -1857.14022012
 Copying the excited state density for this state as the 1-particle RhoCI density.

 The electronic state is 1-A.
 Alpha  occ. eigenvalues --  -19.22368 -19.21741 -19.20824 -19.20772 -10.31256
 Alpha  occ. eigenvalues --  -10.31201 -10.31082 -10.31064 -10.30501 -10.28499
 Alpha  occ. eigenvalues --  -10.28473 -10.28392 -10.28139 -10.28028 -10.27984
 Alpha  occ. eigenvalues --  -10.27912 -10.27898 -10.27681 -10.27640 -10.27085
 Alpha  occ. eigenvalues --  -10.27075 -10.27067 -10.26997 -10.26939 -10.26776
 Alpha  occ. eigenvalues --  -10.26687 -10.26130 -10.26005 -10.25993 -10.25572
 Alpha  occ. eigenvalues --  -10.25480 -10.25320 -10.25268 -10.25125 -10.25059
 Alpha  occ. eigenvalues --  -10.25010 -10.24869 -10.24675 -10.24597 -10.24176
 Alpha  occ. eigenvalues --  -10.24135 -10.23872 -10.23340 -10.21803  -1.14024
 Alpha  occ. eigenvalues --   -1.08500  -1.08476  -1.07532  -0.93216  -0.93114
 Alpha  occ. eigenvalues --   -0.92255  -0.91457  -0.91147  -0.89515  -0.87945
 Alpha  occ. eigenvalues --   -0.87612  -0.87109  -0.86060  -0.85123  -0.83289
 Alpha  occ. eigenvalues --   -0.82726  -0.81250  -0.80994  -0.79367  -0.77276
 Alpha  occ. eigenvalues --   -0.76907  -0.76820  -0.76269  -0.76114  -0.75925
 Alpha  occ. eigenvalues --   -0.75312  -0.75100  -0.73570  -0.70960  -0.69891
 Alpha  occ. eigenvalues --   -0.68913  -0.67934  -0.66098  -0.65174  -0.64210
 Alpha  occ. eigenvalues --   -0.63718  -0.62489  -0.61263  -0.60454  -0.60158
 Alpha  occ. eigenvalues --   -0.59190  -0.58452  -0.57879  -0.57513  -0.57317
 Alpha  occ. eigenvalues --   -0.56866  -0.55439  -0.55380  -0.54890  -0.54693
 Alpha  occ. eigenvalues --   -0.54051  -0.53528  -0.53059  -0.52737  -0.52173
 Alpha  occ. eigenvalues --   -0.51585  -0.51277  -0.50992  -0.50567  -0.49913
 Alpha  occ. eigenvalues --   -0.49812  -0.49749  -0.49488  -0.48791  -0.48681
 Alpha  occ. eigenvalues --   -0.48364  -0.47793  -0.47710  -0.47599  -0.47378
 Alpha  occ. eigenvalues --   -0.47094  -0.46906  -0.46626  -0.46242  -0.45392
 Alpha  occ. eigenvalues --   -0.45012  -0.44485  -0.43636  -0.43610  -0.43491
 Alpha  occ. eigenvalues --   -0.43055  -0.42927  -0.42852  -0.42718  -0.42458
 Alpha  occ. eigenvalues --   -0.42319  -0.41991  -0.41844  -0.41568  -0.41088
 Alpha  occ. eigenvalues --   -0.40904  -0.40882  -0.40308  -0.39897  -0.39721
 Alpha  occ. eigenvalues --   -0.39615  -0.39509  -0.39067  -0.38948  -0.38676
 Alpha  occ. eigenvalues --   -0.38279  -0.38131  -0.37880  -0.37227  -0.36664
 Alpha  occ. eigenvalues --   -0.36227  -0.35910  -0.35152  -0.34526  -0.34113
 Alpha  occ. eigenvalues --   -0.33359  -0.32225  -0.31725  -0.31498  -0.30082
 Alpha  occ. eigenvalues --   -0.28926  -0.27726  -0.24626  -0.20095
 Alpha virt. eigenvalues --   -0.05799  -0.00892   0.03611   0.05656   0.07520
 Alpha virt. eigenvalues --    0.08989   0.10218   0.10305   0.10898   0.11088
 Alpha virt. eigenvalues --    0.11975   0.12627   0.13162   0.13400   0.13665

 Mulliken charges:
               1
     1  O   -0.517218
     2  O   -0.566297
     3  O   -0.585181
     4  O   -0.560166
     5  C    0.237122
     6  C    0.166608
     7  C    0.023204
     8  C   -0.188704
     9  C   -0.164773
    10  C    0.166386
    11  C   -0.297354
    12  C   -0.124178
    13  C   -0.313803
    14  C   -0.334757
    15  C   -0.062514
    16  C    0.070360
    17  C   -0.353724
    18  C   -0.121989
    19  C   -0.049982
    20  C    0.020808
    21  C    0.290932
    22  C   -0.173688
    23  C    0.123748
    24  C   -0.180740
    25  C   -0.090716
    26  C   -0.288728
    27  C   -0.274337
    28  C   -0.305189
    29  C   -0.113972
    30  C    0.240306
    31  C    0.099084
    32  C   -0.379981
    33  C   -0.380723
    34  C   -0.017017
    35  C    0.153809
    36  C   -0.390169
    37  C   -0.128666
    38  C   -0.111682
    39  C   -0.107801
    40  C   -0.090099
    41  C   -0.106251
    42  C   -0.125350
    43  C    0.138392
    44  C   -0.371980
    45  H    0.098629
    46  H    0.133105
    47  H    0.088219
    48  H    0.115365
    49  H    0.089309
    50  H    0.087870
    51  H    0.118188
    52  H    0.128994
    53  H    0.093770
    54  H    0.103119
    55  H    0.114386
    56  H    0.074652
    57  H    0.126520
    58  H    0.103628
    59  H    0.085930
    60  H    0.301198
    61  H    0.054547
    62  H    0.146943
    63  H    0.074543
    64  H    0.129754
    65  H    0.082083
    66  H    0.073550
    67  H    0.087941
    68  H    0.101251
    69  H    0.099425
    70  H    0.118809
    71  H    0.096723
    72  H    0.072322
    73  H    0.116591
    74  H    0.096701
    75  H    0.122631
    76  H    0.119379
    77  H    0.052460
    78  H    0.068561
    79  H    0.102436
    80  H    0.136079
    81  H    0.058050
    82  H    0.313165
    83  H    0.310355
    84  H    0.101870
    85  H    0.138802
    86  H    0.117169
    87  H    0.112528
    88  H    0.014503
    89  H    0.105422
    90  H    0.124951
    91  H    0.107014
    92  H    0.048768
    93  H    0.086374
    94  H    0.079138
    95  H    0.081015
    96  H    0.100110
    97  H    0.084890
    98  H    0.097801
    99  H    0.123535
   100  H    0.125901
 Sum of Mulliken charges =  -0.00000

 Dipole moment (field-independent basis, Debye):
    X=              3.0323    Y=             -0.7318    Z=              1.8581  Tot=              3.6308
 Quadrupole moment (field-independent basis, Debye-Ang):
   XX=           -303.8573   YY=           -254.2248   ZZ=           -280.7955
   XY=             -4.9158   XZ=             33.5683   YZ=             -0.8235

 Normal termination of Gaussian 16 at Wed Jul 31 12:46:06 2019.
