 Gaussian 16, Revision A.03,
 Gaussian 16:  ES64L-G16RevA.03 25-Dec-2016

 -------------------------------------
 # td=(NStates=1) CAM-B3LYP/6-31G(d,p)
 -------------------------------------

 --
 TD
 --
 Symbolic Z-matrix:
 Charge =  0 Multiplicity = 1

                         Standard orientation:
 ---------------------------------------------------------------------
 Center     Atomic      Atomic             Coordinates (Angstroms)
 Number     Number       Type             X           Y           Z
 ---------------------------------------------------------------------
      1          8           0      -11.616704    0.198300   -1.608590
      2          8           0      -12.841617   -2.528085    1.419087
      3          8           0       10.535194   -1.142041   -2.123405
      4          8           0       14.490321   -0.939815   -0.182383
      5          6           0      -11.002805   -0.076925   -0.400833
      6          6           0      -11.596667   -1.188275   -1.334402
      7          6           0      -11.811336    0.445816    0.852654
      8          6           0      -13.000745   -1.890018   -0.971871
      9          6           0      -13.260235   -0.047404    0.854953
     10          6           0      -13.444173   -1.573131    0.514298
     11          6           0      -10.800781   -1.913655   -2.296536
     12          6           0       -9.510092    0.176584   -0.353947
     13          6           0      -11.116884    0.065594    2.250747
     14          6           0      -11.852631    1.964197    0.775950
     15          6           0       -8.663115   -0.574338    0.188945
     16          6           0       -7.202145   -0.594901    0.219460
     17          6           0       -6.366818   -1.747127    0.641861
     18          6           0       -6.523454    0.612058    0.011122
     19          6           0       -5.168183    0.842140   -0.115516
     20          6           0       11.888802    0.054322    1.307862
     21          6           0       11.623693   -0.709391   -1.294588
     22          6           0       12.698858   -1.276227    1.416352
     23          6           0       13.453217   -1.704164    0.183549
     24          6           0       12.498111   -1.844393   -0.967680
     25          6           0       11.035332    0.034857   -0.082010
     26          6           0       11.011418    0.237303    2.560035
     27          6           0       12.813925    1.237875    1.213062
     28          6           0       12.438938    0.375509   -2.119126
     29          6           0       -4.711366    2.104973   -0.454033
     30          6           0        9.838943    0.628379   -0.092288
     31          6           0       -3.439651    2.469869   -0.511962
     32          6           0        8.648438    0.977926   -0.127082
     33          6           0       -3.070914    3.929617   -0.777043
     34          6           0       -2.357402    1.580252   -0.273423
     35          6           0        7.498283    0.177563    0.079804
     36          6           0        7.584779   -1.251985    0.297413
     37          6           0        6.208358    0.687733   -0.011232
     38          6           0       -0.977486    1.890043   -0.224090
     39          6           0        4.911544    0.148077    0.009905
     40          6           0        0.015871    0.952180   -0.032688
     41          6           0        3.741289    0.805264   -0.081443
     42          6           0        1.373370    1.161239    0.095106
     43          6           0        2.432930    0.282919    0.205862
     44          6           0        2.222774   -1.157622    0.646157
     45          1           0      -12.936101   -3.145557   -1.148733
     46          1           0      -13.700493   -1.381134   -1.586921
     47          1           0      -13.543673   -0.069325    1.913989
     48          1           0      -13.965605    0.554839    0.182933
     49          1           0      -14.443689   -1.932551    0.557671
     50          1           0      -10.596363   -2.944705   -1.859400
     51          1           0      -11.394917   -2.204591   -3.299516
     52          1           0       -9.630430   -1.417837   -2.440458
     53          1           0       -9.264612    1.183502   -0.742001
     54          1           0      -10.061220    0.521465    2.284030
     55          1           0      -11.517019    0.670583    3.211903
     56          1           0      -11.016662   -0.953357    2.513788
     57          1           0      -12.012469    2.277828   -0.200680
     58          1           0      -12.371114    2.542500    1.458740
     59          1           0      -10.725454    2.217893    0.706022
     60          1           0      -12.023149   -2.940518    1.031856
     61          1           0       -8.786456   -1.740362    0.412455
     62          1           0       -5.711999   -2.039964   -0.372777
     63          1           0       -5.579140   -1.477908    1.376268
     64          1           0       -6.890061   -2.650682    0.814718
     65          1           0       -7.171354    1.508477    0.007222
     66          1           0       -4.523028   -0.012337    0.132520
     67          1           0       13.772536   -0.832352    2.105916
     68          1           0       12.161577   -2.112299    2.059718
     69          1           0       13.841187   -2.826065    0.360193
     70          1           0       12.957263   -2.211060   -1.783680
     71          1           0       11.857187   -2.812468   -0.626127
     72          1           0       11.666100    0.303368    3.414100
     73          1           0       10.397505    1.087707    2.341080
     74          1           0       10.338584   -0.573952    2.681218
     75          1           0       13.496577    1.119514    0.655921
     76          1           0       12.164733    2.142781    0.937862
     77          1           0       13.123200    1.577986    2.234472
     78          1           0       12.662856   -0.131814   -3.128863
     79          1           0       11.963167    1.303902   -2.299082
     80          1           0       13.194864    0.587312   -1.636244
     81          1           0       -5.647362    2.646060   -0.863309
     82          1           0       10.129708   -0.252136   -2.351173
     83          1           0       15.004527   -0.905798    0.569388
     84          1           0        8.340111    2.000041   -0.493191
     85          1           0       -2.483824    4.356583    0.050049
     86          1           0       -2.496585    4.000566   -1.778289
     87          1           0       -3.987123    4.504427   -1.184186
     88          1           0       -2.528745    0.496547   -0.010122
     89          1           0        6.671520   -2.043746    0.184344
     90          1           0        8.229757   -1.677533   -0.368779
     91          1           0        8.185398   -1.468227    1.325182
     92          1           0        6.109677    1.635908   -0.471535
     93          1           0       -0.606193    3.106959   -0.296878
     94          1           0        4.955855   -0.856833    0.561605
     95          1           0       -0.245528   -0.010067    0.101501
     96          1           0        3.705266    1.834920   -0.293500
     97          1           0        1.646681    2.090640   -0.289414
     98          1           0        1.212004   -1.543489    0.970053
     99          1           0        2.394258   -1.944206   -0.058555
    100          1           0        2.768789   -1.622717    1.569201
 ---------------------------------------------------------------------

 SCF Done:  E(RCAM-B3LYP) =  -1857.24237170     A.U. after   15 cycles

 Excitation energies and oscillator strengths:

 Excited State   1:      Singlet-A      1.9852 eV  624.53 nm  f=2.8673  <S**2>=0.000
     163 ->166        -0.12621
     164 ->165         0.70108
     164 <-165        -0.11280
 This state for optimization and/or second-order correction.
 Total Energy, E(TD-HF/TD-DFT) =  -1857.16941533
 Copying the excited state density for this state as the 1-particle RhoCI density.

 The electronic state is 1-A.
 Alpha  occ. eigenvalues --  -19.23091 -19.22584 -19.21388 -19.20881 -10.32489
 Alpha  occ. eigenvalues --  -10.32463 -10.32324 -10.32247 -10.30620 -10.29353
 Alpha  occ. eigenvalues --  -10.28660 -10.28348 -10.28327 -10.28008 -10.27947
 Alpha  occ. eigenvalues --  -10.27850 -10.27797 -10.27541 -10.27410 -10.27324
 Alpha  occ. eigenvalues --  -10.27173 -10.27090 -10.26739 -10.26695 -10.26644
 Alpha  occ. eigenvalues --  -10.26507 -10.26415 -10.26157 -10.26124 -10.26085
 Alpha  occ. eigenvalues --  -10.26043 -10.25838 -10.25640 -10.25578 -10.25529
 Alpha  occ. eigenvalues --  -10.25408 -10.25347 -10.25202 -10.25164 -10.25086
 Alpha  occ. eigenvalues --  -10.24144 -10.23456 -10.23208 -10.23069  -1.17004
 Alpha  occ. eigenvalues --   -1.15835  -1.09311  -1.07615  -0.93253  -0.92936
 Alpha  occ. eigenvalues --   -0.92267  -0.91580  -0.91016  -0.89575  -0.88099
 Alpha  occ. eigenvalues --   -0.87517  -0.86375  -0.85467  -0.85032  -0.83365
 Alpha  occ. eigenvalues --   -0.82364  -0.81274  -0.80608  -0.78518  -0.77877
 Alpha  occ. eigenvalues --   -0.77218  -0.76756  -0.76539  -0.76134  -0.75732
 Alpha  occ. eigenvalues --   -0.74593  -0.73877  -0.73130  -0.70837  -0.69910
 Alpha  occ. eigenvalues --   -0.68678  -0.67452  -0.65159  -0.64475  -0.64193
 Alpha  occ. eigenvalues --   -0.63630  -0.63009  -0.61944  -0.60371  -0.60038
 Alpha  occ. eigenvalues --   -0.59629  -0.58586  -0.57708  -0.57607  -0.56397
 Alpha  occ. eigenvalues --   -0.55899  -0.55548  -0.55325  -0.54877  -0.54216
 Alpha  occ. eigenvalues --   -0.53563  -0.53435  -0.53069  -0.52547  -0.52202
 Alpha  occ. eigenvalues --   -0.52101  -0.52037  -0.51000  -0.50798  -0.50262
 Alpha  occ. eigenvalues --   -0.49992  -0.49194  -0.49039  -0.48749  -0.48340
 Alpha  occ. eigenvalues --   -0.48025  -0.47926  -0.47649  -0.47175  -0.47012
 Alpha  occ. eigenvalues --   -0.46818  -0.46501  -0.46190  -0.45939  -0.45561
 Alpha  occ. eigenvalues --   -0.44972  -0.44749  -0.44526  -0.44284  -0.43572
 Alpha  occ. eigenvalues --   -0.43469  -0.43365  -0.43007  -0.42615  -0.42137
 Alpha  occ. eigenvalues --   -0.42021  -0.41757  -0.41152  -0.40875  -0.40731
 Alpha  occ. eigenvalues --   -0.40460  -0.40338  -0.40208  -0.40092  -0.40027
 Alpha  occ. eigenvalues --   -0.39654  -0.39528  -0.39190  -0.38885  -0.38629
 Alpha  occ. eigenvalues --   -0.38500  -0.38365  -0.38121  -0.37883  -0.37544
 Alpha  occ. eigenvalues --   -0.37192  -0.36088  -0.35091  -0.34632  -0.33145
 Alpha  occ. eigenvalues --   -0.33079  -0.32545  -0.32166  -0.31671  -0.30539
 Alpha  occ. eigenvalues --   -0.29298  -0.28438  -0.24293  -0.19326
 Alpha virt. eigenvalues --   -0.06802  -0.01022   0.03625   0.05314   0.07159
 Alpha virt. eigenvalues --    0.08788   0.09788   0.10924   0.11545   0.12256
 Alpha virt. eigenvalues --    0.12425   0.12644   0.12851   0.13079   0.13831

 Mulliken charges:
               1
     1  O   -0.487824
     2  O   -0.570191
     3  O   -0.557849
     4  O   -0.483381
     5  C    0.199105
     6  C    0.253031
     7  C    0.049818
     8  C   -0.237699
     9  C   -0.194016
    10  C    0.176881
    11  C   -0.326975
    12  C   -0.135173
    13  C   -0.315028
    14  C   -0.317034
    15  C   -0.015099
    16  C    0.058389
    17  C   -0.371299
    18  C   -0.125409
    19  C   -0.035482
    20  C    0.017691
    21  C    0.238761
    22  C   -0.175089
    23  C    0.157179
    24  C   -0.178494
    25  C   -0.065639
    26  C   -0.306518
    27  C   -0.268433
    28  C   -0.309561
    29  C   -0.139019
    30  C    0.178174
    31  C    0.097628
    32  C   -0.326465
    33  C   -0.374125
    34  C   -0.115713
    35  C    0.176111
    36  C   -0.389108
    37  C   -0.138834
    38  C   -0.072274
    39  C   -0.085554
    40  C   -0.069201
    41  C   -0.108028
    42  C   -0.136796
    43  C    0.148115
    44  C   -0.403330
    45  H    0.076669
    46  H    0.125963
    47  H    0.118919
    48  H    0.100958
    49  H    0.101158
    50  H    0.090559
    51  H    0.107310
    52  H    0.101811
    53  H    0.104939
    54  H    0.095101
    55  H    0.079649
    56  H    0.119621
    57  H    0.126079
    58  H    0.117494
    59  H    0.074049
    60  H    0.307324
    61  H    0.049206
    62  H    0.095122
    63  H    0.136678
    64  H    0.113285
    65  H    0.076295
    66  H    0.081898
    67  H    0.005937
    68  H    0.107106
    69  H    0.053092
    70  H    0.120726
    71  H    0.090026
    72  H    0.106069
    73  H    0.114615
    74  H    0.106028
    75  H    0.106079
    76  H    0.092308
    77  H    0.090134
    78  H    0.101728
    79  H    0.096147
    80  H    0.133292
    81  H    0.093141
    82  H    0.311775
    83  H    0.297503
    84  H    0.101427
    85  H    0.134295
    86  H    0.115258
    87  H    0.102892
    88  H    0.083329
    89  H    0.101995
    90  H    0.150640
    91  H    0.085456
    92  H    0.061455
    93  H    0.066031
    94  H    0.077383
    95  H    0.070996
    96  H    0.085211
    97  H    0.073722
    98  H    0.107518
    99  H    0.130773
   100  H    0.109582
 Sum of Mulliken charges =  -0.00000

 Dipole moment (field-independent basis, Debye):
    X=              3.2360    Y=             -0.5039    Z=              0.9011  Tot=              3.3967
 Quadrupole moment (field-independent basis, Debye-Ang):
   XX=           -260.2570   YY=           -257.8201   ZZ=           -279.7449
   XY=              4.8081   XZ=             29.8840   YZ=             -3.4372

 Normal termination of Gaussian 16 at Mon Jul 29 10:25:17 2019.
