 Gaussian 16, Revision A.03,
 Gaussian 16:  ES64L-G16RevA.03 25-Dec-2016

 -------------------------------------
 # td=(NStates=1) CAM-B3LYP/6-31G(d,p)
 -------------------------------------

 --
 TD
 --
 Symbolic Z-matrix:
 Charge =  0 Multiplicity = 1

                         Standard orientation:
 ---------------------------------------------------------------------
 Center     Atomic      Atomic             Coordinates (Angstroms)
 Number     Number       Type             X           Y           Z
 ---------------------------------------------------------------------
      1          8           0      -11.685892    0.206534   -1.577518
      2          8           0      -12.959750   -2.434500    1.587202
      3          8           0       10.512991   -1.205426   -1.941495
      4          8           0       14.391349   -1.021350   -0.199197
      5          6           0      -11.023378   -0.216749   -0.292640
      6          6           0      -11.672962   -1.172545   -1.197071
      7          6           0      -11.761142    0.311419    0.911859
      8          6           0      -13.018694   -1.936381   -0.848059
      9          6           0      -13.287857   -0.038987    0.967096
     10          6           0      -13.582375   -1.475842    0.612581
     11          6           0      -10.846043   -2.181996   -2.017504
     12          6           0       -9.601504   -0.021880   -0.385971
     13          6           0      -11.021948   -0.074913    2.185154
     14          6           0      -11.692082    1.858425    0.901116
     15          6           0       -8.635368   -0.641837    0.111850
     16          6           0       -7.209230   -0.492427    0.143366
     17          6           0       -6.364312   -1.713756    0.309937
     18          6           0       -6.625483    0.800698   -0.140342
     19          6           0       -5.309097    1.011981   -0.167430
     20          6           0       11.906784    0.154933    1.336604
     21          6           0       11.669468   -0.790583   -1.248118
     22          6           0       12.805833   -1.172134    1.559704
     23          6           0       13.338244   -1.840604    0.391815
     24          6           0       12.380050   -2.059254   -0.812753
     25          6           0       11.041582   -0.050648    0.050327
     26          6           0       11.001099    0.438730    2.592186
     27          6           0       12.905203    1.397926    1.135814
     28          6           0       12.530936    0.154496   -2.095254
     29          6           0       -4.644074    2.292003   -0.517419
     30          6           0        9.886405    0.372331   -0.028044
     31          6           0       -3.277959    2.607800   -0.598375
     32          6           0        8.661267    0.890033   -0.095390
     33          6           0       -2.952645    4.020558   -0.806829
     34          6           0       -2.395952    1.591157   -0.334952
     35          6           0        7.415925    0.103205    0.181014
     36          6           0        7.663862   -1.338577    0.295400
     37          6           0        6.261898    0.789067    0.007568
     38          6           0       -1.001915    1.772841   -0.452499
     39          6           0        5.017297    0.210853    0.051726
     40          6           0       -0.016882    0.936512   -0.235294
     41          6           0        3.758055    0.910054   -0.092658
     42          6           0        1.362444    1.165798   -0.210222
     43          6           0        2.485628    0.363727   -0.018032
     44          6           0        2.362947   -1.081635    0.283039
     45          1           0      -13.017559   -3.063241   -0.910245
     46          1           0      -13.575301   -1.537839   -1.747379
     47          1           0      -13.728369    0.352524    1.995157
     48          1           0      -13.827074    0.580474    0.251641
     49          1           0      -14.532208   -1.614834    0.562989
     50          1           0      -10.870750   -3.045851   -1.431471
     51          1           0      -11.619467   -2.400426   -2.704435
     52          1           0      -10.020777   -1.587567   -2.479155
     53          1           0       -9.363178    0.868124   -0.906667
     54          1           0      -10.221887    0.219829    2.331640
     55          1           0      -11.551359    0.229330    3.045996
     56          1           0      -10.984648   -1.161655    2.378184
     57          1           0      -11.921010    2.314954   -0.215622
     58          1           0      -12.238517    2.380060    1.592839
     59          1           0      -10.730023    2.328254    1.281759
     60          1           0      -12.146662   -2.428370    1.086116
     61          1           0       -9.134707   -1.482167    0.695685
     62          1           0       -6.054782   -2.042975   -0.722848
     63          1           0       -5.391164   -1.289682    0.896147
     64          1           0       -6.912032   -2.597734    0.674701
     65          1           0       -7.391365    1.733005   -0.337035
     66          1           0       -4.852159    0.148791    0.183763
     67          1           0       13.598111   -1.053416    2.259045
     68          1           0       12.029580   -1.852081    1.977026
     69          1           0       13.999260   -2.649783    0.581431
     70          1           0       12.997598   -2.252671   -1.688333
     71          1           0       11.859738   -2.892819   -0.435720
     72          1           0       11.684170    0.607785    3.463792
     73          1           0       10.252370    1.215784    2.453591
     74          1           0       10.338042   -0.276537    2.783227
     75          1           0       13.456270    1.207807    0.353777
     76          1           0       12.119630    2.270333    1.024028
     77          1           0       13.564632    1.661460    1.963828
     78          1           0       12.549066   -0.344246   -3.272076
     79          1           0       11.955935    1.083283   -2.168095
     80          1           0       13.535727    0.459557   -1.761724
     81          1           0       -5.407052    3.069847   -0.782773
     82          1           0       10.215905   -0.321036   -2.391958
     83          1           0       15.287684   -1.134279    0.386437
     84          1           0        8.487927    2.127879    0.033782
     85          1           0       -1.994855    4.191992   -0.081568
     86          1           0       -2.678770    4.117757   -1.887379
     87          1           0       -3.680035    4.911539   -0.579277
     88          1           0       -2.698463    0.631152   -0.105785
     89          1           0        6.739596   -1.916173    0.371522
     90          1           0        8.096172   -1.556672   -0.479055
     91          1           0        8.048271   -1.601011    1.309780
     92          1           0        6.242402    1.864247   -0.351532
     93          1           0       -0.643760    2.800151   -0.617137
     94          1           0        4.744564   -0.891668    0.203816
     95          1           0       -0.206900   -0.086220   -0.060400
     96          1           0        3.892503    1.860196   -0.243273
     97          1           0        1.641663    2.177990   -0.404287
     98          1           0        1.176206   -1.315093    0.290354
     99          1           0        2.901879   -1.429202   -0.440428
    100          1           0        2.826203   -1.073729    1.221876
 ---------------------------------------------------------------------

 SCF Done:  E(RCAM-B3LYP) =  -1857.18746048     A.U. after   15 cycles

 Excitation energies and oscillator strengths:

 Excited State   1:      Singlet-A      2.0161 eV  614.97 nm  f=3.0446  <S**2>=0.000
     163 ->166         0.13733
     164 ->165         0.69821
     164 <-165        -0.10652
 This state for optimization and/or second-order correction.
 Total Energy, E(TD-HF/TD-DFT) =  -1857.11336969
 Copying the excited state density for this state as the 1-particle RhoCI density.

 The electronic state is 1-A.
 Alpha  occ. eigenvalues --  -19.22369 -19.22030 -19.21519 -19.21132 -10.32841
 Alpha  occ. eigenvalues --  -10.32309 -10.30987 -10.30393 -10.30320 -10.29295
 Alpha  occ. eigenvalues --  -10.28017 -10.27920 -10.27845 -10.27733 -10.27549
 Alpha  occ. eigenvalues --  -10.27496 -10.27477 -10.27378 -10.27125 -10.27076
 Alpha  occ. eigenvalues --  -10.26692 -10.26565 -10.26561 -10.26245 -10.25940
 Alpha  occ. eigenvalues --  -10.25876 -10.25809 -10.25653 -10.25554 -10.25434
 Alpha  occ. eigenvalues --  -10.25353 -10.25130 -10.25006 -10.24947 -10.24881
 Alpha  occ. eigenvalues --  -10.24752 -10.24729 -10.24547 -10.24319 -10.24070
 Alpha  occ. eigenvalues --  -10.23927 -10.23913 -10.23489 -10.21431  -1.13586
 Alpha  occ. eigenvalues --   -1.10072  -1.08499  -1.07634  -0.92866  -0.92515
 Alpha  occ. eigenvalues --   -0.92101  -0.91626  -0.90696  -0.90409  -0.87863
 Alpha  occ. eigenvalues --   -0.86834  -0.86402  -0.86055  -0.84930  -0.83305
 Alpha  occ. eigenvalues --   -0.82719  -0.81677  -0.80882  -0.79297  -0.77815
 Alpha  occ. eigenvalues --   -0.77364  -0.77237  -0.76559  -0.76266  -0.75819
 Alpha  occ. eigenvalues --   -0.75540  -0.75250  -0.73269  -0.71061  -0.69560
 Alpha  occ. eigenvalues --   -0.68296  -0.67385  -0.65572  -0.64803  -0.64243
 Alpha  occ. eigenvalues --   -0.63310  -0.61730  -0.61065  -0.60247  -0.59471
 Alpha  occ. eigenvalues --   -0.58706  -0.57927  -0.57875  -0.56963  -0.56365
 Alpha  occ. eigenvalues --   -0.56076  -0.55343  -0.55209  -0.54822  -0.54317
 Alpha  occ. eigenvalues --   -0.53941  -0.53581  -0.53062  -0.53000  -0.52367
 Alpha  occ. eigenvalues --   -0.51651  -0.51537  -0.51140  -0.50731  -0.50467
 Alpha  occ. eigenvalues --   -0.50344  -0.49904  -0.49610  -0.48972  -0.48644
 Alpha  occ. eigenvalues --   -0.48478  -0.48062  -0.47905  -0.47840  -0.46825
 Alpha  occ. eigenvalues --   -0.46508  -0.46451  -0.45973  -0.45635  -0.45546
 Alpha  occ. eigenvalues --   -0.44254  -0.44168  -0.44111  -0.43875  -0.43535
 Alpha  occ. eigenvalues --   -0.43471  -0.43286  -0.42896  -0.42774  -0.42666
 Alpha  occ. eigenvalues --   -0.42618  -0.42456  -0.41667  -0.41502  -0.41206
 Alpha  occ. eigenvalues --   -0.40853  -0.40453  -0.40420  -0.40217  -0.40103
 Alpha  occ. eigenvalues --   -0.39598  -0.39430  -0.39126  -0.38998  -0.38597
 Alpha  occ. eigenvalues --   -0.38467  -0.37885  -0.37634  -0.37464  -0.37175
 Alpha  occ. eigenvalues --   -0.36515  -0.35440  -0.35182  -0.34437  -0.34132
 Alpha  occ. eigenvalues --   -0.33095  -0.32754  -0.32154  -0.31866  -0.31258
 Alpha  occ. eigenvalues --   -0.30190  -0.28135  -0.23247  -0.18765
 Alpha virt. eigenvalues --   -0.06151  -0.01183   0.04295   0.06361   0.08448
 Alpha virt. eigenvalues --    0.08519   0.10233   0.11071   0.12095   0.12428
 Alpha virt. eigenvalues --    0.12810   0.13239   0.13597   0.13741   0.14135

 Mulliken charges:
               1
     1  O   -0.520135
     2  O   -0.543402
     3  O   -0.557917
     4  O   -0.579701
     5  C    0.166385
     6  C    0.234693
     7  C    0.024462
     8  C   -0.287015
     9  C   -0.171321
    10  C    0.138496
    11  C   -0.314267
    12  C   -0.097318
    13  C   -0.286267
    14  C   -0.321842
    15  C   -0.046973
    16  C    0.045013
    17  C   -0.363097
    18  C   -0.086678
    19  C   -0.046758
    20  C    0.006136
    21  C    0.262513
    22  C   -0.158977
    23  C    0.130251
    24  C   -0.168701
    25  C   -0.186368
    26  C   -0.310628
    27  C   -0.288130
    28  C   -0.319626
    29  C   -0.158174
    30  C    0.289676
    31  C    0.126335
    32  C   -0.315193
    33  C   -0.373003
    34  C   -0.086518
    35  C    0.084476
    36  C   -0.340419
    37  C   -0.096046
    38  C   -0.093129
    39  C   -0.104506
    40  C   -0.059162
    41  C   -0.094050
    42  C   -0.133168
    43  C    0.077876
    44  C   -0.349050
    45  H    0.121531
    46  H    0.126874
    47  H    0.097087
    48  H    0.113831
    49  H    0.102103
    50  H    0.113730
    51  H    0.113186
    52  H    0.127802
    53  H    0.090840
    54  H    0.108945
    55  H    0.099671
    56  H    0.090605
    57  H    0.101351
    58  H    0.111064
    59  H    0.087450
    60  H    0.309145
    61  H    0.049763
    62  H    0.134092
    63  H    0.108765
    64  H    0.121135
    65  H    0.078121
    66  H    0.056789
    67  H    0.086083
    68  H    0.093525
    69  H    0.087899
    70  H    0.118765
    71  H    0.115634
    72  H    0.094533
    73  H    0.109478
    74  H    0.111387
    75  H    0.125882
    76  H    0.081693
    77  H    0.094814
    78  H    0.078708
    79  H    0.098555
    80  H    0.158612
    81  H    0.079516
    82  H    0.309267
    83  H    0.295440
    84  H    0.091232
    85  H    0.107485
    86  H    0.131047
    87  H    0.117529
    88  H    0.084904
    89  H    0.100836
    90  H    0.150323
    91  H    0.117301
    92  H    0.089051
    93  H    0.069668
    94  H    0.074303
    95  H    0.054711
    96  H    0.054575
    97  H    0.058044
    98  H    0.090540
    99  H    0.139822
   100  H    0.136187
 Sum of Mulliken charges =  -0.00000

 Dipole moment (field-independent basis, Debye):
    X=              5.1692    Y=             -0.3252    Z=              1.0841  Tot=              5.2917
 Quadrupole moment (field-independent basis, Debye-Ang):
   XX=           -226.0146   YY=           -260.0311   ZZ=           -276.6169
   XY=             -8.0850   XZ=             27.3082   YZ=             -0.0737

 Normal termination of Gaussian 16 at Mon Jul 29 21:04:08 2019.
