 Gaussian 16, Revision A.03,
 Gaussian 16:  ES64L-G16RevA.03 25-Dec-2016

 -------------------------------------
 # td=(NStates=1) CAM-B3LYP/6-31G(d,p)
 -------------------------------------

 --
 TD
 --
 Symbolic Z-matrix:
 Charge =  0 Multiplicity = 1

                         Standard orientation:
 ---------------------------------------------------------------------
 Center     Atomic      Atomic             Coordinates (Angstroms)
 Number     Number       Type             X           Y           Z
 ---------------------------------------------------------------------
      1          8           0      -11.562653    0.341029   -1.503122
      2          8           0      -13.035227   -2.575933    1.187209
      3          8           0       10.567604   -1.104342   -2.127494
      4          8           0       14.584235   -1.096256   -0.055980
      5          6           0      -11.002233   -0.167854   -0.291850
      6          6           0      -11.610378   -1.041667   -1.359584
      7          6           0      -11.756330    0.245378    1.074639
      8          6           0      -13.055629   -1.643630   -1.098552
      9          6           0      -13.222609   -0.178368    0.890727
     10          6           0      -13.401462   -1.517015    0.308503
     11          6           0      -10.759061   -1.803618   -2.267550
     12          6           0       -9.480815    0.126258   -0.210223
     13          6           0      -11.006245   -0.377006    2.263239
     14          6           0      -11.739766    1.768535    1.180736
     15          6           0       -8.598427   -0.773370    0.233536
     16          6           0       -7.167412   -0.541802    0.274845
     17          6           0       -6.245239   -1.768655    0.556413
     18          6           0       -6.679595    0.721004    0.157010
     19          6           0       -5.289576    0.944625   -0.005068
     20          6           0       11.866952   -0.026668    1.377202
     21          6           0       11.667401   -0.555587   -1.215671
     22          6           0       12.582518   -1.258048    1.557150
     23          6           0       13.413127   -1.802863    0.350315
     24          6           0       12.341589   -1.901372   -0.835775
     25          6           0       11.075956    0.009982    0.109076
     26          6           0       10.838660    0.214877    2.612086
     27          6           0       12.915347    1.204216    1.414033
     28          6           0       12.638590    0.259693   -1.948476
     29          6           0       -4.693158    2.230483   -0.189356
     30          6           0        9.870298    0.552793   -0.035283
     31          6           0       -3.357199    2.622304   -0.373308
     32          6           0        8.633743    0.914905   -0.177424
     33          6           0       -2.940652    4.055507   -0.725620
     34          6           0       -2.322957    1.684352   -0.223564
     35          6           0        7.421169    0.134045    0.009075
     36          6           0        7.621056   -1.239779    0.296464
     37          6           0        6.236949    0.809524   -0.250884
     38          6           0       -0.927949    1.917764   -0.328528
     39          6           0        4.862794    0.222429   -0.189872
     40          6           0       -0.010740    0.934922   -0.183104
     41          6           0        3.687240    0.878956   -0.422565
     42          6           0        1.261401    1.223918   -0.191664
     43          6           0        2.378707    0.360325   -0.227305
     44          6           0        2.160525   -1.158589   -0.213418
     45          1           0      -13.331482   -2.674939   -1.364348
     46          1           0      -13.704233   -0.923666   -1.690383
     47          1           0      -13.808652    0.007420    1.768599
     48          1           0      -13.737072    0.558476    0.218052
     49          1           0      -14.332548   -1.563965    0.272185
     50          1           0      -10.736073   -2.869165   -1.925465
     51          1           0      -11.278194   -1.649359   -3.334004
     52          1           0       -9.647679   -1.564750   -2.183821
     53          1           0       -9.191483    1.131592   -0.436521
     54          1           0      -10.071846   -0.181690    2.361845
     55          1           0      -11.746742   -0.185010    2.922145
     56          1           0      -10.803193   -1.465434    2.357396
     57          1           0      -12.358470    2.223877    0.315459
     58          1           0      -12.355429    1.955916    2.117674
     59          1           0      -10.642417    2.030731    1.325804
     60          1           0      -12.187412   -2.608343    1.015521
     61          1           0       -9.094271   -1.761371    0.688240
     62          1           0       -5.671177   -2.216656   -0.267598
     63          1           0       -5.512897   -1.651985    1.329612
     64          1           0       -6.860406   -2.676537    1.031620
     65          1           0       -7.454343    1.494548    0.124821
     66          1           0       -4.563449    0.223129   -0.234164
     67          1           0       12.924989   -1.168557    2.585657
     68          1           0       11.902287   -2.059365    1.620940
     69          1           0       13.842595   -2.836917    0.512441
     70          1           0       12.923850   -2.220994   -1.706716
     71          1           0       11.780076   -2.681319   -0.387756
     72          1           0       11.412729   -0.059636    3.568578
     73          1           0       10.433445    1.185454    2.745756
     74          1           0       10.104849   -0.673635    2.587105
     75          1           0       13.785084    1.225921    0.782326
     76          1           0       12.574013    2.318794    1.154793
     77          1           0       13.081140    1.588237    2.481015
     78          1           0       12.853717   -0.240113   -2.814668
     79          1           0       12.083809    1.156767   -2.156627
     80          1           0       13.500513    0.743032   -1.498903
     81          1           0       -5.500503    3.015067   -0.111537
     82          1           0       10.171154   -0.239398   -2.487062
     83          1           0       14.914157   -0.839244    0.962622
     84          1           0        8.516199    1.942663   -0.446308
     85          1           0       -2.048477    4.345303    0.023187
     86          1           0       -2.632458    4.170688   -1.838822
     87          1           0       -3.798212    4.740192   -0.580658
     88          1           0       -2.503382    0.667489   -0.055921
     89          1           0        6.729308   -1.802675    0.010265
     90          1           0        8.460825   -1.653944   -0.381985
     91          1           0        7.999107   -1.683369    1.196240
     92          1           0        6.359824    1.703101   -0.684065
     93          1           0       -0.614560    3.111172   -0.415775
     94          1           0        4.884397   -0.966267    0.187671
     95          1           0       -0.473562   -0.075629    0.505794
     96          1           0        3.698800    1.870512   -0.602695
     97          1           0        1.531528    2.236615   -0.740024
     98          1           0        1.017941   -1.632831   -1.001399
     99          1           0        3.146915   -1.597870   -0.612013
    100          1           0        2.356135   -1.423469    0.978567
 ---------------------------------------------------------------------

 SCF Done:  E(RCAM-B3LYP) =  -1857.20754139     A.U. after   15 cycles

 Excitation energies and oscillator strengths:

 Excited State   1:      Singlet-A      2.0783 eV  596.57 nm  f=2.8389  <S**2>=0.000
     163 ->166         0.12547
     164 ->165         0.69919
     164 <-165        -0.10405
 This state for optimization and/or second-order correction.
 Total Energy, E(TD-HF/TD-DFT) =  -1857.13116540
 Copying the excited state density for this state as the 1-particle RhoCI density.

 The electronic state is 1-A.
 Alpha  occ. eigenvalues --  -19.22783 -19.22270 -19.21886 -19.20334 -10.32514
 Alpha  occ. eigenvalues --  -10.31976 -10.31969 -10.31604 -10.29948 -10.29639
 Alpha  occ. eigenvalues --  -10.28585 -10.27852 -10.27831 -10.27819 -10.27802
 Alpha  occ. eigenvalues --  -10.27574 -10.27505 -10.27469 -10.27425 -10.27345
 Alpha  occ. eigenvalues --  -10.27276 -10.27118 -10.26942 -10.26774 -10.26714
 Alpha  occ. eigenvalues --  -10.26683 -10.26632 -10.26470 -10.26418 -10.26308
 Alpha  occ. eigenvalues --  -10.26100 -10.26087 -10.26017 -10.25997 -10.25932
 Alpha  occ. eigenvalues --  -10.25879 -10.25818 -10.25742 -10.25682 -10.25054
 Alpha  occ. eigenvalues --  -10.24740 -10.24362 -10.23723 -10.22802  -1.16407
 Alpha  occ. eigenvalues --   -1.12205  -1.08445  -1.06576  -0.94032  -0.92488
 Alpha  occ. eigenvalues --   -0.92030  -0.91687  -0.91219  -0.90126  -0.87974
 Alpha  occ. eigenvalues --   -0.87552  -0.86780  -0.85310  -0.84736  -0.82683
 Alpha  occ. eigenvalues --   -0.82241  -0.81309  -0.80493  -0.78296  -0.78024
 Alpha  occ. eigenvalues --   -0.77843  -0.76328  -0.76267  -0.75983  -0.75964
 Alpha  occ. eigenvalues --   -0.75636  -0.73613  -0.72258  -0.70781  -0.69616
 Alpha  occ. eigenvalues --   -0.68554  -0.66832  -0.65585  -0.65251  -0.63520
 Alpha  occ. eigenvalues --   -0.63135  -0.61407  -0.60506  -0.60142  -0.59726
 Alpha  occ. eigenvalues --   -0.59001  -0.58261  -0.57525  -0.57416  -0.56277
 Alpha  occ. eigenvalues --   -0.55968  -0.55742  -0.55169  -0.54712  -0.54274
 Alpha  occ. eigenvalues --   -0.54123  -0.53767  -0.53393  -0.52723  -0.52473
 Alpha  occ. eigenvalues --   -0.51786  -0.51103  -0.50758  -0.50098  -0.49653
 Alpha  occ. eigenvalues --   -0.49482  -0.48837  -0.48751  -0.48295  -0.48178
 Alpha  occ. eigenvalues --   -0.47897  -0.47754  -0.47567  -0.46948  -0.46878
 Alpha  occ. eigenvalues --   -0.46517  -0.46354  -0.45834  -0.45610  -0.45428
 Alpha  occ. eigenvalues --   -0.45235  -0.45150  -0.44542  -0.44002  -0.43928
 Alpha  occ. eigenvalues --   -0.43340  -0.43258  -0.43165  -0.42726  -0.42493
 Alpha  occ. eigenvalues --   -0.42450  -0.41838  -0.41691  -0.41298  -0.40924
 Alpha  occ. eigenvalues --   -0.40813  -0.40386  -0.40141  -0.40074  -0.39668
 Alpha  occ. eigenvalues --   -0.39612  -0.39520  -0.39414  -0.38897  -0.38740
 Alpha  occ. eigenvalues --   -0.38534  -0.38419  -0.38170  -0.37903  -0.37152
 Alpha  occ. eigenvalues --   -0.36193  -0.36028  -0.34820  -0.34436  -0.33983
 Alpha  occ. eigenvalues --   -0.33495  -0.32394  -0.32026  -0.31560  -0.30895
 Alpha  occ. eigenvalues --   -0.29447  -0.27940  -0.24697  -0.19375
 Alpha virt. eigenvalues --   -0.06333  -0.00532   0.02903   0.06167   0.06622
 Alpha virt. eigenvalues --    0.08150   0.08797   0.09066   0.10263   0.11732
 Alpha virt. eigenvalues --    0.11886   0.12170   0.12948   0.12993   0.13265

 Mulliken charges:
               1
     1  O   -0.495587
     2  O   -0.523691
     3  O   -0.561177
     4  O   -0.542562
     5  C    0.169752
     6  C    0.253389
     7  C   -0.000745
     8  C   -0.226593
     9  C   -0.205335
    10  C    0.173493
    11  C   -0.326794
    12  C   -0.107093
    13  C   -0.290866
    14  C   -0.291187
    15  C   -0.095927
    16  C    0.089255
    17  C   -0.380004
    18  C   -0.099897
    19  C   -0.068903
    20  C    0.041657
    21  C    0.203966
    22  C   -0.215413
    23  C    0.130808
    24  C   -0.176611
    25  C   -0.049454
    26  C   -0.316353
    27  C   -0.342732
    28  C   -0.301047
    29  C   -0.144847
    30  C    0.150446
    31  C    0.098783
    32  C   -0.306444
    33  C   -0.362275
    34  C   -0.109811
    35  C    0.191341
    36  C   -0.418174
    37  C   -0.117263
    38  C   -0.067280
    39  C   -0.108538
    40  C   -0.075071
    41  C   -0.078746
    42  C   -0.134143
    43  C    0.096257
    44  C   -0.334181
    45  H    0.114182
    46  H    0.117215
    47  H    0.097475
    48  H    0.095108
    49  H    0.092528
    50  H    0.096929
    51  H    0.102052
    52  H    0.118877
    53  H    0.106106
    54  H    0.118997
    55  H    0.114427
    56  H    0.080038
    57  H    0.119554
    58  H    0.094007
    59  H    0.095611
    60  H    0.285161
    61  H    0.075714
    62  H    0.125958
    63  H    0.130531
    64  H    0.087903
    65  H    0.088331
    66  H    0.088369
    67  H    0.096300
    68  H    0.111080
    69  H    0.083983
    70  H    0.108096
    71  H    0.111452
    72  H    0.084965
    73  H    0.129867
    74  H    0.105028
    75  H    0.126138
    76  H    0.084222
    77  H    0.097502
    78  H    0.129752
    79  H    0.087716
    80  H    0.142438
    81  H    0.070035
    82  H    0.302313
    83  H    0.308681
    84  H    0.099203
    85  H    0.109737
    86  H    0.124278
    87  H    0.111522
    88  H    0.073992
    89  H    0.106890
    90  H    0.141276
    91  H    0.127444
    92  H    0.077742
    93  H    0.076427
    94  H    0.070907
    95  H    0.079551
    96  H    0.078318
    97  H    0.073044
    98  H    0.079121
    99  H    0.115017
   100  H    0.106487
 Sum of Mulliken charges =  -0.00000

 Dipole moment (field-independent basis, Debye):
    X=              3.4068    Y=              0.9504    Z=              1.9747  Tot=              4.0508
 Quadrupole moment (field-independent basis, Debye-Ang):
   XX=           -265.8799   YY=           -263.2965   ZZ=           -275.2094
   XY=              7.6067   XZ=             31.0637   YZ=             -4.2582

 Normal termination of Gaussian 16 at Thu Aug  1 23:11:49 2019.
