 Gaussian 16, Revision A.03,
 Gaussian 16:  ES64L-G16RevA.03 25-Dec-2016

 -------------------------------------
 # td=(NStates=1) CAM-B3LYP/6-31G(d,p)
 -------------------------------------

 --
 TD
 --
 Symbolic Z-matrix:
 Charge =  0 Multiplicity = 1

                         Standard orientation:
 ---------------------------------------------------------------------
 Center     Atomic      Atomic             Coordinates (Angstroms)
 Number     Number       Type             X           Y           Z
 ---------------------------------------------------------------------
      1          8           0      -11.636961   -0.043526   -1.678627
      2          8           0      -13.040768   -2.239836    1.498275
      3          8           0       10.607699   -1.072941   -2.195883
      4          8           0       14.433375   -0.941175   -0.146869
      5          6           0      -11.041479   -0.140524   -0.472348
      6          6           0      -11.605266   -1.304315   -1.089631
      7          6           0      -11.882876    0.612890    0.686007
      8          6           0      -13.005147   -1.889228   -0.850638
      9          6           0      -13.378735    0.055074    0.688350
     10          6           0      -13.570153   -1.395074    0.507932
     11          6           0      -10.707292   -2.322472   -1.822113
     12          6           0       -9.547475    0.081121   -0.394400
     13          6           0      -11.123379    0.398189    2.117240
     14          6           0      -11.777462    2.107108    0.432488
     15          6           0       -8.635421   -0.857960    0.122941
     16          6           0       -7.219064   -0.524113    0.329545
     17          6           0       -6.351842   -1.830462    0.732332
     18          6           0       -6.675594    0.643828   -0.048379
     19          6           0       -5.245178    0.921711   -0.006515
     20          6           0       11.946104    0.101221    1.331429
     21          6           0       11.688778   -0.630060   -1.277432
     22          6           0       12.718839   -1.220936    1.597884
     23          6           0       13.380707   -1.741833    0.282650
     24          6           0       12.505622   -1.940506   -0.963457
     25          6           0       11.194581    0.002968   -0.024179
     26          6           0       11.001596    0.330482    2.544515
     27          6           0       12.818079    1.370181    1.322413
     28          6           0       12.542039    0.333266   -2.124044
     29          6           0       -4.619964    2.169467   -0.358704
     30          6           0        9.936088    0.567419   -0.079399
     31          6           0       -3.379700    2.447771   -0.448779
     32          6           0        8.747184    0.992758   -0.158618
     33          6           0       -3.016543    3.813220   -0.940078
     34          6           0       -2.339957    1.609748   -0.056986
     35          6           0        7.507255    0.086052   -0.038758
     36          6           0        7.677170   -1.363108    0.135723
     37          6           0        6.287059    0.757222   -0.095214
     38          6           0       -1.001590    1.784792   -0.373215
     39          6           0        5.022676    0.094357    0.177446
     40          6           0        0.073948    0.847868   -0.049002
     41          6           0        3.764439    0.706708    0.001866
     42          6           0        1.394087    1.177988   -0.188550
     43          6           0        2.432430    0.285754    0.103722
     44          6           0        2.139066   -1.187586    0.558608
     45          1           0      -13.029463   -3.051226   -0.885937
     46          1           0      -13.783951   -1.408608   -1.677360
     47          1           0      -13.792623    0.498109    1.572999
     48          1           0      -13.959326    0.490979   -0.216679
     49          1           0      -14.681761   -1.634470    0.452027
     50          1           0      -10.662356   -3.314042   -0.866360
     51          1           0      -11.154290   -2.739070   -2.693089
     52          1           0       -9.751066   -1.935001   -2.117999
     53          1           0       -9.193634    0.933111   -1.015463
     54          1           0      -10.146162    0.711048    2.381202
     55          1           0      -11.782219    0.760118    2.766563
     56          1           0      -10.917847   -0.737872    2.340933
     57          1           0      -11.963202    2.387407   -0.696447
     58          1           0      -12.638525    2.637004    1.151047
     59          1           0      -10.822549    2.458457    0.968412
     60          1           0      -11.949763   -2.254441    1.362408
     61          1           0       -9.095381   -2.016491    0.415187
     62          1           0       -5.830254   -2.344015   -0.106344
     63          1           0       -5.711122   -1.606948    1.630852
     64          1           0       -7.142542   -2.534216    1.244562
     65          1           0       -7.172273    1.489306   -0.409037
     66          1           0       -4.687449    0.021652    0.307392
     67          1           0       13.445966   -0.986390    2.246213
     68          1           0       11.758778   -1.800587    1.924008
     69          1           0       13.616013   -2.760113    0.498072
     70          1           0       12.929817   -2.169760   -1.794520
     71          1           0       11.813214   -2.913100   -0.866255
     72          1           0       11.674494    0.412980    3.348311
     73          1           0       10.366671    1.177620    2.417228
     74          1           0       10.177160   -0.519433    2.681257
     75          1           0       13.507874    1.182496    0.504115
     76          1           0       12.152930    2.270424    1.185723
     77          1           0       13.438419    1.245232    2.291526
     78          1           0       12.782215   -0.267957   -2.970475
     79          1           0       12.156893    1.264629   -2.276097
     80          1           0       13.465737    0.613988   -1.714374
     81          1           0       -5.356212    2.896677   -0.761255
     82          1           0       10.088467   -0.214110   -2.472331
     83          1           0       14.879649   -0.718238    0.758057
     84          1           0        8.572248    2.051058   -0.306366
     85          1           0       -2.448371    4.455443   -0.072938
     86          1           0       -2.342098    3.617564   -1.831137
     87          1           0       -3.886978    4.602498   -1.456705
     88          1           0       -2.356195    0.620706    0.318861
     89          1           0        6.683989   -1.841038    0.063795
     90          1           0        8.288728   -1.716666   -0.691198
     91          1           0        7.880052   -1.486833    1.088812
     92          1           0        6.197449    1.747379   -0.242837
     93          1           0       -0.542410    2.737515   -0.561385
     94          1           0        5.050337   -0.905376    0.416776
     95          1           0       -0.428024   -0.105761    0.233338
     96          1           0        3.886455    1.767039   -0.384301
     97          1           0        1.419365    2.346498   -0.504815
     98          1           0        1.004613   -1.375987    0.862801
     99          1           0        2.536952   -1.862346   -0.102523
    100          1           0        2.625010   -1.502945    1.570664
 ---------------------------------------------------------------------

 SCF Done:  E(RCAM-B3LYP) =  -1857.25214619     A.U. after   16 cycles

 Excitation energies and oscillator strengths:

 Excited State   1:      Singlet-A      1.8191 eV  681.58 nm  f=2.9055  <S**2>=0.000
     163 ->166         0.10839
     164 ->165         0.71101
     164 <-165        -0.14877
 This state for optimization and/or second-order correction.
 Total Energy, E(TD-HF/TD-DFT) =  -1857.18529671
 Copying the excited state density for this state as the 1-particle RhoCI density.

 The electronic state is 1-A.
 Alpha  occ. eigenvalues --  -19.23949 -19.22523 -19.21482 -19.21288 -10.32000
 Alpha  occ. eigenvalues --  -10.31888 -10.31844 -10.31210 -10.30435 -10.29331
 Alpha  occ. eigenvalues --  -10.28577 -10.28573 -10.28368 -10.28317 -10.28314
 Alpha  occ. eigenvalues --  -10.28130 -10.27799 -10.27656 -10.27549 -10.27253
 Alpha  occ. eigenvalues --  -10.27241 -10.27207 -10.27085 -10.27065 -10.26994
 Alpha  occ. eigenvalues --  -10.26862 -10.26726 -10.26592 -10.26560 -10.26524
 Alpha  occ. eigenvalues --  -10.26451 -10.26252 -10.26073 -10.26053 -10.25858
 Alpha  occ. eigenvalues --  -10.25839 -10.25744 -10.25732 -10.25459 -10.25156
 Alpha  occ. eigenvalues --  -10.25027 -10.24350 -10.24098 -10.22482  -1.19914
 Alpha  occ. eigenvalues --   -1.11847  -1.07794  -1.06575  -0.93158  -0.92917
 Alpha  occ. eigenvalues --   -0.91444  -0.90573  -0.90184  -0.88958  -0.87052
 Alpha  occ. eigenvalues --   -0.86461  -0.85490  -0.85233  -0.83976  -0.82777
 Alpha  occ. eigenvalues --   -0.81550  -0.80965  -0.79788  -0.78599  -0.77594
 Alpha  occ. eigenvalues --   -0.77416  -0.76230  -0.75874  -0.75824  -0.75488
 Alpha  occ. eigenvalues --   -0.74948  -0.73446  -0.72850  -0.70121  -0.69482
 Alpha  occ. eigenvalues --   -0.68374  -0.66878  -0.65049  -0.64911  -0.63863
 Alpha  occ. eigenvalues --   -0.63351  -0.62234  -0.61604  -0.61171  -0.59744
 Alpha  occ. eigenvalues --   -0.58338  -0.58105  -0.57660  -0.56837  -0.56471
 Alpha  occ. eigenvalues --   -0.55537  -0.55218  -0.54898  -0.54463  -0.54180
 Alpha  occ. eigenvalues --   -0.53785  -0.53046  -0.52881  -0.52792  -0.52030
 Alpha  occ. eigenvalues --   -0.51917  -0.51271  -0.50904  -0.49952  -0.49620
 Alpha  occ. eigenvalues --   -0.49472  -0.49239  -0.49093  -0.48749  -0.48641
 Alpha  occ. eigenvalues --   -0.48416  -0.48200  -0.48000  -0.47201  -0.47113
 Alpha  occ. eigenvalues --   -0.46654  -0.46328  -0.46144  -0.45585  -0.45219
 Alpha  occ. eigenvalues --   -0.44395  -0.44016  -0.43690  -0.43582  -0.43523
 Alpha  occ. eigenvalues --   -0.43156  -0.42951  -0.42649  -0.42557  -0.42333
 Alpha  occ. eigenvalues --   -0.42050  -0.41836  -0.41491  -0.40944  -0.40888
 Alpha  occ. eigenvalues --   -0.40670  -0.40410  -0.40354  -0.40139  -0.39877
 Alpha  occ. eigenvalues --   -0.39605  -0.39552  -0.39135  -0.39064  -0.38685
 Alpha  occ. eigenvalues --   -0.38576  -0.38122  -0.38041  -0.37631  -0.37341
 Alpha  occ. eigenvalues --   -0.36718  -0.36474  -0.35332  -0.34510  -0.34021
 Alpha  occ. eigenvalues --   -0.33044  -0.32375  -0.31833  -0.31477  -0.31105
 Alpha  occ. eigenvalues --   -0.28555  -0.27867  -0.24766  -0.18410
 Alpha virt. eigenvalues --   -0.07373  -0.00520   0.03202   0.05287   0.06683
 Alpha virt. eigenvalues --    0.06941   0.08740   0.10913   0.11574   0.11933
 Alpha virt. eigenvalues --    0.12427   0.12482   0.12669   0.13027   0.13362

 Mulliken charges:
               1
     1  O   -0.469835
     2  O   -0.550451
     3  O   -0.579012
     4  O   -0.523531
     5  C    0.230186
     6  C    0.204796
     7  C    0.021796
     8  C   -0.209293
     9  C   -0.179343
    10  C    0.164992
    11  C   -0.291720
    12  C   -0.122114
    13  C   -0.317710
    14  C   -0.301893
    15  C   -0.093439
    16  C    0.052145
    17  C   -0.368089
    18  C   -0.075759
    19  C   -0.086390
    20  C   -0.026931
    21  C    0.222487
    22  C   -0.194632
    23  C    0.150828
    24  C   -0.172325
    25  C   -0.020704
    26  C   -0.286637
    27  C   -0.292762
    28  C   -0.312215
    29  C   -0.148032
    30  C    0.164716
    31  C    0.149501
    32  C   -0.331102
    33  C   -0.362063
    34  C   -0.105499
    35  C    0.070847
    36  C   -0.361023
    37  C   -0.079682
    38  C   -0.107385
    39  C   -0.089327
    40  C   -0.069719
    41  C   -0.125908
    42  C   -0.128205
    43  C    0.101629
    44  C   -0.367806
    45  H    0.107887
    46  H    0.090735
    47  H    0.105879
    48  H    0.099460
    49  H    0.092026
    50  H    0.030696
    51  H    0.124094
    52  H    0.126576
    53  H    0.113498
    54  H    0.123488
    55  H    0.115354
    56  H    0.062461
    57  H    0.116174
    58  H    0.071086
    59  H    0.111843
    60  H    0.302493
    61  H    0.075241
    62  H    0.135456
    63  H    0.119780
    64  H    0.096341
    65  H    0.081677
    66  H    0.080761
    67  H    0.084743
    68  H    0.117049
    69  H    0.084287
    70  H    0.119643
    71  H    0.091077
    72  H    0.101390
    73  H    0.114482
    74  H    0.079209
    75  H    0.117778
    76  H    0.111961
    77  H    0.074579
    78  H    0.116402
    79  H    0.098369
    80  H    0.129759
    81  H    0.079974
    82  H    0.306917
    83  H    0.307404
    84  H    0.106600
    85  H    0.110895
    86  H    0.125245
    87  H    0.082165
    88  H    0.078706
    89  H    0.102509
    90  H    0.150654
    91  H    0.137975
    92  H    0.072075
    93  H    0.069630
    94  H    0.069509
    95  H    0.080268
    96  H    0.069166
    97  H    0.093455
    98  H    0.103356
    99  H    0.139176
   100  H    0.107209
 Sum of Mulliken charges =  -0.00000

 Dipole moment (field-independent basis, Debye):
    X=              4.3794    Y=              0.4417    Z=              1.6779  Tot=              4.7105
 Quadrupole moment (field-independent basis, Debye-Ang):
   XX=           -271.0531   YY=           -262.9088   ZZ=           -277.7364
   XY=             -1.3556   XZ=             33.9143   YZ=             -4.1803

 Normal termination of Gaussian 16 at Fri Aug  2 10:52:10 2019.
