 Gaussian 16, Revision A.03,
 Gaussian 16:  ES64L-G16RevA.03 25-Dec-2016

 -------------------------------------
 # td=(NStates=1) CAM-B3LYP/6-31G(d,p)
 -------------------------------------

 --
 TD
 --
 Symbolic Z-matrix:
 Charge =  0 Multiplicity = 1

                         Standard orientation:
 ---------------------------------------------------------------------
 Center     Atomic      Atomic             Coordinates (Angstroms)
 Number     Number       Type             X           Y           Z
 ---------------------------------------------------------------------
      1          8           0      -11.624007    0.450003   -1.318603
      2          8           0      -12.923059   -2.860381    1.023667
      3          8           0       10.689249   -1.003116   -2.147772
      4          8           0       14.462155   -1.047424   -0.008799
      5          6           0      -10.980472   -0.205558   -0.320693
      6          6           0      -11.510288   -1.090528   -1.336389
      7          6           0      -11.654864    0.140236    1.073476
      8          6           0      -12.999350   -1.660394   -1.105704
      9          6           0      -13.096260   -0.340194    0.981218
     10          6           0      -13.446471   -1.697665    0.342962
     11          6           0      -10.725442   -1.575317   -2.424980
     12          6           0       -9.505640    0.071223   -0.322005
     13          6           0      -10.929874   -0.464359    2.250910
     14          6           0      -11.762067    1.668001    1.353859
     15          6           0       -8.582245   -0.754093    0.170911
     16          6           0       -7.161936   -0.506492    0.216889
     17          6           0       -6.281784   -1.727944    0.361835
     18          6           0       -6.608836    0.808744    0.064304
     19          6           0       -5.238012    1.008459   -0.024121
     20          6           0       11.804285   -0.004738    1.324265
     21          6           0       11.701047   -0.637384   -1.224770
     22          6           0       12.503058   -1.381929    1.474576
     23          6           0       13.391154   -1.892575    0.340855
     24          6           0       12.476403   -1.925926   -0.988440
     25          6           0       11.062907   -0.011020    0.008804
     26          6           0       10.821407    0.201363    2.586287
     27          6           0       12.885874    1.145623    1.392885
     28          6           0       12.594904    0.410460   -2.000317
     29          6           0       -4.797098    2.349698   -0.344941
     30          6           0        9.824681    0.481203   -0.038768
     31          6           0       -3.368496    2.716803   -0.363033
     32          6           0        8.604378    0.855779   -0.168523
     33          6           0       -3.104027    4.163302   -0.724147
     34          6           0       -2.340184    1.754011   -0.249414
     35          6           0        7.367066    0.006607   -0.075826
     36          6           0        7.589971   -1.426574   -0.009306
     37          6           0        6.181710    0.676445    0.010195
     38          6           0       -1.003079    2.066138   -0.287003
     39          6           0        4.866456    0.187697   -0.028626
     40          6           0       -0.040416    1.119836   -0.157980
     41          6           0        3.729594    0.920471    0.027436
     42          6           0        1.341949    1.424041   -0.096150
     43          6           0        2.311529    0.448668    0.026277
     44          6           0        2.118121   -1.050928    0.087532
     45          1           0      -12.904056   -2.719954   -1.358431
     46          1           0      -13.563901   -1.158229   -1.747096
     47          1           0      -13.327049   -0.351021    1.989370
     48          1           0      -13.882257    0.216674    0.408501
     49          1           0      -14.441445   -1.927997    0.259517
     50          1           0      -10.138703   -2.546840   -2.349425
     51          1           0      -11.524701   -1.629601   -3.263783
     52          1           0       -9.918498   -0.988271   -2.751684
     53          1           0       -9.203862    1.105380   -0.919663
     54          1           0       -9.864940   -0.264769    2.502531
     55          1           0      -11.255338   -0.154266    3.322860
     56          1           0      -11.009121   -1.515785    2.167276
     57          1           0      -12.156931    2.053752    0.496256
     58          1           0      -12.391876    2.342353    2.168768
     59          1           0      -10.749514    1.996503    1.413425
     60          1           0      -11.949965   -2.955122    0.939447
     61          1           0       -8.804746   -1.644339    0.747826
     62          1           0       -5.973391   -2.089242   -0.771560
     63          1           0       -5.365558   -1.604230    1.107913
     64          1           0       -6.907719   -2.503608    0.961164
     65          1           0       -7.217931    1.700487   -0.126104
     66          1           0       -4.529435    0.094100    0.112983
     67          1           0       13.337057   -1.513112    2.332328
     68          1           0       11.818569   -2.193767    1.564196
     69          1           0       13.880956   -2.877341    0.461968
     70          1           0       13.089465   -2.171606   -1.798925
     71          1           0       11.682509   -2.636743   -0.676781
     72          1           0       11.298182   -0.016286    3.607148
     73          1           0       10.623085    1.275622    2.688142
     74          1           0        9.865261   -0.542372    2.484731
     75          1           0       13.590491    1.026492    0.728102
     76          1           0       12.392570    2.185647    1.021935
     77          1           0       13.228353    1.275961    2.381168
     78          1           0       13.037114    0.014624   -2.998459
     79          1           0       11.969045    1.293774   -2.228303
     80          1           0       13.495047    0.680560   -1.355645
     81          1           0       -5.526270    3.088945   -0.535077
     82          1           0       10.133713   -0.190275   -2.030447
     83          1           0       15.181469   -1.072151    0.723542
     84          1           0        8.580593    2.018280   -0.332967
     85          1           0       -2.742648    4.658899    0.266027
     86          1           0       -2.425205    4.307121   -1.439040
     87          1           0       -4.029643    4.582671   -0.916848
     88          1           0       -2.644194    0.648092   -0.238499
     89          1           0        6.517121   -1.823064    0.103516
     90          1           0        8.187750   -1.936722   -0.876344
     91          1           0        8.134521   -1.711298    1.009880
     92          1           0        6.093791    1.768742    0.018684
     93          1           0       -0.925360    2.980213   -0.769441
     94          1           0        4.549812   -0.854071    0.033901
     95          1           0       -0.288002    0.114785    0.258248
     96          1           0        4.042821    1.997004   -0.096346
     97          1           0        1.802319    2.390733   -0.353442
     98          1           0        1.024791   -1.216255    0.158534
     99          1           0        2.574600   -1.435728   -0.693501
    100          1           0        2.458634   -1.513137    0.973942
 ---------------------------------------------------------------------

 SCF Done:  E(RCAM-B3LYP) =  -1857.35996138     A.U. after   15 cycles

 Excitation energies and oscillator strengths:

 Excited State   1:      Singlet-A      2.2302 eV  555.92 nm  f=2.6437  <S**2>=0.000
     163 ->166        -0.13250
     164 ->165         0.69590
 This state for optimization and/or second-order correction.
 Total Energy, E(TD-HF/TD-DFT) =  -1857.27800130
 Copying the excited state density for this state as the 1-particle RhoCI density.

 The electronic state is 1-A.
 Alpha  occ. eigenvalues --  -19.21850 -19.21786 -19.21128 -19.19923 -10.32906
 Alpha  occ. eigenvalues --  -10.31814 -10.31129 -10.30833 -10.30187 -10.29095
 Alpha  occ. eigenvalues --  -10.28911 -10.28138 -10.28077 -10.28000 -10.27838
 Alpha  occ. eigenvalues --  -10.27794 -10.27642 -10.27565 -10.27217 -10.27133
 Alpha  occ. eigenvalues --  -10.27092 -10.27024 -10.26617 -10.26571 -10.26492
 Alpha  occ. eigenvalues --  -10.26435 -10.26431 -10.26419 -10.26393 -10.26355
 Alpha  occ. eigenvalues --  -10.26275 -10.26249 -10.25829 -10.25557 -10.25384
 Alpha  occ. eigenvalues --  -10.25234 -10.24993 -10.24795 -10.24687 -10.24295
 Alpha  occ. eigenvalues --  -10.24251 -10.24239 -10.24237 -10.23864  -1.15553
 Alpha  occ. eigenvalues --   -1.09524  -1.09064  -1.08360  -0.92470  -0.92062
 Alpha  occ. eigenvalues --   -0.91573  -0.91096  -0.90507  -0.89855  -0.87705
 Alpha  occ. eigenvalues --   -0.87421  -0.86029  -0.84939  -0.84149  -0.83442
 Alpha  occ. eigenvalues --   -0.82846  -0.81097  -0.80307  -0.79630  -0.76851
 Alpha  occ. eigenvalues --   -0.76692  -0.76427  -0.76322  -0.75714  -0.74948
 Alpha  occ. eigenvalues --   -0.74368  -0.73933  -0.73178  -0.71068  -0.69031
 Alpha  occ. eigenvalues --   -0.67943  -0.66761  -0.66091  -0.64611  -0.64182
 Alpha  occ. eigenvalues --   -0.63722  -0.61690  -0.60792  -0.60592  -0.59930
 Alpha  occ. eigenvalues --   -0.59210  -0.57760  -0.57304  -0.56993  -0.56638
 Alpha  occ. eigenvalues --   -0.56039  -0.55593  -0.54906  -0.54598  -0.53994
 Alpha  occ. eigenvalues --   -0.53529  -0.53483  -0.53018  -0.52097  -0.51532
 Alpha  occ. eigenvalues --   -0.51354  -0.51179  -0.50896  -0.50433  -0.50317
 Alpha  occ. eigenvalues --   -0.49641  -0.49504  -0.49006  -0.48806  -0.48249
 Alpha  occ. eigenvalues --   -0.47814  -0.47722  -0.47634  -0.47167  -0.46734
 Alpha  occ. eigenvalues --   -0.46414  -0.46147  -0.45994  -0.45418  -0.45068
 Alpha  occ. eigenvalues --   -0.44968  -0.44427  -0.44125  -0.43654  -0.43533
 Alpha  occ. eigenvalues --   -0.43392  -0.43123  -0.42751  -0.42717  -0.42402
 Alpha  occ. eigenvalues --   -0.42205  -0.41739  -0.41560  -0.41456  -0.41347
 Alpha  occ. eigenvalues --   -0.41098  -0.41066  -0.40424  -0.39949  -0.39894
 Alpha  occ. eigenvalues --   -0.39825  -0.39415  -0.39161  -0.38875  -0.38586
 Alpha  occ. eigenvalues --   -0.38557  -0.38448  -0.38031  -0.37833  -0.37534
 Alpha  occ. eigenvalues --   -0.36322  -0.35543  -0.34819  -0.34490  -0.33861
 Alpha  occ. eigenvalues --   -0.32285  -0.32027  -0.31759  -0.31335  -0.31075
 Alpha  occ. eigenvalues --   -0.29063  -0.27983  -0.24388  -0.19673
 Alpha virt. eigenvalues --   -0.05530  -0.00737   0.03426   0.06013   0.07303
 Alpha virt. eigenvalues --    0.09598   0.09972   0.10374   0.11278   0.11501
 Alpha virt. eigenvalues --    0.11901   0.12419   0.12909   0.13240   0.13616

 Mulliken charges:
               1
     1  O   -0.512234
     2  O   -0.566404
     3  O   -0.556170
     4  O   -0.543964
     5  C    0.231762
     6  C    0.196607
     7  C    0.018970
     8  C   -0.211736
     9  C   -0.167189
    10  C    0.155101
    11  C   -0.342209
    12  C   -0.123978
    13  C   -0.318372
    14  C   -0.314735
    15  C   -0.062563
    16  C    0.045581
    17  C   -0.361403
    18  C   -0.091329
    19  C   -0.051730
    20  C    0.022874
    21  C    0.242356
    22  C   -0.171919
    23  C    0.132451
    24  C   -0.175344
    25  C   -0.053976
    26  C   -0.303576
    27  C   -0.300287
    28  C   -0.295253
    29  C   -0.150041
    30  C    0.144201
    31  C    0.060496
    32  C   -0.307968
    33  C   -0.367333
    34  C   -0.109765
    35  C    0.127326
    36  C   -0.375389
    37  C   -0.099197
    38  C   -0.055174
    39  C   -0.077966
    40  C   -0.115591
    41  C   -0.124582
    42  C   -0.097619
    43  C    0.072159
    44  C   -0.367491
    45  H    0.109376
    46  H    0.131738
    47  H    0.107220
    48  H    0.099353
    49  H    0.110741
    50  H    0.112481
    51  H    0.108166
    52  H    0.142859
    53  H    0.099503
    54  H    0.115197
    55  H    0.096083
    56  H    0.081859
    57  H    0.129850
    58  H    0.093246
    59  H    0.100207
    60  H    0.302021
    61  H    0.076446
    62  H    0.118230
    63  H    0.112535
    64  H    0.099053
    65  H    0.085320
    66  H    0.093858
    67  H    0.055566
    68  H    0.106066
    69  H    0.080522
    70  H    0.114414
    71  H    0.100792
    72  H    0.093218
    73  H    0.112943
    74  H    0.091354
    75  H    0.134040
    76  H    0.071169
    77  H    0.103843
    78  H    0.098911
    79  H    0.082043
    80  H    0.117769
    81  H    0.088653
    82  H    0.299523
    83  H    0.303258
    84  H    0.106940
    85  H    0.114976
    86  H    0.135410
    87  H    0.115890
    88  H    0.071611
    89  H    0.103738
    90  H    0.139932
    91  H    0.110045
    92  H    0.082566
    93  H    0.084124
    94  H    0.065775
    95  H    0.086487
    96  H    0.062114
    97  H    0.089065
    98  H    0.100511
    99  H    0.143979
   100  H    0.130008
 Sum of Mulliken charges =  -0.00000

 Dipole moment (field-independent basis, Debye):
    X=              0.3677    Y=             -0.4316    Z=              1.5953  Tot=              1.6930
 Quadrupole moment (field-independent basis, Debye-Ang):
   XX=           -272.6290   YY=           -260.5845   ZZ=           -277.1594
   XY=             -3.5211   XZ=             42.6865   YZ=             -2.3864

 Normal termination of Gaussian 16 at Wed Jul 31 14:48:30 2019.
