 Gaussian 16, Revision A.03,
 Gaussian 16:  ES64L-G16RevA.03 25-Dec-2016

 -------------------------------------
 # td=(NStates=1) CAM-B3LYP/6-31G(d,p)
 -------------------------------------

 --
 TD
 --
 Symbolic Z-matrix:
 Charge =  0 Multiplicity = 1

                         Standard orientation:
 ---------------------------------------------------------------------
 Center     Atomic      Atomic             Coordinates (Angstroms)
 Number     Number       Type             X           Y           Z
 ---------------------------------------------------------------------
      1          8           0      -11.883944    0.315692   -1.517155
      2          8           0      -13.030309   -2.424520    1.424259
      3          8           0       10.494059   -1.042370   -2.074811
      4          8           0       14.441218   -0.949417   -0.068023
      5          6           0      -11.043423   -0.127876   -0.366549
      6          6           0      -11.624008   -1.072866   -1.237409
      7          6           0      -11.758738    0.305632    0.945975
      8          6           0      -13.012299   -1.729676   -0.883284
      9          6           0      -13.341149    0.027627    0.909160
     10          6           0      -13.548691   -1.451000    0.507379
     11          6           0      -10.695801   -1.837156   -2.215411
     12          6           0       -9.659017    0.253588   -0.293236
     13          6           0      -11.118289   -0.139436    2.335488
     14          6           0      -11.779304    1.972199    1.071869
     15          6           0       -8.744812   -0.665853   -0.039561
     16          6           0       -7.302552   -0.580504    0.106960
     17          6           0       -6.478801   -1.889744    0.430771
     18          6           0       -6.586757    0.608706   -0.072736
     19          6           0       -5.181036    0.749994   -0.126020
     20          6           0       11.930136    0.024963    1.368134
     21          6           0       11.544102   -0.619011   -1.218500
     22          6           0       12.578582   -1.319663    1.474976
     23          6           0       13.399377   -1.807852    0.279443
     24          6           0       12.398665   -1.912403   -0.901183
     25          6           0       10.979370    0.010558    0.115645
     26          6           0       11.018483    0.263252    2.657380
     27          6           0       12.848978    1.197481    1.271234
     28          6           0       12.322983    0.396136   -2.036024
     29          6           0       -4.647737    2.023758   -0.304059
     30          6           0        9.888966    0.662752   -0.013684
     31          6           0       -3.305680    2.398160   -0.419025
     32          6           0        8.631824    1.132347   -0.143565
     33          6           0       -2.876025    3.843157   -0.794227
     34          6           0       -2.264798    1.445093   -0.288648
     35          6           0        7.478676    0.169689    0.084500
     36          6           0        7.765640   -1.209253    0.113855
     37          6           0        6.288858    0.836368    0.051213
     38          6           0       -0.896701    1.777983   -0.473663
     39          6           0        5.058812    0.145479    0.047070
     40          6           0        0.134183    0.858867   -0.117599
     41          6           0        3.844435    0.842264   -0.094436
     42          6           0        1.441124    1.192444   -0.252579
     43          6           0        2.518956    0.259376   -0.030535
     44          6           0        2.393756   -1.189005    0.118051
     45          1           0      -12.973415   -2.794542   -1.146415
     46          1           0      -13.749035   -1.645280   -1.672064
     47          1           0      -13.753740    0.358718    1.822172
     48          1           0      -13.709918    0.768415    0.207887
     49          1           0      -14.642812   -1.614556    0.573057
     50          1           0      -10.439643   -2.870780   -1.730364
     51          1           0      -11.220643   -2.063915   -3.298094
     52          1           0       -9.716994   -1.493821   -2.283190
     53          1           0       -9.365718    1.372145   -0.447765
     54          1           0      -10.282928    0.228300    2.323507
     55          1           0      -11.708534    0.075787    3.288775
     56          1           0      -11.095788   -1.349596    2.374069
     57          1           0      -12.201247    2.224635    0.222164
     58          1           0      -12.149204    2.207326    2.040975
     59          1           0      -10.734558    2.552740    1.214002
     60          1           0      -12.047156   -2.306375    1.377651
     61          1           0       -9.165306   -1.709760    0.084065
     62          1           0       -5.881512   -2.210269   -0.477640
     63          1           0       -5.805519   -1.541360    1.160276
     64          1           0       -7.040904   -2.724633    0.693675
     65          1           0       -7.216948    1.480478   -0.228891
     66          1           0       -4.341668    0.088294   -0.031397
     67          1           0       13.177289   -1.115670    2.267981
     68          1           0       11.760993   -2.002673    1.892045
     69          1           0       13.843368   -2.759281    0.554828
     70          1           0       12.991169   -2.326208   -1.717707
     71          1           0       11.662570   -2.801456   -0.605473
     72          1           0       11.800486    0.242597    3.303920
     73          1           0       10.571886    1.279182    2.897827
     74          1           0       10.375398   -0.618425    2.771922
     75          1           0       13.482054    1.070740    0.392410
     76          1           0       12.517551    2.220616    1.144704
     77          1           0       13.396137    1.193653    2.362456
     78          1           0       12.633563    0.045754   -2.933316
     79          1           0       11.683325    1.079041   -2.144453
     80          1           0       13.343997    0.761727   -1.856312
     81          1           0       -5.250166    2.890523   -0.679014
     82          1           0        9.879672   -0.315204   -2.122745
     83          1           0       15.280883   -1.277655    0.554383
     84          1           0        8.465962    2.082425   -0.482792
     85          1           0       -2.388471    4.328547    0.057386
     86          1           0       -2.295444    3.784334   -1.702161
     87          1           0       -3.782247    4.346625   -1.338042
     88          1           0       -2.411459    0.400182   -0.144926
     89          1           0        6.941863   -1.868099   -0.133538
     90          1           0        8.666122   -1.506379   -0.428416
     91          1           0        8.190871   -1.530082    1.033013
     92          1           0        6.295234    1.993213   -0.182788
     93          1           0       -0.936074    2.856756   -0.671397
     94          1           0        5.126745   -0.838913    0.436343
     95          1           0       -0.129848   -0.325378    0.214427
     96          1           0        3.874332    1.867950   -0.244823
     97          1           0        1.610970    2.123824   -0.526446
     98          1           0        1.372187   -1.396174    0.196020
     99          1           0        2.842228   -1.782299   -0.781680
    100          1           0        2.880110   -1.410283    1.032715
 ---------------------------------------------------------------------

 SCF Done:  E(RCAM-B3LYP) =  -1857.30029246     A.U. after   15 cycles

 Excitation energies and oscillator strengths:

 Excited State   1:      Singlet-A      1.9687 eV  629.76 nm  f=3.1091  <S**2>=0.000
     163 ->166         0.12573
     164 ->165         0.70142
     164 <-165        -0.11541
 This state for optimization and/or second-order correction.
 Total Energy, E(TD-HF/TD-DFT) =  -1857.22794229
 Copying the excited state density for this state as the 1-particle RhoCI density.

 The electronic state is 1-A.
 Alpha  occ. eigenvalues --  -19.23751 -19.21418 -19.21093 -19.20556 -10.32744
 Alpha  occ. eigenvalues --  -10.32426 -10.31657 -10.31579 -10.30400 -10.28411
 Alpha  occ. eigenvalues --  -10.28134 -10.28103 -10.27953 -10.27577 -10.27460
 Alpha  occ. eigenvalues --  -10.27153 -10.26869 -10.26866 -10.26819 -10.26795
 Alpha  occ. eigenvalues --  -10.26500 -10.26469 -10.26415 -10.26372 -10.26320
 Alpha  occ. eigenvalues --  -10.26308 -10.26303 -10.26241 -10.26207 -10.26192
 Alpha  occ. eigenvalues --  -10.25828 -10.25797 -10.25615 -10.25289 -10.25195
 Alpha  occ. eigenvalues --  -10.25121 -10.25054 -10.24856 -10.24743 -10.24474
 Alpha  occ. eigenvalues --  -10.24320 -10.24196 -10.24178 -10.21601  -1.13701
 Alpha  occ. eigenvalues --   -1.10608  -1.10225  -1.08174  -0.93246  -0.92365
 Alpha  occ. eigenvalues --   -0.91845  -0.91203  -0.90532  -0.88608  -0.87191
 Alpha  occ. eigenvalues --   -0.86248  -0.85669  -0.85013  -0.84529  -0.83302
 Alpha  occ. eigenvalues --   -0.82191  -0.81312  -0.79987  -0.79259  -0.78364
 Alpha  occ. eigenvalues --   -0.76942  -0.76576  -0.76494  -0.76247  -0.76016
 Alpha  occ. eigenvalues --   -0.75182  -0.75048  -0.72349  -0.70664  -0.69870
 Alpha  occ. eigenvalues --   -0.68405  -0.66713  -0.65955  -0.64856  -0.64432
 Alpha  occ. eigenvalues --   -0.62989  -0.62133  -0.61113  -0.60506  -0.59487
 Alpha  occ. eigenvalues --   -0.58984  -0.58437  -0.58163  -0.58036  -0.57036
 Alpha  occ. eigenvalues --   -0.56737  -0.56136  -0.55673  -0.54386  -0.54033
 Alpha  occ. eigenvalues --   -0.53690  -0.53304  -0.53153  -0.51506  -0.51479
 Alpha  occ. eigenvalues --   -0.51222  -0.51120  -0.51065  -0.50593  -0.50349
 Alpha  occ. eigenvalues --   -0.49917  -0.49843  -0.49417  -0.49155  -0.48236
 Alpha  occ. eigenvalues --   -0.47793  -0.47559  -0.47476  -0.47247  -0.47140
 Alpha  occ. eigenvalues --   -0.46701  -0.46525  -0.46316  -0.46172  -0.45538
 Alpha  occ. eigenvalues --   -0.45123  -0.44895  -0.44683  -0.44264  -0.44013
 Alpha  occ. eigenvalues --   -0.43858  -0.43185  -0.43038  -0.42613  -0.42285
 Alpha  occ. eigenvalues --   -0.42110  -0.41745  -0.41297  -0.41030  -0.40916
 Alpha  occ. eigenvalues --   -0.40670  -0.40553  -0.40459  -0.40292  -0.40192
 Alpha  occ. eigenvalues --   -0.40071  -0.39383  -0.39129  -0.39004  -0.38841
 Alpha  occ. eigenvalues --   -0.38373  -0.38044  -0.37791  -0.37398  -0.37244
 Alpha  occ. eigenvalues --   -0.36409  -0.36050  -0.34725  -0.34226  -0.33842
 Alpha  occ. eigenvalues --   -0.32763  -0.32320  -0.31493  -0.31106  -0.31047
 Alpha  occ. eigenvalues --   -0.30451  -0.27692  -0.24062  -0.18736
 Alpha virt. eigenvalues --   -0.06529  -0.00483   0.03549   0.06895   0.07146
 Alpha virt. eigenvalues --    0.07487   0.09940   0.10320   0.11681   0.12032
 Alpha virt. eigenvalues --    0.12275   0.12449   0.13813   0.14334   0.14384

 Mulliken charges:
               1
     1  O   -0.508854
     2  O   -0.547074
     3  O   -0.549966
     4  O   -0.533574
     5  C    0.200403
     6  C    0.254604
     7  C   -0.037007
     8  C   -0.203822
     9  C   -0.171332
    10  C    0.138516
    11  C   -0.338802
    12  C   -0.102584
    13  C   -0.273559
    14  C   -0.313964
    15  C   -0.089141
    16  C    0.047952
    17  C   -0.361281
    18  C   -0.109873
    19  C   -0.063256
    20  C   -0.013436
    21  C    0.232030
    22  C   -0.158207
    23  C    0.138308
    24  C   -0.182468
    25  C   -0.072802
    26  C   -0.300801
    27  C   -0.286309
    28  C   -0.280375
    29  C   -0.104105
    30  C    0.096212
    31  C    0.039454
    32  C   -0.251923
    33  C   -0.391850
    34  C   -0.086864
    35  C    0.149107
    36  C   -0.413262
    37  C   -0.110410
    38  C   -0.106618
    39  C   -0.105420
    40  C   -0.100781
    41  C   -0.107249
    42  C   -0.073139
    43  C    0.076267
    44  C   -0.355386
    45  H    0.101537
    46  H    0.116396
    47  H    0.099241
    48  H    0.116727
    49  H    0.094762
    50  H    0.090042
    51  H    0.100609
    52  H    0.139515
    53  H    0.109126
    54  H    0.123421
    55  H    0.109285
    56  H    0.045611
    57  H    0.134465
    58  H    0.111552
    59  H    0.064445
    60  H    0.300512
    61  H    0.071779
    62  H    0.113531
    63  H    0.132912
    64  H    0.111135
    65  H    0.084438
    66  H    0.089783
    67  H    0.081615
    68  H    0.094199
    69  H    0.082173
    70  H    0.105544
    71  H    0.088539
    72  H    0.101856
    73  H    0.110873
    74  H    0.098665
    75  H    0.139713
    76  H    0.108843
    77  H    0.055814
    78  H    0.116557
    79  H    0.091869
    80  H    0.112807
    81  H    0.068556
    82  H    0.304149
    83  H    0.315370
    84  H    0.103031
    85  H    0.143215
    86  H    0.140781
    87  H    0.099500
    88  H    0.076991
    89  H    0.115758
    90  H    0.143678
    91  H    0.127857
    92  H    0.077710
    93  H    0.085598
    94  H    0.090828
    95  H    0.077826
    96  H    0.075742
    97  H    0.077847
    98  H    0.103916
    99  H    0.123640
   100  H    0.130757
 Sum of Mulliken charges =  -0.00000

 Dipole moment (field-independent basis, Debye):
    X=              7.4419    Y=             -0.3508    Z=              1.4332  Tot=              7.5868
 Quadrupole moment (field-independent basis, Debye-Ang):
   XX=           -265.5041   YY=           -258.5821   ZZ=           -277.3324
   XY=            -16.1508   XZ=             25.3933   YZ=             -2.0798

 Normal termination of Gaussian 16 at Mon Jul 29 12:29:25 2019.
