 Gaussian 16, Revision A.03,
 Gaussian 16:  ES64L-G16RevA.03 25-Dec-2016

 -------------------------------------
 # td=(NStates=1) CAM-B3LYP/6-31G(d,p)
 -------------------------------------

 --
 TD
 --
 Symbolic Z-matrix:
 Charge =  0 Multiplicity = 1

                         Standard orientation:
 ---------------------------------------------------------------------
 Center     Atomic      Atomic             Coordinates (Angstroms)
 Number     Number       Type             X           Y           Z
 ---------------------------------------------------------------------
      1          8           0      -11.725358    0.226663   -1.476457
      2          8           0      -13.039315   -2.272127    1.555724
      3          8           0       10.628945   -1.135691   -1.972910
      4          8           0       14.614075   -0.904263   -0.090648
      5          6           0      -11.074725   -0.177443   -0.237544
      6          6           0      -11.669983   -1.160673   -1.146681
      7          6           0      -11.668748    0.362365    0.984171
      8          6           0      -13.032789   -1.842856   -0.757513
      9          6           0      -13.292782   -0.058667    0.937005
     10          6           0      -13.522799   -1.471985    0.584104
     11          6           0      -10.870129   -2.051597   -2.071760
     12          6           0       -9.603335    0.058638   -0.341764
     13          6           0      -11.008433   -0.018619    2.253002
     14          6           0      -11.641887    1.941455    0.873447
     15          6           0       -8.575673   -0.808903   -0.001264
     16          6           0       -7.205022   -0.644948    0.084437
     17          6           0       -6.283787   -1.836535    0.139911
     18          6           0       -6.634833    0.614301   -0.194963
     19          6           0       -5.283926    0.970659   -0.181427
     20          6           0       11.903887    0.154169    1.410826
     21          6           0       11.722101   -0.584033   -1.161314
     22          6           0       12.738206   -1.206415    1.575684
     23          6           0       13.467873   -1.785898    0.320000
     24          6           0       12.573134   -1.862144   -0.889704
     25          6           0       11.080553   -0.001691    0.151320
     26          6           0       10.909993    0.197398    2.660110
     27          6           0       12.894630    1.320379    1.337860
     28          6           0       12.469353    0.423207   -2.025139
     29          6           0       -4.712295    2.248701   -0.359714
     30          6           0        9.834121    0.448719    0.101728
     31          6           0       -3.314398    2.528249   -0.478129
     32          6           0        8.529180    0.871121   -0.132036
     33          6           0       -3.039528    4.045609   -0.657137
     34          6           0       -2.290251    1.574566   -0.387777
     35          6           0        7.398972    0.112612   -0.109023
     36          6           0        7.525393   -1.422817    0.069801
     37          6           0        6.197557    0.669142   -0.120998
     38          6           0       -0.976503    1.848794   -0.346230
     39          6           0        4.841255    0.133664   -0.025260
     40          6           0        0.074526    0.894266   -0.228048
     41          6           0        3.732993    0.814668   -0.235600
     42          6           0        1.430417    1.158997   -0.335785
     43          6           0        2.446728    0.244153   -0.108131
     44          6           0        2.204532   -1.225030    0.253448
     45          1           0      -13.040956   -2.942399   -0.949988
     46          1           0      -13.855363   -1.645779   -1.388653
     47          1           0      -13.714468    0.374876    1.901625
     48          1           0      -13.775874    0.662729    0.212335
     49          1           0      -14.628247   -1.521059    0.655860
     50          1           0      -10.396695   -2.871220   -1.587306
     51          1           0      -11.591264   -2.437384   -2.847594
     52          1           0       -9.999920   -1.438209   -2.463718
     53          1           0       -9.423495    1.192889   -0.688455
     54          1           0       -9.965206   -0.032400    2.279535
     55          1           0      -11.496791    0.336246    3.020679
     56          1           0      -10.980442   -1.128727    2.414262
     57          1           0      -12.053439    2.144800   -0.177854
     58          1           0      -12.341005    2.403340    1.602098
     59          1           0      -10.663693    2.222188    1.058156
     60          1           0      -12.009300   -2.335021    1.407427
     61          1           0       -9.087797   -1.638655    0.414277
     62          1           0       -5.551961   -1.933259   -0.703963
     63          1           0       -5.861728   -1.747493    1.295633
     64          1           0       -6.804053   -2.863425    0.255156
     65          1           0       -7.359835    1.481646   -0.407957
     66          1           0       -4.392066    0.214943   -0.234618
     67          1           0       13.376339   -0.895705    2.321827
     68          1           0       11.994984   -1.878926    1.992251
     69          1           0       13.563967   -2.816350    0.497353
     70          1           0       13.190549   -2.041764   -1.814456
     71          1           0       11.704227   -2.619556   -0.784254
     72          1           0       11.664654    0.302623    3.445163
     73          1           0       10.314736    1.132600    2.531527
     74          1           0       10.345672   -0.677490    2.897026
     75          1           0       13.609840    1.389606    0.445096
     76          1           0       12.339582    2.269272    1.522616
     77          1           0       13.374730    1.116813    2.301452
     78          1           0       12.777149   -0.025280   -3.144744
     79          1           0       12.165994    1.444475   -2.306685
     80          1           0       13.566344    0.539626   -1.539069
     81          1           0       -5.296891    3.322586   -0.406468
     82          1           0        9.882856   -0.380516   -2.235363
     83          1           0       15.385775   -1.092572    0.639997
     84          1           0        8.471661    1.829313   -0.301936
     85          1           0       -2.404066    4.811656    0.133045
     86          1           0       -2.493379    4.480236   -1.401926
     87          1           0       -4.123559    4.580045   -0.734627
     88          1           0       -2.597670    0.589046   -0.455466
     89          1           0        6.762767   -2.023290   -0.393530
     90          1           0        8.432177   -1.773475   -0.245869
     91          1           0        7.575502   -1.628898    1.245954
     92          1           0        6.229100    1.728172   -0.185986
     93          1           0       -0.743220    2.829782   -0.752906
     94          1           0        4.760285   -0.952624    0.111312
     95          1           0       -0.368100   -0.010777    0.098261
     96          1           0        3.933723    1.832770   -0.477506
     97          1           0        1.797579    2.353025   -0.520906
     98          1           0        1.217033   -1.193649    0.882749
     99          1           0        2.212188   -1.680332   -0.856318
    100          1           0        2.902819   -1.529220    1.076289
 ---------------------------------------------------------------------

 SCF Done:  E(RCAM-B3LYP) =  -1857.29831775     A.U. after   16 cycles

 Excitation energies and oscillator strengths:

 Excited State   1:      Singlet-A      1.9889 eV  623.37 nm  f=2.9915  <S**2>=0.000
     163 ->166        -0.12641
     164 ->165         0.69996
     164 <-165        -0.10819
 This state for optimization and/or second-order correction.
 Total Energy, E(TD-HF/TD-DFT) =  -1857.22522555
 Copying the excited state density for this state as the 1-particle RhoCI density.

 The electronic state is 1-A.
 Alpha  occ. eigenvalues --  -19.23980 -19.22180 -19.20877 -19.20540 -10.32408
 Alpha  occ. eigenvalues --  -10.32383 -10.31672 -10.31274 -10.29294 -10.28694
 Alpha  occ. eigenvalues --  -10.28340 -10.28195 -10.28162 -10.28037 -10.27868
 Alpha  occ. eigenvalues --  -10.27788 -10.27590 -10.27498 -10.27472 -10.27469
 Alpha  occ. eigenvalues --  -10.27434 -10.27101 -10.27074 -10.26943 -10.26609
 Alpha  occ. eigenvalues --  -10.26491 -10.26448 -10.26115 -10.26091 -10.26061
 Alpha  occ. eigenvalues --  -10.25902 -10.25721 -10.25608 -10.25520 -10.25398
 Alpha  occ. eigenvalues --  -10.25308 -10.25307 -10.25277 -10.25119 -10.25077
 Alpha  occ. eigenvalues --  -10.24998 -10.24739 -10.24198 -10.23097  -1.15087
 Alpha  occ. eigenvalues --   -1.10681  -1.07116  -1.05561  -0.92941  -0.92315
 Alpha  occ. eigenvalues --   -0.91996  -0.91486  -0.90888  -0.90209  -0.87357
 Alpha  occ. eigenvalues --   -0.86575  -0.85734  -0.85148  -0.84039  -0.83047
 Alpha  occ. eigenvalues --   -0.81800  -0.80694  -0.79917  -0.78584  -0.77295
 Alpha  occ. eigenvalues --   -0.77114  -0.76406  -0.76142  -0.75832  -0.75537
 Alpha  occ. eigenvalues --   -0.75243  -0.74983  -0.73428  -0.70600  -0.69518
 Alpha  occ. eigenvalues --   -0.68471  -0.66679  -0.65473  -0.64749  -0.64086
 Alpha  occ. eigenvalues --   -0.63298  -0.61864  -0.60965  -0.60635  -0.59800
 Alpha  occ. eigenvalues --   -0.58684  -0.58068  -0.57862  -0.57151  -0.56003
 Alpha  occ. eigenvalues --   -0.55812  -0.55477  -0.55400  -0.54616  -0.54054
 Alpha  occ. eigenvalues --   -0.53933  -0.53568  -0.52943  -0.52183  -0.51829
 Alpha  occ. eigenvalues --   -0.51356  -0.51259  -0.50621  -0.50149  -0.49732
 Alpha  occ. eigenvalues --   -0.49494  -0.49224  -0.48958  -0.48811  -0.47899
 Alpha  occ. eigenvalues --   -0.47522  -0.47240  -0.46923  -0.46531  -0.46299
 Alpha  occ. eigenvalues --   -0.46031  -0.45810  -0.45386  -0.44824  -0.44755
 Alpha  occ. eigenvalues --   -0.44572  -0.44403  -0.44187  -0.43970  -0.43527
 Alpha  occ. eigenvalues --   -0.43216  -0.42637  -0.42468  -0.42261  -0.42189
 Alpha  occ. eigenvalues --   -0.41759  -0.41652  -0.41529  -0.41372  -0.41174
 Alpha  occ. eigenvalues --   -0.41094  -0.40690  -0.40617  -0.40459  -0.40224
 Alpha  occ. eigenvalues --   -0.40034  -0.39592  -0.39202  -0.39052  -0.38523
 Alpha  occ. eigenvalues --   -0.38288  -0.38271  -0.38031  -0.37172  -0.36566
 Alpha  occ. eigenvalues --   -0.35993  -0.35407  -0.35235  -0.34468  -0.33441
 Alpha  occ. eigenvalues --   -0.33400  -0.32384  -0.31857  -0.31351  -0.30117
 Alpha  occ. eigenvalues --   -0.29465  -0.27314  -0.24206  -0.19253
 Alpha virt. eigenvalues --   -0.06759  -0.01035   0.02526   0.06817   0.07516
 Alpha virt. eigenvalues --    0.08793   0.09292   0.10554   0.11408   0.11720
 Alpha virt. eigenvalues --    0.12370   0.12417   0.12626   0.13274   0.13366

 Mulliken charges:
               1
     1  O   -0.505266
     2  O   -0.527397
     3  O   -0.587660
     4  O   -0.555795
     5  C    0.175985
     6  C    0.264162
     7  C   -0.004116
     8  C   -0.223171
     9  C   -0.186718
    10  C    0.149297
    11  C   -0.341514
    12  C   -0.099884
    13  C   -0.290974
    14  C   -0.316537
    15  C   -0.095453
    16  C    0.095735
    17  C   -0.362374
    18  C   -0.109637
    19  C   -0.087865
    20  C   -0.035619
    21  C    0.280422
    22  C   -0.180776
    23  C    0.139855
    24  C   -0.206857
    25  C   -0.030434
    26  C   -0.307642
    27  C   -0.287509
    28  C   -0.324028
    29  C   -0.113284
    30  C    0.071649
    31  C    0.102388
    32  C   -0.255664
    33  C   -0.372557
    34  C   -0.097096
    35  C    0.167810
    36  C   -0.370203
    37  C   -0.143186
    38  C   -0.084878
    39  C   -0.096917
    40  C   -0.100195
    41  C   -0.065167
    42  C   -0.112757
    43  C    0.078614
    44  C   -0.355682
    45  H    0.106256
    46  H    0.121370
    47  H    0.089214
    48  H    0.095697
    49  H    0.087082
    50  H    0.114008
    51  H    0.108840
    52  H    0.124325
    53  H    0.094627
    54  H    0.118386
    55  H    0.118465
    56  H    0.061783
    57  H    0.125338
    58  H    0.096815
    59  H    0.109764
    60  H    0.300478
    61  H    0.066375
    62  H    0.133974
    63  H    0.104896
    64  H    0.102694
    65  H    0.088687
    66  H    0.078326
    67  H    0.084999
    68  H    0.098197
    69  H    0.110351
    70  H    0.122796
    71  H    0.122898
    72  H    0.089695
    73  H    0.114779
    74  H    0.120312
    75  H    0.134734
    76  H    0.096989
    77  H    0.089979
    78  H    0.083215
    79  H    0.106730
    80  H    0.116710
    81  H    0.078255
    82  H    0.305800
    83  H    0.312329
    84  H    0.099722
    85  H    0.080087
    86  H    0.140472
    87  H    0.085835
    88  H    0.079941
    89  H    0.114164
    90  H    0.134615
    91  H    0.094768
    92  H    0.062655
    93  H    0.079969
    94  H    0.074816
    95  H    0.083978
    96  H    0.080517
    97  H    0.076173
    98  H    0.115655
    99  H    0.138322
   100  H    0.131040
 Sum of Mulliken charges =  -0.00000

 Dipole moment (field-independent basis, Debye):
    X=              4.7145    Y=             -1.1209    Z=              1.7644  Tot=              5.1572
 Quadrupole moment (field-independent basis, Debye-Ang):
   XX=           -265.8422   YY=           -259.6515   ZZ=           -278.3022
   XY=             -0.0656   XZ=             30.2857   YZ=             -2.8391

 Normal termination of Gaussian 16 at Fri Aug  2 12:33:52 2019.
