 Gaussian 16, Revision A.03,
 Gaussian 16:  ES64L-G16RevA.03 25-Dec-2016

 -------------------------------------
 # td=(NStates=1) CAM-B3LYP/6-31G(d,p)
 -------------------------------------

 --
 TD
 --
 Symbolic Z-matrix:
 Charge =  0 Multiplicity = 1

                         Standard orientation:
 ---------------------------------------------------------------------
 Center     Atomic      Atomic             Coordinates (Angstroms)
 Number     Number       Type             X           Y           Z
 ---------------------------------------------------------------------
      1          8           0      -11.600095   -0.010645   -1.563738
      2          8           0      -13.207677   -2.272001    1.611940
      3          8           0       10.497987   -1.307723   -1.951940
      4          8           0       14.397902   -1.149518   -0.048709
      5          6           0      -10.952591   -0.255021   -0.279224
      6          6           0      -11.620771   -1.296123   -1.120508
      7          6           0      -11.639234    0.298098    0.920738
      8          6           0      -12.973771   -1.853950   -0.922265
      9          6           0      -13.213843   -0.013323    0.872113
     10          6           0      -13.518343   -1.372985    0.473508
     11          6           0      -10.834541   -2.116288   -2.132714
     12          6           0       -9.521250   -0.050726   -0.474890
     13          6           0      -11.026075   -0.159471    2.250504
     14          6           0      -11.642983    1.831399    0.839267
     15          6           0       -8.557305   -0.845946    0.104153
     16          6           0       -7.106439   -0.557905    0.126390
     17          6           0       -6.218702   -1.792108    0.386927
     18          6           0       -6.641669    0.661105   -0.096419
     19          6           0       -5.215756    0.915555   -0.079396
     20          6           0       11.902321    0.127066    1.307746
     21          6           0       11.686297   -0.817861   -1.234552
     22          6           0       12.585905   -1.257561    1.604421
     23          6           0       13.357871   -1.996981    0.435138
     24          6           0       12.315201   -2.113325   -0.760215
     25          6           0       11.050506   -0.081866    0.054943
     26          6           0       10.987405    0.479439    2.502227
     27          6           0       12.969733    1.233176    1.260662
     28          6           0       12.469473    0.187132   -2.037306
     29          6           0       -4.763672    2.150684   -0.317179
     30          6           0        9.869402    0.590104   -0.212675
     31          6           0       -3.456639    2.647086   -0.387797
     32          6           0        8.632817    0.978704   -0.389573
     33          6           0       -3.107391    4.108542   -0.656846
     34          6           0       -2.265453    1.751058   -0.321122
     35          6           0        7.472562    0.251539   -0.150385
     36          6           0        7.601675   -1.191830    0.333674
     37          6           0        6.280380    0.846048   -0.137627
     38          6           0       -0.954148    2.040691   -0.410411
     39          6           0        5.014012    0.217896   -0.028784
     40          6           0       -0.023101    1.068039   -0.354305
     41          6           0        3.813909    0.914202   -0.252907
     42          6           0        1.343953    1.399951   -0.269029
     43          6           0        2.406401    0.559420    0.023247
     44          6           0        2.125371   -0.901374    0.416687
     45          1           0      -12.909837   -2.828786   -0.813048
     46          1           0      -13.634986   -1.796001   -1.896287
     47          1           0      -13.581174    0.127383    1.850392
     48          1           0      -13.700918    0.780383    0.198150
     49          1           0      -14.673063   -1.449328    0.510236
     50          1           0      -10.713578   -2.984270   -1.396330
     51          1           0      -11.254180   -2.567208   -3.011490
     52          1           0       -9.944810   -1.500500   -2.217363
     53          1           0       -9.103899    0.683169   -1.057402
     54          1           0      -10.171482    0.201807    2.355106
     55          1           0      -11.585518    0.150264    3.023814
     56          1           0      -10.828077   -1.338880    2.505570
     57          1           0      -11.662978    2.263259   -0.242351
     58          1           0      -12.471325    2.442822    1.503562
     59          1           0      -10.590099    2.336493    1.153529
     60          1           0      -12.379876   -2.602797    1.335904
     61          1           0       -8.785569   -1.805984    0.653585
     62          1           0       -5.957070   -2.316902   -0.555841
     63          1           0       -5.483417   -1.394815    0.867285
     64          1           0       -6.811836   -2.534208    1.257225
     65          1           0       -7.177776    1.648833   -0.141867
     66          1           0       -4.489775    0.123875    0.052065
     67          1           0       13.100561   -1.090500    2.647803
     68          1           0       11.940191   -1.920238    1.857265
     69          1           0       13.604219   -2.938775    0.582299
     70          1           0       13.082547   -2.402059   -1.496122
     71          1           0       11.543155   -2.749441   -0.391583
     72          1           0       11.618115    0.459026    3.395454
     73          1           0       10.419128    1.416790    2.422857
     74          1           0       10.226146   -0.302366    2.692173
     75          1           0       13.643991    0.991637    0.400554
     76          1           0       12.409511    2.092032    1.312582
     77          1           0       13.781033    1.099729    2.270529
     78          1           0       12.877593   -0.393563   -2.915825
     79          1           0       11.785667    0.849666   -2.446502
     80          1           0       13.465580    0.598372   -1.590073
     81          1           0       -5.600111    2.896808   -0.444127
     82          1           0       10.004681   -0.601838   -2.317958
     83          1           0       14.986875   -1.130508    0.652452
     84          1           0        8.501649    1.976894   -0.774350
     85          1           0       -2.495677    4.461677    0.109907
     86          1           0       -2.580596    4.206707   -1.732310
     87          1           0       -4.003030    4.592101   -0.744803
     88          1           0       -2.384738    0.585811   -0.245776
     89          1           0        6.608126   -1.725243    0.012927
     90          1           0        8.486497   -1.916370    0.103877
     91          1           0        7.656433   -0.959914    1.371486
     92          1           0        6.256917    1.830001   -0.571479
     93          1           0       -0.643253    2.966296   -0.739721
     94          1           0        4.855272   -0.664707    0.274446
     95          1           0       -0.201076    0.072428    0.026146
     96          1           0        4.137069    2.056292   -0.437224
     97          1           0        1.696954    2.425054   -0.421832
     98          1           0        1.105761   -1.343511    0.366119
     99          1           0        3.014308   -1.493251   -0.322141
    100          1           0        2.517694   -1.158289    1.460785
 ---------------------------------------------------------------------

 SCF Done:  E(RCAM-B3LYP) =  -1857.25429041     A.U. after   15 cycles

 Excitation energies and oscillator strengths:

 Excited State   1:      Singlet-A      2.1806 eV  568.59 nm  f=2.9529  <S**2>=0.000
     163 ->166         0.12584
     164 ->165         0.69848
 This state for optimization and/or second-order correction.
 Total Energy, E(TD-HF/TD-DFT) =  -1857.17415585
 Copying the excited state density for this state as the 1-particle RhoCI density.

 The electronic state is 1-A.
 Alpha  occ. eigenvalues --  -19.22356 -19.20980 -19.20872 -19.20115 -10.32409
 Alpha  occ. eigenvalues --  -10.32189 -10.31219 -10.31141 -10.30668 -10.28366
 Alpha  occ. eigenvalues --  -10.28313 -10.28173 -10.28114 -10.28057 -10.27785
 Alpha  occ. eigenvalues --  -10.27546 -10.27320 -10.27290 -10.27266 -10.27105
 Alpha  occ. eigenvalues --  -10.26893 -10.26862 -10.26818 -10.26542 -10.26361
 Alpha  occ. eigenvalues --  -10.26176 -10.26148 -10.26043 -10.25976 -10.25861
 Alpha  occ. eigenvalues --  -10.25792 -10.25791 -10.25753 -10.25731 -10.25374
 Alpha  occ. eigenvalues --  -10.25311 -10.25241 -10.25108 -10.25057 -10.24973
 Alpha  occ. eigenvalues --  -10.24657 -10.24590 -10.24367 -10.23346  -1.16848
 Alpha  occ. eigenvalues --   -1.12127  -1.08947  -1.08508  -0.92828  -0.92628
 Alpha  occ. eigenvalues --   -0.91923  -0.91672  -0.91051  -0.89623  -0.87954
 Alpha  occ. eigenvalues --   -0.87295  -0.86462  -0.85659  -0.84734  -0.83276
 Alpha  occ. eigenvalues --   -0.82516  -0.81232  -0.80652  -0.77869  -0.77259
 Alpha  occ. eigenvalues --   -0.76964  -0.76700  -0.76405  -0.76376  -0.75300
 Alpha  occ. eigenvalues --   -0.74919  -0.74451  -0.72908  -0.71064  -0.70449
 Alpha  occ. eigenvalues --   -0.68624  -0.66694  -0.65297  -0.64486  -0.64226
 Alpha  occ. eigenvalues --   -0.63787  -0.62609  -0.61517  -0.61291  -0.60126
 Alpha  occ. eigenvalues --   -0.59558  -0.59027  -0.57754  -0.57394  -0.57086
 Alpha  occ. eigenvalues --   -0.55983  -0.55447  -0.55076  -0.54662  -0.54603
 Alpha  occ. eigenvalues --   -0.53671  -0.53232  -0.52767  -0.52378  -0.51726
 Alpha  occ. eigenvalues --   -0.51488  -0.51196  -0.50891  -0.50695  -0.50349
 Alpha  occ. eigenvalues --   -0.50029  -0.49578  -0.49050  -0.48699  -0.48661
 Alpha  occ. eigenvalues --   -0.48301  -0.47971  -0.47397  -0.47096  -0.46610
 Alpha  occ. eigenvalues --   -0.46292  -0.46208  -0.45729  -0.45330  -0.45232
 Alpha  occ. eigenvalues --   -0.44887  -0.44532  -0.44529  -0.44039  -0.43681
 Alpha  occ. eigenvalues --   -0.43086  -0.42963  -0.42931  -0.42573  -0.42445
 Alpha  occ. eigenvalues --   -0.42394  -0.42145  -0.41644  -0.41452  -0.41051
 Alpha  occ. eigenvalues --   -0.40877  -0.40831  -0.40717  -0.40357  -0.40094
 Alpha  occ. eigenvalues --   -0.39771  -0.39538  -0.39416  -0.38927  -0.38710
 Alpha  occ. eigenvalues --   -0.38128  -0.37989  -0.37971  -0.37826  -0.37160
 Alpha  occ. eigenvalues --   -0.36501  -0.35912  -0.35402  -0.34769  -0.34161
 Alpha  occ. eigenvalues --   -0.33863  -0.32136  -0.31853  -0.31071  -0.30360
 Alpha  occ. eigenvalues --   -0.28800  -0.28121  -0.24611  -0.19651
 Alpha virt. eigenvalues --   -0.06065  -0.00286   0.02810   0.05174   0.07043
 Alpha virt. eigenvalues --    0.10144   0.10365   0.10771   0.11679   0.12191
 Alpha virt. eigenvalues --    0.12660   0.12940   0.13476   0.13760   0.14336

 Mulliken charges:
               1
     1  O   -0.495089
     2  O   -0.544180
     3  O   -0.564655
     4  O   -0.529104
     5  C    0.208369
     6  C    0.219456
     7  C    0.013074
     8  C   -0.208175
     9  C   -0.154645
    10  C    0.107313
    11  C   -0.299866
    12  C   -0.124573
    13  C   -0.279328
    14  C   -0.321004
    15  C   -0.066720
    16  C    0.033948
    17  C   -0.336575
    18  C   -0.099352
    19  C   -0.051880
    20  C    0.010050
    21  C    0.243328
    22  C   -0.189838
    23  C    0.124765
    24  C   -0.188536
    25  C   -0.028283
    26  C   -0.311046
    27  C   -0.262311
    28  C   -0.300480
    29  C   -0.128630
    30  C    0.078301
    31  C    0.048310
    32  C   -0.279947
    33  C   -0.356137
    34  C   -0.127588
    35  C    0.152192
    36  C   -0.372894
    37  C   -0.135636
    38  C   -0.034346
    39  C   -0.036539
    40  C   -0.084040
    41  C   -0.142573
    42  C   -0.116289
    43  C    0.101938
    44  C   -0.369609
    45  H    0.112546
    46  H    0.119477
    47  H    0.116005
    48  H    0.105232
    49  H    0.085375
    50  H    0.070559
    51  H    0.119973
    52  H    0.117983
    53  H    0.107923
    54  H    0.119249
    55  H    0.116348
    56  H    0.064689
    57  H    0.123826
    58  H    0.091857
    59  H    0.071738
    60  H    0.295132
    61  H    0.070567
    62  H    0.135136
    63  H    0.136723
    64  H    0.074525
    65  H    0.097035
    66  H    0.087403
    67  H    0.063633
    68  H    0.101419
    69  H    0.100331
    70  H    0.113431
    71  H    0.123439
    72  H    0.096116
    73  H    0.112543
    74  H    0.098152
    75  H    0.123579
    76  H    0.112361
    77  H    0.044082
    78  H    0.101092
    79  H    0.105702
    80  H    0.133643
    81  H    0.068714
    82  H    0.298054
    83  H    0.304263
    84  H    0.098562
    85  H    0.137994
    86  H    0.108238
    87  H    0.115150
    88  H    0.067624
    89  H    0.100943
    90  H    0.128570
    91  H    0.137825
    92  H    0.078317
    93  H    0.087739
    94  H    0.059097
    95  H    0.079679
    96  H    0.062874
    97  H    0.077989
    98  H    0.118652
    99  H    0.079721
   100  H    0.119997
 Sum of Mulliken charges =  -0.00000

 Dipole moment (field-independent basis, Debye):
    X=              3.7852    Y=             -0.2208    Z=              1.4733  Tot=              4.0678
 Quadrupole moment (field-independent basis, Debye-Ang):
   XX=           -263.6634   YY=           -258.4725   ZZ=           -276.7560
   XY=             -6.1937   XZ=             27.4940   YZ=             -3.9516

 Normal termination of Gaussian 16 at Fri Aug  2 01:36:10 2019.
