 Gaussian 16, Revision A.03,
 Gaussian 16:  ES64L-G16RevA.03 25-Dec-2016

 -------------------------------------
 # td=(NStates=1) CAM-B3LYP/6-31G(d,p)
 -------------------------------------

 --
 TD
 --
 Symbolic Z-matrix:
 Charge =  0 Multiplicity = 1

                         Standard orientation:
 ---------------------------------------------------------------------
 Center     Atomic      Atomic             Coordinates (Angstroms)
 Number     Number       Type             X           Y           Z
 ---------------------------------------------------------------------
      1          8           0      -11.736595    0.109655   -1.615885
      2          8           0      -13.227169   -2.199380    1.682163
      3          8           0       10.571951   -1.347690   -1.950110
      4          8           0       14.362571   -0.975989   -0.122961
      5          6           0      -11.056332   -0.042870   -0.366006
      6          6           0      -11.592675   -1.286118   -1.181274
      7          6           0      -11.796684    0.533589    0.843214
      8          6           0      -12.914540   -1.811493   -0.731547
      9          6           0      -13.265902    0.089949    0.758498
     10          6           0      -13.543647   -1.397355    0.537650
     11          6           0      -10.716367   -2.140144   -2.013623
     12          6           0       -9.527416    0.142140   -0.358022
     13          6           0      -11.079914    0.178694    2.229439
     14          6           0      -11.688145    2.062051    0.552514
     15          6           0       -8.709312   -0.788489    0.137541
     16          6           0       -7.271435   -0.588214    0.154258
     17          6           0       -6.429381   -1.722533    0.741276
     18          6           0       -6.609839    0.508903   -0.281169
     19          6           0       -5.211043    0.785809   -0.263376
     20          6           0       11.909084    0.276834    1.178153
     21          6           0       11.598825   -0.728273   -1.206667
     22          6           0       12.751802   -0.994969    1.587157
     23          6           0       13.355616   -1.748269    0.461225
     24          6           0       12.248810   -2.039795   -0.585820
     25          6           0       11.053883    0.007723   -0.045472
     26          6           0       11.197204    0.654152    2.481214
     27          6           0       12.865984    1.523603    0.956052
     28          6           0       12.457109    0.075159   -2.148958
     29          6           0       -4.689446    2.037999   -0.523377
     30          6           0        9.818682    0.511243   -0.128235
     31          6           0       -3.355442    2.409652   -0.507215
     32          6           0        8.613954    0.880850   -0.243782
     33          6           0       -2.911620    3.815806   -0.709569
     34          6           0       -2.280745    1.486357   -0.245255
     35          6           0        7.484980    0.088232    0.025452
     36          6           0        7.665226   -1.317184    0.397497
     37          6           0        6.221746    0.647626   -0.099662
     38          6           0       -0.910429    1.799570   -0.389152
     39          6           0        4.931484    0.037593    0.024082
     40          6           0        0.044639    0.793193   -0.237829
     41          6           0        3.811239    0.791700   -0.121717
     42          6           0        1.449078    1.135368   -0.238177
     43          6           0        2.519040    0.319802    0.123550
     44          6           0        2.353309   -1.177459    0.456418
     45          1           0      -12.712662   -3.050083   -0.647402
     46          1           0      -13.602839   -1.868485   -1.655450
     47          1           0      -13.931976    0.379997    1.680956
     48          1           0      -13.711995    0.808900   -0.138353
     49          1           0      -14.747288   -1.381010    0.397734
     50          1           0      -10.161279   -3.072153   -1.291297
     51          1           0      -11.116920   -2.631314   -2.815794
     52          1           0       -9.783858   -1.660301   -2.289386
     53          1           0       -9.240661    0.949634   -1.042286
     54          1           0      -10.175076    0.493810    2.474781
     55          1           0      -11.762009    0.691263    3.001566
     56          1           0      -11.039079   -0.946258    2.290546
     57          1           0      -11.995068    2.181872   -0.317319
     58          1           0      -12.257277    2.693883    1.318772
     59          1           0      -10.698980    2.373759    0.641904
     60          1           0      -12.170012   -2.200957    1.628613
     61          1           0       -8.986037   -1.645719    0.674932
     62          1           0       -5.532632   -2.151995    0.072708
     63          1           0       -5.940822   -1.559195    1.663236
     64          1           0       -7.109774   -2.521110    0.979267
     65          1           0       -7.396725    1.232765   -0.825880
     66          1           0       -4.497308    0.113271    0.241445
     67          1           0       13.530903   -0.603628    2.477022
     68          1           0       11.982146   -1.575578    2.173543
     69          1           0       13.651593   -2.773811    0.864861
     70          1           0       12.620710   -2.478801   -1.325314
     71          1           0       11.540688   -2.752842   -0.218121
     72          1           0       11.928258    0.675165    3.313644
     73          1           0       10.567605    1.807959    2.539373
     74          1           0       10.506580   -0.144642    2.699120
     75          1           0       13.405453    1.435020    0.113691
     76          1           0       12.279729    2.519756    0.862907
     77          1           0       13.359618    1.614913    2.021771
     78          1           0       12.711705   -0.262713   -3.196737
     79          1           0       11.789822    1.060904   -2.318414
     80          1           0       13.468337    0.223772   -1.714770
     81          1           0       -5.271985    2.832623   -0.981491
     82          1           0        9.948852   -0.680666   -2.542945
     83          1           0       15.011742   -0.732977    0.594996
     84          1           0        8.502596    1.885540   -0.686468
     85          1           0       -2.682805    4.353680    0.306325
     86          1           0       -2.060114    4.056799   -1.382093
     87          1           0       -3.745944    4.450402   -1.152543
     88          1           0       -2.512335    0.446523    0.258527
     89          1           0        6.609985   -1.748117    0.547632
     90          1           0        8.090965   -1.828878   -0.506796
     91          1           0        8.230900   -1.543688    1.279984
     92          1           0        6.405531    1.679793   -0.431548
     93          1           0       -0.678567    2.930322   -0.590128
     94          1           0        4.806701   -0.962670    0.261906
     95          1           0       -0.389052   -0.178577   -0.008313
     96          1           0        3.802928    1.791041   -0.297752
     97          1           0        1.698777    2.209723   -0.668732
     98          1           0        1.274606   -1.428344    0.164057
     99          1           0        2.858316   -1.881611   -0.015704
    100          1           0        2.811688   -1.182318    1.453835
 ---------------------------------------------------------------------

 SCF Done:  E(RCAM-B3LYP) =  -1857.32048296     A.U. after   15 cycles

 Excitation energies and oscillator strengths:

 Excited State   1:      Singlet-A      2.1387 eV  579.71 nm  f=2.8683  <S**2>=0.000
     163 ->166        -0.13190
     164 ->165         0.69545
 This state for optimization and/or second-order correction.
 Total Energy, E(TD-HF/TD-DFT) =  -1857.24188605
 Copying the excited state density for this state as the 1-particle RhoCI density.

 The electronic state is 1-A.
 Alpha  occ. eigenvalues --  -19.23141 -19.22554 -19.22374 -19.21137 -10.32394
 Alpha  occ. eigenvalues --  -10.32307 -10.31671 -10.31651 -10.31581 -10.28074
 Alpha  occ. eigenvalues --  -10.28033 -10.27614 -10.27582 -10.27407 -10.27363
 Alpha  occ. eigenvalues --  -10.27329 -10.27271 -10.27190 -10.27109 -10.26975
 Alpha  occ. eigenvalues --  -10.26962 -10.26948 -10.26938 -10.26872 -10.26724
 Alpha  occ. eigenvalues --  -10.26694 -10.26590 -10.26492 -10.26472 -10.26435
 Alpha  occ. eigenvalues --  -10.26352 -10.25871 -10.25835 -10.25798 -10.25589
 Alpha  occ. eigenvalues --  -10.25550 -10.25404 -10.25322 -10.25314 -10.24819
 Alpha  occ. eigenvalues --  -10.24813 -10.24676 -10.23525 -10.22827  -1.13918
 Alpha  occ. eigenvalues --   -1.11414  -1.08455  -1.08018  -0.92935  -0.92352
 Alpha  occ. eigenvalues --   -0.92052  -0.91282  -0.90760  -0.89992  -0.87566
 Alpha  occ. eigenvalues --   -0.86770  -0.85615  -0.85459  -0.84690  -0.83068
 Alpha  occ. eigenvalues --   -0.82068  -0.80968  -0.80459  -0.78390  -0.77655
 Alpha  occ. eigenvalues --   -0.76937  -0.76393  -0.76321  -0.76003  -0.75722
 Alpha  occ. eigenvalues --   -0.74850  -0.74125  -0.73240  -0.70459  -0.69336
 Alpha  occ. eigenvalues --   -0.68503  -0.67152  -0.65170  -0.64828  -0.64016
 Alpha  occ. eigenvalues --   -0.63643  -0.62478  -0.61020  -0.60658  -0.58770
 Alpha  occ. eigenvalues --   -0.58365  -0.58210  -0.57605  -0.57183  -0.56667
 Alpha  occ. eigenvalues --   -0.55791  -0.55475  -0.54960  -0.54727  -0.54612
 Alpha  occ. eigenvalues --   -0.53939  -0.52872  -0.52588  -0.52471  -0.52014
 Alpha  occ. eigenvalues --   -0.51780  -0.51169  -0.50916  -0.50071  -0.49720
 Alpha  occ. eigenvalues --   -0.49635  -0.49372  -0.49070  -0.48919  -0.48510
 Alpha  occ. eigenvalues --   -0.48169  -0.47929  -0.47437  -0.47148  -0.46710
 Alpha  occ. eigenvalues --   -0.46547  -0.46254  -0.45940  -0.45863  -0.45453
 Alpha  occ. eigenvalues --   -0.44890  -0.44631  -0.44555  -0.44172  -0.43885
 Alpha  occ. eigenvalues --   -0.43343  -0.43307  -0.42983  -0.42664  -0.42183
 Alpha  occ. eigenvalues --   -0.42067  -0.41697  -0.41370  -0.41264  -0.40868
 Alpha  occ. eigenvalues --   -0.40824  -0.40617  -0.40387  -0.40194  -0.39826
 Alpha  occ. eigenvalues --   -0.39608  -0.39465  -0.38971  -0.38378  -0.38248
 Alpha  occ. eigenvalues --   -0.37995  -0.37768  -0.37625  -0.37483  -0.37317
 Alpha  occ. eigenvalues --   -0.36603  -0.35942  -0.35825  -0.35118  -0.33822
 Alpha  occ. eigenvalues --   -0.33046  -0.32484  -0.32185  -0.31712  -0.30631
 Alpha  occ. eigenvalues --   -0.28418  -0.28135  -0.24116  -0.19590
 Alpha virt. eigenvalues --   -0.06045  -0.00468   0.03244   0.06572   0.07075
 Alpha virt. eigenvalues --    0.08433   0.09928   0.10525   0.11043   0.11165
 Alpha virt. eigenvalues --    0.11546   0.12434   0.12754   0.13042   0.13520

 Mulliken charges:
               1
     1  O   -0.512541
     2  O   -0.533086
     3  O   -0.587023
     4  O   -0.538139
     5  C    0.187964
     6  C    0.251519
     7  C    0.007501
     8  C   -0.206195
     9  C   -0.176444
    10  C    0.151478
    11  C   -0.322815
    12  C   -0.121699
    13  C   -0.290587
    14  C   -0.301913
    15  C   -0.049743
    16  C    0.076469
    17  C   -0.381069
    18  C   -0.099255
    19  C   -0.082370
    20  C    0.017451
    21  C    0.269485
    22  C   -0.179067
    23  C    0.147560
    24  C   -0.167209
    25  C   -0.066853
    26  C   -0.285670
    27  C   -0.271306
    28  C   -0.320435
    29  C   -0.096334
    30  C    0.191415
    31  C    0.091977
    32  C   -0.321308
    33  C   -0.388496
    34  C   -0.124555
    35  C    0.131989
    36  C   -0.369807
    37  C   -0.107411
    38  C   -0.065649
    39  C   -0.103034
    40  C   -0.097633
    41  C   -0.064510
    42  C   -0.146347
    43  C    0.081308
    44  C   -0.363925
    45  H    0.073746
    46  H    0.116107
    47  H    0.090565
    48  H    0.093610
    49  H    0.090777
    50  H    0.058448
    51  H    0.129802
    52  H    0.135630
    53  H    0.119262
    54  H    0.125552
    55  H    0.102613
    56  H    0.059214
    57  H    0.129499
    58  H    0.089215
    59  H    0.107504
    60  H    0.305393
    61  H    0.082759
    62  H    0.102653
    63  H    0.130274
    64  H    0.096649
    65  H    0.060473
    66  H    0.087603
    67  H    0.052810
    68  H    0.094513
    69  H    0.073440
    70  H    0.111546
    71  H    0.117389
    72  H    0.100564
    73  H    0.067811
    74  H    0.103497
    75  H    0.116035
    76  H    0.087863
    77  H    0.073848
    78  H    0.108962
    79  H    0.070663
    80  H    0.145291
    81  H    0.080839
    82  H    0.302180
    83  H    0.316767
    84  H    0.103050
    85  H    0.120429
    86  H    0.126426
    87  H    0.096913
    88  H    0.077557
    89  H    0.086139
    90  H    0.132957
    91  H    0.121509
    92  H    0.071864
    93  H    0.088879
    94  H    0.084827
    95  H    0.094512
    96  H    0.072090
    97  H    0.083522
    98  H    0.101148
    99  H    0.136637
   100  H    0.126487
 Sum of Mulliken charges =  -0.00000

 Dipole moment (field-independent basis, Debye):
    X=              4.2483    Y=              0.2705    Z=              0.9024  Tot=              4.3515
 Quadrupole moment (field-independent basis, Debye-Ang):
   XX=           -286.6830   YY=           -261.9275   ZZ=           -274.5820
   XY=             -4.1954   XZ=             22.8662   YZ=             -3.0851

 Normal termination of Gaussian 16 at Fri Aug  2 10:21:28 2019.
