 Gaussian 16, Revision A.03,
 Gaussian 16:  ES64L-G16RevA.03 25-Dec-2016

 -------------------------------------
 # td=(NStates=1) CAM-B3LYP/6-31G(d,p)
 -------------------------------------

 --
 TD
 --
 Symbolic Z-matrix:
 Charge =  0 Multiplicity = 1

                         Standard orientation:
 ---------------------------------------------------------------------
 Center     Atomic      Atomic             Coordinates (Angstroms)
 Number     Number       Type             X           Y           Z
 ---------------------------------------------------------------------
      1          8           0      -11.786406    0.296831   -1.402804
      2          8           0      -13.070708   -2.584158    1.288609
      3          8           0       10.721804   -1.133052   -2.072307
      4          8           0       14.422614   -1.066169    0.039921
      5          6           0      -11.048625   -0.188448   -0.286036
      6          6           0      -11.721531   -1.126923   -1.169404
      7          6           0      -11.624362    0.185245    1.082248
      8          6           0      -13.167645   -1.733541   -0.936960
      9          6           0      -13.173995   -0.150495    1.070647
     10          6           0      -13.517992   -1.534212    0.496883
     11          6           0      -10.923290   -1.773770   -2.334585
     12          6           0       -9.553384    0.041727   -0.472928
     13          6           0      -10.976225   -0.297682    2.333734
     14          6           0      -11.609797    1.757748    1.229868
     15          6           0       -8.634082   -0.789296    0.010645
     16          6           0       -7.133489   -0.620488    0.105243
     17          6           0       -6.285608   -1.785307    0.378656
     18          6           0       -6.640001    0.711654   -0.085371
     19          6           0       -5.283281    0.990964    0.006008
     20          6           0       11.786704   -0.093091    1.403169
     21          6           0       11.698178   -0.646261   -1.193907
     22          6           0       12.540864   -1.359910    1.571752
     23          6           0       13.346650   -1.899558    0.419539
     24          6           0       12.357378   -1.926720   -0.786763
     25          6           0       11.077701   -0.171540    0.133940
     26          6           0       10.825408    0.141915    2.608999
     27          6           0       12.765750    1.136846    1.474006
     28          6           0       12.525289    0.296573   -1.993623
     29          6           0       -4.810283    2.228878   -0.330007
     30          6           0        9.916562    0.488773    0.007100
     31          6           0       -3.379961    2.533523   -0.418333
     32          6           0        8.728976    0.965490   -0.162084
     33          6           0       -3.002117    4.055042   -0.506587
     34          6           0       -2.283011    1.540663   -0.359489
     35          6           0        7.529992    0.315399   -0.088131
     36          6           0        7.561748   -1.177155    0.137479
     37          6           0        6.252093    0.928402   -0.264591
     38          6           0       -0.932164    1.840218   -0.289829
     39          6           0        4.944891    0.408538   -0.215271
     40          6           0        0.029873    0.852784   -0.285379
     41          6           0        3.875572    1.150417   -0.339353
     42          6           0        1.415094    1.364802   -0.223399
     43          6           0        2.545212    0.600665   -0.193024
     44          6           0        2.478582   -0.959618   -0.052066
     45          1           0      -13.143028   -2.850310   -1.237134
     46          1           0      -13.955757   -1.203070   -1.688935
     47          1           0      -13.567175   -0.031283    2.133742
     48          1           0      -13.420375    0.702849    0.288904
     49          1           0      -14.548652   -1.786258    0.604930
     50          1           0      -10.789408   -2.918512   -1.966411
     51          1           0      -11.330697   -1.612592   -3.398491
     52          1           0       -9.925775   -1.084932   -2.416555
     53          1           0       -9.283776    0.984035   -0.875999
     54          1           0       -9.781485   -0.208466    2.279971
     55          1           0      -11.436843    0.283069    3.119137
     56          1           0      -11.058628   -1.411366    2.358029
     57          1           0      -12.182976    2.288182    0.334880
     58          1           0      -12.189711    2.120034    2.091187
     59          1           0      -10.627841    2.138436    1.289818
     60          1           0      -12.178711   -2.523240    1.263178
     61          1           0       -9.078036   -1.694912    0.401808
     62          1           0       -5.802232   -1.970252   -0.814033
     63          1           0       -5.422914   -1.621349    1.071644
     64          1           0       -7.023579   -2.683417    0.489241
     65          1           0       -7.372628    1.497874   -0.219836
     66          1           0       -4.526728    0.245585    0.368480
     67          1           0       13.134021   -1.435187    2.641971
     68          1           0       11.817955   -2.188781    1.741053
     69          1           0       13.611244   -2.981713    0.484324
     70          1           0       12.834834   -2.203526   -1.719502
     71          1           0       11.779717   -2.867419   -0.691149
     72          1           0       11.502690   -0.163304    3.674848
     73          1           0       10.427671    1.145647    2.515976
     74          1           0       10.004196   -0.608838    2.340876
     75          1           0       13.668796    1.018649    0.606861
     76          1           0       12.311186    2.096640    1.223044
     77          1           0       13.111512    1.179374    2.429337
     78          1           0       12.647531   -0.209815   -2.964701
     79          1           0       12.222002    1.255203   -2.049394
     80          1           0       13.624201    0.480922   -1.522147
     81          1           0       -5.572744    3.103662   -0.558728
     82          1           0       10.123328   -0.292408   -2.425186
     83          1           0       15.106100   -1.158247    0.738945
     84          1           0        8.744891    2.012124   -0.402021
     85          1           0       -2.513213    4.391109    0.547656
     86          1           0       -2.134626    3.937534   -1.364255
     87          1           0       -3.783969    4.593880   -0.870247
     88          1           0       -2.723589    0.511092   -0.543088
     89          1           0        6.688122   -1.859175   -0.006953
     90          1           0        8.222434   -1.594856   -0.468883
     91          1           0        7.876565   -1.356456    1.128985
     92          1           0        6.215369    2.092736   -0.414767
     93          1           0       -0.719235    2.892181   -0.242294
     94          1           0        4.865600   -0.671337   -0.063743
     95          1           0       -0.195347   -0.399467   -0.278318
     96          1           0        3.789640    2.276789   -0.174736
     97          1           0        1.643780    2.454221   -0.337270
     98          1           0        1.343629   -1.446632   -0.185037
     99          1           0        2.973423   -1.309302   -0.859358
    100          1           0        2.690785   -1.276527    0.866233
 ---------------------------------------------------------------------

 SCF Done:  E(RCAM-B3LYP) =  -1857.29639743     A.U. after   15 cycles

 Excitation energies and oscillator strengths:

 Excited State   1:      Singlet-A      2.2193 eV  558.66 nm  f=2.7849  <S**2>=0.000
     163 ->166        -0.13929
     164 ->165         0.69175
 This state for optimization and/or second-order correction.
 Total Energy, E(TD-HF/TD-DFT) =  -1857.21483932
 Copying the excited state density for this state as the 1-particle RhoCI density.

 The electronic state is 1-A.
 Alpha  occ. eigenvalues --  -19.22312 -19.22065 -19.21673 -19.20519 -10.32614
 Alpha  occ. eigenvalues --  -10.32208 -10.31442 -10.31361 -10.29520 -10.29090
 Alpha  occ. eigenvalues --  -10.28665 -10.28591 -10.28414 -10.27769 -10.27690
 Alpha  occ. eigenvalues --  -10.27587 -10.27550 -10.27431 -10.27422 -10.27239
 Alpha  occ. eigenvalues --  -10.27028 -10.26985 -10.26796 -10.26705 -10.26655
 Alpha  occ. eigenvalues --  -10.26617 -10.26616 -10.26570 -10.26544 -10.26391
 Alpha  occ. eigenvalues --  -10.26361 -10.26257 -10.26201 -10.26070 -10.26030
 Alpha  occ. eigenvalues --  -10.26009 -10.25970 -10.25600 -10.25110 -10.24974
 Alpha  occ. eigenvalues --  -10.24628 -10.24305 -10.24051 -10.23442  -1.15820
 Alpha  occ. eigenvalues --   -1.12454  -1.10562  -1.09166  -0.94072  -0.92125
 Alpha  occ. eigenvalues --   -0.91822  -0.90977  -0.90732  -0.89493  -0.87536
 Alpha  occ. eigenvalues --   -0.86017  -0.85738  -0.85272  -0.84319  -0.83317
 Alpha  occ. eigenvalues --   -0.81790  -0.80711  -0.79823  -0.77871  -0.77767
 Alpha  occ. eigenvalues --   -0.76177  -0.75957  -0.75745  -0.75590  -0.74754
 Alpha  occ. eigenvalues --   -0.74544  -0.74057  -0.72953  -0.70669  -0.70208
 Alpha  occ. eigenvalues --   -0.68115  -0.66812  -0.65610  -0.64686  -0.64267
 Alpha  occ. eigenvalues --   -0.63229  -0.62074  -0.60429  -0.59799  -0.59415
 Alpha  occ. eigenvalues --   -0.58634  -0.58212  -0.57620  -0.57289  -0.56833
 Alpha  occ. eigenvalues --   -0.55492  -0.55448  -0.54771  -0.54479  -0.54211
 Alpha  occ. eigenvalues --   -0.53352  -0.53041  -0.52585  -0.52366  -0.51814
 Alpha  occ. eigenvalues --   -0.51682  -0.51055  -0.50634  -0.50031  -0.49745
 Alpha  occ. eigenvalues --   -0.49527  -0.49141  -0.48923  -0.48571  -0.48341
 Alpha  occ. eigenvalues --   -0.48285  -0.47747  -0.47550  -0.46905  -0.46769
 Alpha  occ. eigenvalues --   -0.46294  -0.46031  -0.45581  -0.45009  -0.44909
 Alpha  occ. eigenvalues --   -0.44757  -0.44206  -0.44184  -0.44132  -0.43962
 Alpha  occ. eigenvalues --   -0.43763  -0.43027  -0.42766  -0.42726  -0.42150
 Alpha  occ. eigenvalues --   -0.42106  -0.41840  -0.41582  -0.41276  -0.40802
 Alpha  occ. eigenvalues --   -0.40715  -0.40446  -0.40304  -0.39756  -0.39669
 Alpha  occ. eigenvalues --   -0.39085  -0.38863  -0.38798  -0.38659  -0.38358
 Alpha  occ. eigenvalues --   -0.38012  -0.37867  -0.37761  -0.37633  -0.36986
 Alpha  occ. eigenvalues --   -0.36327  -0.35813  -0.35674  -0.34487  -0.33884
 Alpha  occ. eigenvalues --   -0.33100  -0.32381  -0.32179  -0.31637  -0.31410
 Alpha  occ. eigenvalues --   -0.29055  -0.27488  -0.23872  -0.19603
 Alpha virt. eigenvalues --   -0.05454  -0.00956   0.02990   0.05992   0.07606
 Alpha virt. eigenvalues --    0.09965   0.10059   0.10161   0.10353   0.11348
 Alpha virt. eigenvalues --    0.11788   0.12309   0.12732   0.12966   0.13886

 Mulliken charges:
               1
     1  O   -0.500901
     2  O   -0.524662
     3  O   -0.566516
     4  O   -0.528557
     5  C    0.223770
     6  C    0.201366
     7  C   -0.010344
     8  C   -0.192845
     9  C   -0.189611
    10  C    0.153085
    11  C   -0.309158
    12  C   -0.118147
    13  C   -0.285417
    14  C   -0.319812
    15  C   -0.073108
    16  C    0.079386
    17  C   -0.362954
    18  C   -0.100294
    19  C   -0.063943
    20  C    0.011795
    21  C    0.273903
    22  C   -0.168308
    23  C    0.135815
    24  C   -0.198188
    25  C   -0.026651
    26  C   -0.283588
    27  C   -0.290148
    28  C   -0.320258
    29  C   -0.120851
    30  C    0.102884
    31  C    0.032987
    32  C   -0.295326
    33  C   -0.346823
    34  C   -0.113785
    35  C    0.130976
    36  C   -0.385888
    37  C   -0.143696
    38  C   -0.072334
    39  C   -0.060051
    40  C   -0.083582
    41  C   -0.111440
    42  C   -0.142217
    43  C    0.084733
    44  C   -0.353812
    45  H    0.103695
    46  H    0.108094
    47  H    0.096028
    48  H    0.116245
    49  H    0.098409
    50  H    0.081114
    51  H    0.118873
    52  H    0.107074
    53  H    0.102111
    54  H    0.096199
    55  H    0.116601
    56  H    0.077712
    57  H    0.101267
    58  H    0.105483
    59  H    0.108408
    60  H    0.284175
    61  H    0.066966
    62  H    0.096996
    63  H    0.136300
    64  H    0.114843
    65  H    0.089188
    66  H    0.093810
    67  H    0.053917
    68  H    0.097810
    69  H    0.085680
    70  H    0.103307
    71  H    0.114666
    72  H    0.070077
    73  H    0.121327
    74  H    0.102510
    75  H    0.093046
    76  H    0.097149
    77  H    0.104403
    78  H    0.119335
    79  H    0.109909
    80  H    0.115468
    81  H    0.083029
    82  H    0.303054
    83  H    0.308005
    84  H    0.108646
    85  H    0.115211
    86  H    0.101265
    87  H    0.118782
    88  H    0.077612
    89  H    0.101839
    90  H    0.140772
    91  H    0.124110
    92  H    0.060999
    93  H    0.097975
    94  H    0.093612
    95  H    0.093474
    96  H    0.084448
    97  H    0.077939
    98  H    0.058329
    99  H    0.135777
   100  H    0.139446
 Sum of Mulliken charges =  -0.00000

 Dipole moment (field-independent basis, Debye):
    X=              3.6175    Y=             -0.1140    Z=              1.6399  Tot=              3.9735
 Quadrupole moment (field-independent basis, Debye-Ang):
   XX=           -271.2467   YY=           -261.3953   ZZ=           -277.0067
   XY=             -9.5794   XZ=             20.5617   YZ=             -1.5426

 Normal termination of Gaussian 16 at Tue Jul 30 19:41:01 2019.
