 Gaussian 16, Revision A.03,
 Gaussian 16:  ES64L-G16RevA.03 25-Dec-2016

 -------------------------------------
 # td=(NStates=1) CAM-B3LYP/6-31G(d,p)
 -------------------------------------

 --
 TD
 --
 Symbolic Z-matrix:
 Charge =  0 Multiplicity = 1

                         Standard orientation:
 ---------------------------------------------------------------------
 Center     Atomic      Atomic             Coordinates (Angstroms)
 Number     Number       Type             X           Y           Z
 ---------------------------------------------------------------------
      1          8           0      -11.864750    0.207395   -1.500567
      2          8           0      -12.725032   -2.564100    1.431022
      3          8           0       10.474921   -1.333405   -1.977061
      4          8           0       14.495332   -1.172056   -0.263360
      5          6           0      -11.061208   -0.211263   -0.341845
      6          6           0      -11.693169   -1.103410   -1.149467
      7          6           0      -11.723243    0.204782    1.026272
      8          6           0      -13.063291   -1.805007   -0.898380
      9          6           0      -13.190749   -0.186146    1.018114
     10          6           0      -13.524285   -1.654324    0.620522
     11          6           0      -10.848685   -1.909539   -2.234662
     12          6           0       -9.643523    0.088156   -0.463347
     13          6           0      -10.922458   -0.317460    2.251537
     14          6           0      -11.736221    1.734064    0.919366
     15          6           0       -8.678584   -0.695150    0.017831
     16          6           0       -7.189180   -0.522081   -0.027950
     17          6           0       -6.287702   -1.710840    0.260253
     18          6           0       -6.718208    0.760781   -0.215495
     19          6           0       -5.253353    0.961820   -0.241903
     20          6           0       12.011367    0.041280    1.335661
     21          6           0       11.627602   -0.783145   -1.340080
     22          6           0       12.752740   -1.311895    1.560543
     23          6           0       13.399074   -1.874224    0.241739
     24          6           0       12.378519   -1.988441   -0.846529
     25          6           0       11.128706   -0.041153    0.050048
     26          6           0       11.184853    0.285221    2.514885
     27          6           0       12.955084    1.223683    1.125228
     28          6           0       12.289014    0.256159   -2.133892
     29          6           0       -4.773065    2.249221   -0.255164
     30          6           0        9.931026    0.471123    0.038388
     31          6           0       -3.385037    2.642651   -0.354629
     32          6           0        8.696589    0.868388   -0.275801
     33          6           0       -3.007111    4.021874   -0.782612
     34          6           0       -2.306839    1.730332   -0.263920
     35          6           0        7.331159    0.201746   -0.055084
     36          6           0        7.480609   -1.249062    0.333458
     37          6           0        6.201542    0.805470   -0.025066
     38          6           0       -0.982642    2.067924   -0.269451
     39          6           0        4.873751    0.327577    0.099485
     40          6           0        0.023284    1.075552   -0.141109
     41          6           0        3.810252    1.090965    0.098864
     42          6           0        1.421584    1.287921   -0.087616
     43          6           0        2.467624    0.485521    0.138628
     44          6           0        2.421373   -0.953036    0.484107
     45          1           0      -13.140408   -3.009264   -1.097037
     46          1           0      -13.662320   -1.348890   -1.564739
     47          1           0      -13.607445   -0.058488    1.892462
     48          1           0      -13.777758    0.338115    0.203530
     49          1           0      -14.582054   -1.704731    0.718429
     50          1           0      -10.669025   -2.903224   -1.905585
     51          1           0      -11.490749   -2.098804   -3.088221
     52          1           0       -9.994400   -1.326212   -2.573092
     53          1           0       -9.553478    0.966694   -0.874274
     54          1           0       -9.917198    0.195168    2.187764
     55          1           0      -11.361187    0.213320    3.167062
     56          1           0      -11.024902   -1.382441    2.298169
     57          1           0      -11.955207    2.203102   -0.004116
     58          1           0      -12.354467    2.133780    1.851088
     59          1           0      -10.643671    2.096307    1.020074
     60          1           0      -11.818937   -2.720039    1.106585
     61          1           0       -8.948111   -1.660309    0.383172
     62          1           0       -5.913480   -1.894712   -0.808012
     63          1           0       -5.738272   -1.359985    1.101545
     64          1           0       -7.089463   -2.443276    0.471725
     65          1           0       -7.450741    1.662897   -0.197033
     66          1           0       -4.673782    0.144534   -0.326202
     67          1           0       13.672011   -1.210012    2.280169
     68          1           0       12.005302   -2.005974    1.897565
     69          1           0       13.865392   -2.884168    0.441249
     70          1           0       12.956240   -2.361763   -1.698523
     71          1           0       11.554880   -2.756738   -0.551541
     72          1           0       11.964718    0.436217    3.258144
     73          1           0       10.769973    1.290844    2.520348
     74          1           0       10.236278   -0.522388    2.673397
     75          1           0       13.541204    1.037197    0.250129
     76          1           0       12.454671    2.106356    0.910263
     77          1           0       13.654319    1.499017    2.001885
     78          1           0       12.266696   -0.054788   -3.245248
     79          1           0       11.668791    1.362700   -2.168182
     80          1           0       13.213962    0.456522   -1.655102
     81          1           0       -5.530107    3.000217   -0.228395
     82          1           0        9.991342   -0.479756   -2.339400
     83          1           0       14.992567   -0.798838    0.513906
     84          1           0        8.549252    1.914614   -0.702615
     85          1           0       -2.407336    4.582879   -0.047876
     86          1           0       -2.294128    3.973468   -1.752283
     87          1           0       -3.836930    4.720860   -1.069155
     88          1           0       -2.597954    0.624596   -0.070890
     89          1           0        6.704656   -2.018034    0.255564
     90          1           0        8.134152   -1.776949   -0.231396
     91          1           0        7.646721   -1.463305    1.398230
     92          1           0        6.385719    1.799595   -0.399367
     93          1           0       -0.534689    3.083990   -0.248342
     94          1           0        4.646098   -0.705288    0.371932
     95          1           0       -0.420811    0.098872   -0.016019
     96          1           0        3.833915    2.144497    0.202623
     97          1           0        1.712732    2.242637   -0.107950
     98          1           0        1.363224   -1.217440    1.063711
     99          1           0        2.440536   -1.531382   -0.508460
    100          1           0        3.336701   -1.130688    1.132479
 ---------------------------------------------------------------------

 SCF Done:  E(RCAM-B3LYP) =  -1857.37304270     A.U. after   15 cycles

 Excitation energies and oscillator strengths:

 Excited State   1:      Singlet-A      2.4326 eV  509.69 nm  f=2.6450  <S**2>=0.000
     163 ->166         0.12522
     164 ->165         0.69607
 This state for optimization and/or second-order correction.
 Total Energy, E(TD-HF/TD-DFT) =  -1857.28364792
 Copying the excited state density for this state as the 1-particle RhoCI density.

 The electronic state is 1-A.
 Alpha  occ. eigenvalues --  -19.22515 -19.22023 -19.21958 -19.21323 -10.32426
 Alpha  occ. eigenvalues --  -10.31319 -10.31192 -10.31005 -10.30784 -10.28054
 Alpha  occ. eigenvalues --  -10.27860 -10.27610 -10.27494 -10.27439 -10.27280
 Alpha  occ. eigenvalues --  -10.27037 -10.26989 -10.26885 -10.26836 -10.26783
 Alpha  occ. eigenvalues --  -10.26771 -10.26639 -10.26633 -10.26543 -10.26521
 Alpha  occ. eigenvalues --  -10.26483 -10.26475 -10.26428 -10.26420 -10.26160
 Alpha  occ. eigenvalues --  -10.25988 -10.25481 -10.25446 -10.25374 -10.25358
 Alpha  occ. eigenvalues --  -10.25196 -10.25111 -10.24985 -10.24767 -10.24577
 Alpha  occ. eigenvalues --  -10.24511 -10.24228 -10.23392 -10.23150  -1.17449
 Alpha  occ. eigenvalues --   -1.11116  -1.08980  -1.08219  -0.93179  -0.92889
 Alpha  occ. eigenvalues --   -0.92069  -0.91199  -0.90473  -0.89945  -0.87425
 Alpha  occ. eigenvalues --   -0.86818  -0.86268  -0.85173  -0.84514  -0.83441
 Alpha  occ. eigenvalues --   -0.82075  -0.81010  -0.80343  -0.78474  -0.76994
 Alpha  occ. eigenvalues --   -0.76900  -0.76453  -0.76365  -0.75952  -0.75706
 Alpha  occ. eigenvalues --   -0.75617  -0.74789  -0.73579  -0.71147  -0.69906
 Alpha  occ. eigenvalues --   -0.68747  -0.67352  -0.66476  -0.64351  -0.64115
 Alpha  occ. eigenvalues --   -0.63331  -0.61596  -0.60871  -0.60604  -0.59349
 Alpha  occ. eigenvalues --   -0.58984  -0.58026  -0.57567  -0.56850  -0.56752
 Alpha  occ. eigenvalues --   -0.56005  -0.55822  -0.54958  -0.54423  -0.54309
 Alpha  occ. eigenvalues --   -0.53838  -0.53505  -0.52608  -0.52389  -0.52341
 Alpha  occ. eigenvalues --   -0.52056  -0.51768  -0.51100  -0.50981  -0.50464
 Alpha  occ. eigenvalues --   -0.49922  -0.49655  -0.49174  -0.48890  -0.48779
 Alpha  occ. eigenvalues --   -0.48572  -0.48014  -0.47654  -0.47386  -0.47151
 Alpha  occ. eigenvalues --   -0.46944  -0.46258  -0.45982  -0.45714  -0.45465
 Alpha  occ. eigenvalues --   -0.45085  -0.44656  -0.44374  -0.44179  -0.44165
 Alpha  occ. eigenvalues --   -0.43538  -0.42783  -0.42542  -0.42466  -0.42436
 Alpha  occ. eigenvalues --   -0.42092  -0.41849  -0.41721  -0.41388  -0.40984
 Alpha  occ. eigenvalues --   -0.40752  -0.40613  -0.40180  -0.39957  -0.39937
 Alpha  occ. eigenvalues --   -0.39801  -0.39190  -0.39152  -0.38894  -0.38522
 Alpha  occ. eigenvalues --   -0.38456  -0.38242  -0.38102  -0.37939  -0.37701
 Alpha  occ. eigenvalues --   -0.37240  -0.36205  -0.35565  -0.34779  -0.34102
 Alpha  occ. eigenvalues --   -0.32990  -0.32244  -0.31818  -0.31094  -0.30696
 Alpha  occ. eigenvalues --   -0.29718  -0.27759  -0.25303  -0.20257
 Alpha virt. eigenvalues --   -0.05128   0.00291   0.03123   0.06439   0.07228
 Alpha virt. eigenvalues --    0.09667   0.09787   0.09941   0.12436   0.12642
 Alpha virt. eigenvalues --    0.12889   0.13484   0.13790   0.13924   0.14088

 Mulliken charges:
               1
     1  O   -0.501463
     2  O   -0.565272
     3  O   -0.558881
     4  O   -0.545120
     5  C    0.173204
     6  C    0.225104
     7  C    0.025717
     8  C   -0.215859
     9  C   -0.170304
    10  C    0.150096
    11  C   -0.330390
    12  C   -0.075410
    13  C   -0.300158
    14  C   -0.307681
    15  C   -0.066188
    16  C    0.012830
    17  C   -0.350762
    18  C   -0.102919
    19  C   -0.063115
    20  C    0.027681
    21  C    0.284142
    22  C   -0.194964
    23  C    0.158175
    24  C   -0.191782
    25  C   -0.095432
    26  C   -0.289253
    27  C   -0.323483
    28  C   -0.314797
    29  C   -0.124214
    30  C    0.162042
    31  C    0.094832
    32  C   -0.308354
    33  C   -0.380914
    34  C   -0.124968
    35  C    0.148604
    36  C   -0.399125
    37  C   -0.126745
    38  C   -0.064499
    39  C   -0.087606
    40  C   -0.092150
    41  C   -0.083541
    42  C   -0.118450
    43  C    0.113770
    44  C   -0.369030
    45  H    0.079091
    46  H    0.127610
    47  H    0.098268
    48  H    0.101503
    49  H    0.106564
    50  H    0.097982
    51  H    0.107786
    52  H    0.116177
    53  H    0.094515
    54  H    0.112628
    55  H    0.096050
    56  H    0.102811
    57  H    0.137522
    58  H    0.083894
    59  H    0.073091
    60  H    0.313327
    61  H    0.061395
    62  H    0.139851
    63  H    0.148796
    64  H    0.107348
    65  H    0.089051
    66  H    0.085840
    67  H    0.069882
    68  H    0.115132
    69  H    0.077549
    70  H    0.111057
    71  H    0.119109
    72  H    0.094608
    73  H    0.107705
    74  H    0.089649
    75  H    0.111532
    76  H    0.119921
    77  H    0.081392
    78  H    0.109705
    79  H    0.070945
    80  H    0.144958
    81  H    0.083372
    82  H    0.309484
    83  H    0.310839
    84  H    0.092007
    85  H    0.123080
    86  H    0.110074
    87  H    0.105330
    88  H    0.078186
    89  H    0.096683
    90  H    0.136548
    91  H    0.112308
    92  H    0.066550
    93  H    0.090144
    94  H    0.083666
    95  H    0.070166
    96  H    0.088181
    97  H    0.060746
    98  H    0.095823
    99  H    0.128093
   100  H    0.121106
 Sum of Mulliken charges =  -0.00000

 Dipole moment (field-independent basis, Debye):
    X=              2.9064    Y=              0.5631    Z=              1.4208  Tot=              3.2838
 Quadrupole moment (field-independent basis, Debye-Ang):
   XX=           -264.0093   YY=           -262.6497   ZZ=           -278.0412
   XY=             11.8784   XZ=             24.5222   YZ=             -1.1502

 Normal termination of Gaussian 16 at Wed Jul 31 13:15:31 2019.
