 Gaussian 16, Revision A.03,
 Gaussian 16:  ES64L-G16RevA.03 25-Dec-2016

 -------------------------------------
 # td=(NStates=1) CAM-B3LYP/6-31G(d,p)
 -------------------------------------

 --
 TD
 --
 Symbolic Z-matrix:
 Charge =  0 Multiplicity = 1

                         Standard orientation:
 ---------------------------------------------------------------------
 Center     Atomic      Atomic             Coordinates (Angstroms)
 Number     Number       Type             X           Y           Z
 ---------------------------------------------------------------------
      1          8           0      -11.826197    0.218561   -1.600843
      2          8           0      -13.069565   -2.172790    1.750826
      3          8           0       10.575737   -0.839016   -2.037710
      4          8           0       14.502388   -0.878227   -0.224533
      5          6           0      -11.131619   -0.158759   -0.384436
      6          6           0      -11.727700   -1.231146   -1.174283
      7          6           0      -11.796092    0.516625    0.888927
      8          6           0      -13.069428   -1.812822   -0.732294
      9          6           0      -13.256973    0.057426    0.831535
     10          6           0      -13.511479   -1.378152    0.595656
     11          6           0      -10.897623   -2.037115   -2.125743
     12          6           0       -9.638342    0.090166   -0.411502
     13          6           0      -11.095171    0.063550    2.147501
     14          6           0      -11.769943    2.058431    0.746220
     15          6           0       -8.673202   -0.715913    0.087325
     16          6           0       -7.153795   -0.602610    0.110313
     17          6           0       -6.450687   -2.003622    0.254118
     18          6           0       -6.651399    0.686369   -0.173953
     19          6           0       -5.241615    0.923474   -0.173599
     20          6           0       11.968812   -0.054179    1.374083
     21          6           0       11.679060   -0.465377   -1.254189
     22          6           0       12.737505   -1.422291    1.421087
     23          6           0       13.449457   -1.737829    0.106038
     24          6           0       12.483498   -1.779874   -1.071857
     25          6           0       11.100791    0.088777    0.114242
     26          6           0       11.120453   -0.034620    2.660269
     27          6           0       12.935482    1.114703    1.420070
     28          6           0       12.403801    0.632078   -2.006573
     29          6           0       -4.678569    2.247843   -0.328186
     30          6           0        9.871954    0.485492    0.212498
     31          6           0       -3.326012    2.456911   -0.273211
     32          6           0        8.663741    0.986177    0.128058
     33          6           0       -2.833377    3.825003   -0.674170
     34          6           0       -2.265166    1.491672   -0.164363
     35          6           0        7.381635    0.194365    0.064286
     36          6           0        7.624185   -1.260603    0.135181
     37          6           0        6.222294    0.793003    0.030167
     38          6           0       -0.885447    1.668635   -0.254604
     39          6           0        4.923331    0.053449   -0.046641
     40          6           0        0.050422    0.737883   -0.123874
     41          6           0        3.747775    0.786899   -0.266014
     42          6           0        1.417608    1.065532   -0.183443
     43          6           0        2.530928    0.177193   -0.170452
     44          6           0        2.324337   -1.325577    0.109568
     45          1           0      -13.090524   -3.085993   -0.752247
     46          1           0      -13.869687   -1.667939   -1.667411
     47          1           0      -13.662251    0.285411    1.833561
     48          1           0      -13.751941    0.599846    0.053336
     49          1           0      -14.679536   -1.616078    0.455428
     50          1           0      -10.843479   -3.137863   -1.951619
     51          1           0      -11.659690   -2.042626   -3.110537
     52          1           0       -9.841091   -1.689618   -2.303828
     53          1           0       -9.422464    1.176811   -0.757121
     54          1           0       -9.984932    0.627193    2.187524
     55          1           0      -11.667322    0.385974    2.944630
     56          1           0      -11.153941   -1.010908    2.332167
     57          1           0      -12.244964    2.470926   -0.333053
     58          1           0      -12.325613    2.570066    1.802124
     59          1           0      -10.808978    2.448030    1.076892
     60          1           0      -12.081388   -2.550434    1.724964
     61          1           0       -8.949563   -1.737747    0.363787
     62          1           0       -6.076507   -2.461464   -0.748978
     63          1           0       -5.574259   -1.673738    0.876735
     64          1           0       -7.041004   -2.753059    0.943934
     65          1           0       -7.174894    1.452821   -0.437069
     66          1           0       -4.555914    0.206474   -0.031192
     67          1           0       13.374031   -1.331478    2.401897
     68          1           0       12.196281   -2.386768    1.638391
     69          1           0       13.772302   -2.751138    0.236198
     70          1           0       12.961515   -1.977297   -1.978723
     71          1           0       11.861828   -2.556497   -1.070476
     72          1           0       11.765056    0.048692    3.598468
     73          1           0       10.440958    0.852911    2.786642
     74          1           0       10.528185   -0.773811    2.656668
     75          1           0       13.577098    1.252826    0.411274
     76          1           0       12.431249    2.210922    1.619738
     77          1           0       13.715833    0.925878    2.306066
     78          1           0       12.894267    0.296109   -2.866246
     79          1           0       11.697786    1.589074   -2.079099
     80          1           0       13.234009    1.151481   -1.744921
     81          1           0       -5.189629    2.989244   -0.492771
     82          1           0       10.064092   -0.048689   -1.921631
     83          1           0       15.132699   -0.533794    0.517148
     84          1           0        8.482011    2.181994   -0.216969
     85          1           0       -2.359641    4.425680    0.146372
     86          1           0       -2.405465    3.604772   -1.674131
     87          1           0       -3.571066    4.605883   -0.838793
     88          1           0       -2.604920    0.524516   -0.081801
     89          1           0        6.749575   -1.911973    0.118241
     90          1           0        8.526653   -1.672167   -0.466875
     91          1           0        7.707880   -1.584746    1.179888
     92          1           0        6.274657    1.868160   -0.193857
     93          1           0       -0.449473    2.701311   -0.467371
     94          1           0        4.791758   -0.947635    0.468034
     95          1           0       -0.392510   -0.258923    0.327579
     96          1           0        3.878147    1.878281   -0.642170
     97          1           0        1.758469    2.124358   -0.344442
     98          1           0        1.205849   -1.422632   -0.204283
     99          1           0        2.891538   -2.030349   -0.509956
    100          1           0        2.559442   -1.555493    1.115410
 ---------------------------------------------------------------------

 SCF Done:  E(RCAM-B3LYP) =  -1857.25183317     A.U. after   15 cycles

 Excitation energies and oscillator strengths:

 Excited State   1:      Singlet-A      2.0631 eV  600.97 nm  f=2.7543  <S**2>=0.000
     163 ->166        -0.12071
     164 ->165         0.70106
     164 <-165        -0.11150
 This state for optimization and/or second-order correction.
 Total Energy, E(TD-HF/TD-DFT) =  -1857.17601735
 Copying the excited state density for this state as the 1-particle RhoCI density.

 The electronic state is 1-A.
 Alpha  occ. eigenvalues --  -19.22200 -19.21931 -19.21726 -19.20489 -10.32724
 Alpha  occ. eigenvalues --  -10.32171 -10.31864 -10.31701 -10.30699 -10.29635
 Alpha  occ. eigenvalues --  -10.29224 -10.29177 -10.28372 -10.28097 -10.27897
 Alpha  occ. eigenvalues --  -10.27684 -10.27450 -10.27388 -10.27243 -10.27201
 Alpha  occ. eigenvalues --  -10.27017 -10.26959 -10.26910 -10.26840 -10.26725
 Alpha  occ. eigenvalues --  -10.26631 -10.26620 -10.26529 -10.26417 -10.26363
 Alpha  occ. eigenvalues --  -10.26330 -10.26263 -10.26004 -10.25981 -10.25387
 Alpha  occ. eigenvalues --  -10.25336 -10.25257 -10.25073 -10.24996 -10.24659
 Alpha  occ. eigenvalues --  -10.24158 -10.23711 -10.23585 -10.23401  -1.12852
 Alpha  occ. eigenvalues --   -1.11240  -1.08920  -1.06916  -0.92506  -0.92375
 Alpha  occ. eigenvalues --   -0.91545  -0.91037  -0.90399  -0.89676  -0.87703
 Alpha  occ. eigenvalues --   -0.87008  -0.86218  -0.85036  -0.84667  -0.82462
 Alpha  occ. eigenvalues --   -0.81894  -0.80808  -0.80317  -0.78236  -0.76989
 Alpha  occ. eigenvalues --   -0.76938  -0.76546  -0.76465  -0.75980  -0.75204
 Alpha  occ. eigenvalues --   -0.75064  -0.73881  -0.73454  -0.70255  -0.69671
 Alpha  occ. eigenvalues --   -0.68158  -0.67812  -0.64944  -0.64740  -0.64404
 Alpha  occ. eigenvalues --   -0.63786  -0.62389  -0.60985  -0.60457  -0.59402
 Alpha  occ. eigenvalues --   -0.58678  -0.58501  -0.57738  -0.57258  -0.56242
 Alpha  occ. eigenvalues --   -0.55599  -0.55316  -0.55021  -0.54486  -0.54323
 Alpha  occ. eigenvalues --   -0.53212  -0.52842  -0.52500  -0.52208  -0.51643
 Alpha  occ. eigenvalues --   -0.50876  -0.50682  -0.50391  -0.50160  -0.49569
 Alpha  occ. eigenvalues --   -0.49368  -0.49120  -0.48930  -0.48759  -0.48638
 Alpha  occ. eigenvalues --   -0.48112  -0.47843  -0.47056  -0.46898  -0.46440
 Alpha  occ. eigenvalues --   -0.45893  -0.45789  -0.45674  -0.45345  -0.44977
 Alpha  occ. eigenvalues --   -0.44809  -0.44502  -0.44338  -0.43472  -0.43322
 Alpha  occ. eigenvalues --   -0.42956  -0.42562  -0.42451  -0.42279  -0.42005
 Alpha  occ. eigenvalues --   -0.41735  -0.41195  -0.40856  -0.40741  -0.40580
 Alpha  occ. eigenvalues --   -0.40536  -0.40335  -0.40312  -0.40040  -0.39799
 Alpha  occ. eigenvalues --   -0.39326  -0.39187  -0.39129  -0.38736  -0.38556
 Alpha  occ. eigenvalues --   -0.38520  -0.37823  -0.37635  -0.37583  -0.37092
 Alpha  occ. eigenvalues --   -0.36333  -0.35545  -0.35108  -0.34792  -0.33933
 Alpha  occ. eigenvalues --   -0.32589  -0.32401  -0.31710  -0.31605  -0.30753
 Alpha  occ. eigenvalues --   -0.29779  -0.28512  -0.24543  -0.19188
 Alpha virt. eigenvalues --   -0.06295  -0.00383   0.03928   0.05968   0.06560
 Alpha virt. eigenvalues --    0.08376   0.10047   0.10287   0.10476   0.11389
 Alpha virt. eigenvalues --    0.12020   0.12557   0.12902   0.13169   0.13278

 Mulliken charges:
               1
     1  O   -0.519504
     2  O   -0.571121
     3  O   -0.544975
     4  O   -0.567324
     5  C    0.208640
     6  C    0.249048
     7  C    0.033095
     8  C   -0.210616
     9  C   -0.166187
    10  C    0.171078
    11  C   -0.327931
    12  C   -0.116730
    13  C   -0.282877
    14  C   -0.295580
    15  C   -0.077419
    16  C    0.045998
    17  C   -0.363317
    18  C   -0.059018
    19  C   -0.065699
    20  C    0.020435
    21  C    0.244410
    22  C   -0.197841
    23  C    0.179196
    24  C   -0.184698
    25  C   -0.083247
    26  C   -0.290795
    27  C   -0.290132
    28  C   -0.288731
    29  C   -0.066028
    30  C    0.168468
    31  C    0.070999
    32  C   -0.304097
    33  C   -0.386684
    34  C   -0.133574
    35  C    0.169634
    36  C   -0.394681
    37  C   -0.137607
    38  C   -0.057537
    39  C   -0.123593
    40  C   -0.087683
    41  C   -0.099865
    42  C   -0.137257
    43  C    0.101472
    44  C   -0.370656
    45  H    0.080829
    46  H    0.109291
    47  H    0.100845
    48  H    0.115319
    49  H    0.091232
    50  H    0.107081
    51  H    0.094457
    52  H    0.131143
    53  H    0.099021
    54  H    0.087819
    55  H    0.114242
    56  H    0.074254
    57  H    0.119381
    58  H    0.060135
    59  H    0.109203
    60  H    0.308925
    61  H    0.060318
    62  H    0.135758
    63  H    0.125266
    64  H    0.115321
    65  H    0.077565
    66  H    0.073096
    67  H    0.078512
    68  H    0.098270
    69  H    0.074418
    70  H    0.119328
    71  H    0.119532
    72  H    0.083720
    73  H    0.099605
    74  H    0.115390
    75  H    0.110002
    76  H    0.088288
    77  H    0.066342
    78  H    0.113232
    79  H    0.070516
    80  H    0.122030
    81  H    0.046585
    82  H    0.300354
    83  H    0.317465
    84  H    0.085732
    85  H    0.119552
    86  H    0.139050
    87  H    0.097697
    88  H    0.063238
    89  H    0.100054
    90  H    0.136916
    91  H    0.115810
    92  H    0.075566
    93  H    0.083294
    94  H    0.088818
    95  H    0.087488
    96  H    0.086966
    97  H    0.084004
    98  H    0.107301
    99  H    0.121191
   100  H    0.133761
 Sum of Mulliken charges =  -0.00000

 Dipole moment (field-independent basis, Debye):
    X=              1.4837    Y=             -1.0163    Z=              1.9413  Tot=              2.6463
 Quadrupole moment (field-independent basis, Debye-Ang):
   XX=           -272.7006   YY=           -253.0415   ZZ=           -281.9326
   XY=             11.2890   XZ=             29.6463   YZ=             -3.0547

 Normal termination of Gaussian 16 at Tue Jul 30 12:49:33 2019.
