 Gaussian 16, Revision A.03,
 Gaussian 16:  ES64L-G16RevA.03 25-Dec-2016

 -------------------------------------
 # td=(NStates=1) CAM-B3LYP/6-31G(d,p)
 -------------------------------------

 --
 TD
 --
 Symbolic Z-matrix:
 Charge =  0 Multiplicity = 1

                         Standard orientation:
 ---------------------------------------------------------------------
 Center     Atomic      Atomic             Coordinates (Angstroms)
 Number     Number       Type             X           Y           Z
 ---------------------------------------------------------------------
      1          8           0      -11.633681    0.315663   -1.518794
      2          8           0      -12.958775   -2.659056    1.004801
      3          8           0       10.440895   -0.953565   -2.062976
      4          8           0       14.440610   -0.968915   -0.271661
      5          6           0      -11.043891   -0.129643   -0.247456
      6          6           0      -11.617018   -1.169087   -1.374688
      7          6           0      -11.751897    0.168693    1.019257
      8          6           0      -12.954794   -1.707673   -1.221275
      9          6           0      -13.173406   -0.224974    0.907994
     10          6           0      -13.419290   -1.621547    0.227439
     11          6           0      -10.713341   -1.819160   -2.231965
     12          6           0       -9.580140    0.111647   -0.290224
     13          6           0      -11.045932   -0.365964    2.263130
     14          6           0      -11.708548    1.700343    1.301620
     15          6           0       -8.615522   -0.605904    0.268477
     16          6           0       -7.134997   -0.477425    0.249499
     17          6           0       -6.251981   -1.687580    0.584806
     18          6           0       -6.512988    0.709615   -0.048227
     19          6           0       -5.175431    1.047706   -0.074283
     20          6           0       11.925064   -0.175495    1.413066
     21          6           0       11.531311   -0.490800   -1.283568
     22          6           0       12.688935   -1.506454    1.332189
     23          6           0       13.287110   -1.869350    0.002849
     24          6           0       12.363133   -1.805102   -1.088006
     25          6           0       11.042328    0.052024    0.162207
     26          6           0       11.014673   -0.141114    2.627327
     27          6           0       12.873451    1.061407    1.447475
     28          6           0       12.229609    0.458880   -2.200709
     29          6           0       -4.681297    2.340121   -0.388909
     30          6           0        9.851291    0.511087    0.091260
     31          6           0       -3.323524    2.699307   -0.388337
     32          6           0        8.628173    1.053144    0.068351
     33          6           0       -2.922083    4.110688   -0.698456
     34          6           0       -2.313731    1.697781   -0.120694
     35          6           0        7.346304    0.178780    0.056655
     36          6           0        7.654107   -1.277188    0.223270
     37          6           0        6.162169    0.808103   -0.019371
     38          6           0       -0.979720    2.063960   -0.316755
     39          6           0        4.971575    0.106096    0.078185
     40          6           0       -0.002090    1.038074   -0.220060
     41          6           0        3.787095    0.847966    0.012427
     42          6           0        1.380572    1.265943   -0.074401
     43          6           0        2.450115    0.405349    0.049866
     44          6           0        2.303728   -1.198138    0.197261
     45          1           0      -12.833511   -2.737731   -1.371387
     46          1           0      -13.787083   -1.321061   -1.766979
     47          1           0      -13.657180   -0.357838    1.841855
     48          1           0      -13.566952    0.459248    0.186828
     49          1           0      -14.560758   -1.782986    0.075164
     50          1           0      -10.632687   -2.944563   -1.874696
     51          1           0      -11.271542   -1.841439   -3.258876
     52          1           0       -9.729923   -1.215828   -2.325214
     53          1           0       -9.443664    1.157279   -0.703614
     54          1           0      -10.247022    0.199501    2.485569
     55          1           0      -11.776356   -0.435129    2.988293
     56          1           0      -11.009282   -1.468134    2.201207
     57          1           0      -11.997594    2.385178    0.490137
     58          1           0      -12.330404    1.930358    2.177419
     59          1           0      -10.612225    1.858711    1.459249
     60          1           0      -11.995643   -2.676005    0.946672
     61          1           0       -8.862530   -1.447349    0.563434
     62          1           0       -5.864518   -2.014755   -0.366033
     63          1           0       -5.537799   -1.834342    1.345401
     64          1           0       -6.876690   -2.468918    0.855250
     65          1           0       -7.168688    1.482077   -0.139167
     66          1           0       -4.608279    0.214825    0.123816
     67          1           0       13.470155   -1.526849    2.010796
     68          1           0       12.017977   -2.324064    1.748985
     69          1           0       13.774156   -2.895366    0.173071
     70          1           0       12.938603   -2.144925   -2.255107
     71          1           0       11.527981   -2.627931   -1.022787
     72          1           0       11.628168   -0.408103    3.410458
     73          1           0       10.460515    0.871589    2.732122
     74          1           0       10.118825   -0.782158    2.661720
     75          1           0       13.243566    1.306489    0.522229
     76          1           0       12.382716    2.117516    1.857293
     77          1           0       13.818206    0.866169    2.109370
     78          1           0       12.523062    0.084130   -3.158182
     79          1           0       11.641231    1.226267   -2.604516
     80          1           0       13.139688    0.852967   -1.674374
     81          1           0       -5.420166    3.087506   -0.533654
     82          1           0        9.850681   -0.309128   -2.232688
     83          1           0       14.873478   -0.983507    0.622447
     84          1           0        8.418751    2.090236   -0.117987
     85          1           0       -2.479387    4.818222    0.196032
     86          1           0       -2.261333    4.305756   -1.656389
     87          1           0       -4.010861    4.720026   -0.972937
     88          1           0       -2.728727    0.741517    0.176932
     89          1           0        6.803631   -1.802860   -0.043595
     90          1           0        8.512121   -1.696739   -0.347617
     91          1           0        8.033194   -1.333021    1.311333
     92          1           0        6.408751    1.824964   -0.093518
     93          1           0       -0.853502    3.063733   -0.618199
     94          1           0        5.110641   -0.866614    0.140745
     95          1           0       -0.310356   -0.041335   -0.045227
     96          1           0        4.003535    1.967334   -0.092122
     97          1           0        1.556781    2.416293   -0.130444
     98          1           0        1.149546   -1.314941    0.200753
     99          1           0        2.794808   -1.870894   -0.478898
    100          1           0        2.506774   -1.431121    1.275299
 ---------------------------------------------------------------------

 SCF Done:  E(RCAM-B3LYP) =  -1857.33400744     A.U. after   15 cycles

 Excitation energies and oscillator strengths:

 Excited State   1:      Singlet-A      1.9586 eV  633.02 nm  f=2.8531  <S**2>=0.000
     163 ->166         0.11869
     164 ->165         0.70332
     164 <-165        -0.11828
 This state for optimization and/or second-order correction.
 Total Energy, E(TD-HF/TD-DFT) =  -1857.26202940
 Copying the excited state density for this state as the 1-particle RhoCI density.

 The electronic state is 1-A.
 Alpha  occ. eigenvalues --  -19.21886 -19.21602 -19.21477 -19.20164 -10.32681
 Alpha  occ. eigenvalues --  -10.31736 -10.31593 -10.31274 -10.30402 -10.29373
 Alpha  occ. eigenvalues --  -10.29259 -10.28124 -10.27735 -10.27705 -10.27524
 Alpha  occ. eigenvalues --  -10.27479 -10.27477 -10.27345 -10.27310 -10.26931
 Alpha  occ. eigenvalues --  -10.26917 -10.26844 -10.26794 -10.26780 -10.26773
 Alpha  occ. eigenvalues --  -10.26647 -10.26619 -10.26599 -10.26464 -10.26402
 Alpha  occ. eigenvalues --  -10.26308 -10.25696 -10.25634 -10.25231 -10.25134
 Alpha  occ. eigenvalues --  -10.24918 -10.24753 -10.24676 -10.24655 -10.24396
 Alpha  occ. eigenvalues --  -10.24143 -10.23744 -10.23502 -10.23227  -1.11919
 Alpha  occ. eigenvalues --   -1.11432  -1.11021  -1.08461  -0.93367  -0.92591
 Alpha  occ. eigenvalues --   -0.92209  -0.91944  -0.90752  -0.89590  -0.88462
 Alpha  occ. eigenvalues --   -0.87324  -0.86552  -0.86238  -0.85019  -0.83399
 Alpha  occ. eigenvalues --   -0.82403  -0.81680  -0.80764  -0.78219  -0.77609
 Alpha  occ. eigenvalues --   -0.77451  -0.76822  -0.76691  -0.76474  -0.76246
 Alpha  occ. eigenvalues --   -0.75782  -0.74761  -0.73111  -0.70895  -0.70307
 Alpha  occ. eigenvalues --   -0.69305  -0.67803  -0.65966  -0.65641  -0.64175
 Alpha  occ. eigenvalues --   -0.63256  -0.61444  -0.61038  -0.60913  -0.59731
 Alpha  occ. eigenvalues --   -0.59165  -0.59004  -0.57780  -0.57060  -0.56783
 Alpha  occ. eigenvalues --   -0.56037  -0.55586  -0.55489  -0.55159  -0.54553
 Alpha  occ. eigenvalues --   -0.54113  -0.53163  -0.53021  -0.52842  -0.52612
 Alpha  occ. eigenvalues --   -0.52542  -0.51877  -0.51678  -0.50195  -0.49967
 Alpha  occ. eigenvalues --   -0.49771  -0.49540  -0.49002  -0.48730  -0.48443
 Alpha  occ. eigenvalues --   -0.48296  -0.48067  -0.47940  -0.47241  -0.46931
 Alpha  occ. eigenvalues --   -0.46844  -0.46409  -0.46078  -0.45833  -0.45729
 Alpha  occ. eigenvalues --   -0.45690  -0.45089  -0.44348  -0.43910  -0.43871
 Alpha  occ. eigenvalues --   -0.43686  -0.43124  -0.42889  -0.42756  -0.42504
 Alpha  occ. eigenvalues --   -0.42333  -0.42168  -0.42017  -0.41874  -0.41207
 Alpha  occ. eigenvalues --   -0.41168  -0.40887  -0.40641  -0.40341  -0.40191
 Alpha  occ. eigenvalues --   -0.40027  -0.39595  -0.39534  -0.39335  -0.39076
 Alpha  occ. eigenvalues --   -0.38924  -0.38067  -0.37694  -0.37617  -0.37449
 Alpha  occ. eigenvalues --   -0.37142  -0.36181  -0.35251  -0.34193  -0.33080
 Alpha  occ. eigenvalues --   -0.33047  -0.32884  -0.31883  -0.31348  -0.30670
 Alpha  occ. eigenvalues --   -0.29761  -0.28084  -0.24287  -0.18963
 Alpha virt. eigenvalues --   -0.06660  -0.00486   0.03513   0.06607   0.06887
 Alpha virt. eigenvalues --    0.09394   0.09622   0.10458   0.10806   0.12173
 Alpha virt. eigenvalues --    0.12552   0.12863   0.13270   0.14142   0.14370

 Mulliken charges:
               1
     1  O   -0.533452
     2  O   -0.533153
     3  O   -0.543052
     4  O   -0.552884
     5  C    0.203918
     6  C    0.251451
     7  C   -0.005558
     8  C   -0.200886
     9  C   -0.181625
    10  C    0.130132
    11  C   -0.330245
    12  C   -0.128892
    13  C   -0.288239
    14  C   -0.309510
    15  C   -0.014533
    16  C    0.032485
    17  C   -0.393946
    18  C   -0.088527
    19  C   -0.053120
    20  C    0.050409
    21  C    0.254988
    22  C   -0.216606
    23  C    0.156261
    24  C   -0.173511
    25  C   -0.129546
    26  C   -0.310678
    27  C   -0.293735
    28  C   -0.304377
    29  C   -0.124421
    30  C    0.208383
    31  C    0.098232
    32  C   -0.307377
    33  C   -0.381693
    34  C   -0.072832
    35  C    0.071206
    36  C   -0.378218
    37  C   -0.062417
    38  C   -0.084593
    39  C   -0.063607
    40  C   -0.095711
    41  C   -0.119530
    42  C   -0.121310
    43  C    0.087407
    44  C   -0.366958
    45  H    0.106905
    46  H    0.123786
    47  H    0.104959
    48  H    0.113118
    49  H    0.073673
    50  H    0.090671
    51  H    0.107579
    52  H    0.129782
    53  H    0.103913
    54  H    0.122876
    55  H    0.115617
    56  H    0.068372
    57  H    0.112583
    58  H    0.106727
    59  H    0.094039
    60  H    0.303238
    61  H    0.042807
    62  H    0.132201
    63  H    0.128770
    64  H    0.107792
    65  H    0.062034
    66  H    0.076143
    67  H    0.093965
    68  H    0.106450
    69  H    0.085810
    70  H    0.071712
    71  H    0.117126
    72  H    0.102920
    73  H    0.105752
    74  H    0.105112
    75  H    0.140785
    76  H    0.083522
    77  H    0.070111
    78  H    0.116949
    79  H    0.091941
    80  H    0.114916
    81  H    0.087364
    82  H    0.290719
    83  H    0.303314
    84  H    0.106270
    85  H    0.114684
    86  H    0.122033
    87  H    0.075619
    88  H    0.089004
    89  H    0.107897
    90  H    0.138734
    91  H    0.118323
    92  H    0.071813
    93  H    0.098603
    94  H    0.074232
    95  H    0.081947
    96  H    0.078060
    97  H    0.076019
    98  H    0.092043
    99  H    0.132444
   100  H    0.126094
 Sum of Mulliken charges =  -0.00000

 Dipole moment (field-independent basis, Debye):
    X=              2.5460    Y=             -0.7781    Z=              2.3293  Tot=              3.5374
 Quadrupole moment (field-independent basis, Debye-Ang):
   XX=           -288.3500   YY=           -259.2257   ZZ=           -275.0186
   XY=             -1.8277   XZ=             25.5356   YZ=             -3.9074

 Normal termination of Gaussian 16 at Wed Jul 31 06:56:48 2019.
