 Gaussian 16, Revision A.03,
 Gaussian 16:  ES64L-G16RevA.03 25-Dec-2016

 -------------------------------------
 # td=(NStates=1) CAM-B3LYP/6-31G(d,p)
 -------------------------------------

 --
 TD
 --
 Symbolic Z-matrix:
 Charge =  0 Multiplicity = 1

                         Standard orientation:
 ---------------------------------------------------------------------
 Center     Atomic      Atomic             Coordinates (Angstroms)
 Number     Number       Type             X           Y           Z
 ---------------------------------------------------------------------
      1          8           0      -11.729406    0.392480   -1.421684
      2          8           0      -13.372418   -2.548567    1.226818
      3          8           0       10.493511   -0.816492   -2.054693
      4          8           0       14.478095   -1.152997   -0.280488
      5          6           0      -11.015272   -0.209511   -0.211548
      6          6           0      -11.762636   -1.015714   -1.342834
      7          6           0      -11.653716    0.125178    0.953125
      8          6           0      -13.117553   -1.609393   -0.981883
      9          6           0      -13.271352   -0.105487    0.915860
     10          6           0      -13.644653   -1.365239    0.423083
     11          6           0      -10.923122   -1.751778   -2.330691
     12          6           0       -9.560047    0.050640   -0.393749
     13          6           0      -11.086740   -0.583503    2.176476
     14          6           0      -11.633017    1.670838    1.235094
     15          6           0       -8.638951   -0.844827    0.021728
     16          6           0       -7.175838   -0.529709    0.077958
     17          6           0       -6.231294   -1.660611    0.454322
     18          6           0       -6.653032    0.734520   -0.179538
     19          6           0       -5.271856    0.987096   -0.056428
     20          6           0       11.984704   -0.090713    1.341821
     21          6           0       11.611091   -0.592032   -1.286990
     22          6           0       12.683707   -1.433764    1.353403
     23          6           0       13.375990   -1.918647    0.026367
     24          6           0       12.378690   -1.857603   -1.049679
     25          6           0       11.032902    0.066969    0.098928
     26          6           0       11.036628   -0.026709    2.653049
     27          6           0       12.917211    1.055305    1.350288
     28          6           0       12.506696    0.511661   -1.998861
     29          6           0       -4.821064    2.260150   -0.231277
     30          6           0        9.912474    0.595096    0.191287
     31          6           0       -3.390460    2.631401   -0.272045
     32          6           0        8.731505    1.004151    0.180911
     33          6           0       -2.972476    4.099147   -0.712453
     34          6           0       -2.322436    1.683159   -0.103957
     35          6           0        7.481928    0.113364    0.200003
     36          6           0        7.793815   -1.289007    0.291028
     37          6           0        6.220171    0.746089    0.082371
     38          6           0       -1.022178    1.918848   -0.174384
     39          6           0        4.908062    0.154186    0.082545
     40          6           0        0.077821    0.930890   -0.202515
     41          6           0        3.892348    0.953587   -0.147461
     42          6           0        1.407524    1.248629   -0.210065
     43          6           0        2.565959    0.450508   -0.093962
     44          6           0        2.382123   -1.086447   -0.007673
     45          1           0      -13.065543   -2.544133   -1.125367
     46          1           0      -13.916594   -1.195745   -1.599153
     47          1           0      -13.662911    0.119977    1.830133
     48          1           0      -13.871002    0.507681    0.178888
     49          1           0      -14.616696   -1.619825    0.231313
     50          1           0      -10.672441   -2.887199   -2.032826
     51          1           0      -11.612591   -1.845002   -3.382900
     52          1           0      -10.004564   -1.137783   -2.813268
     53          1           0       -9.146988    0.913528   -0.841552
     54          1           0      -10.046690   -0.335966    2.263237
     55          1           0      -11.589932    0.024464    3.101287
     56          1           0      -11.227253   -1.740732    2.273879
     57          1           0      -12.131906    2.180257    0.435630
     58          1           0      -12.018023    1.841289    2.155108
     59          1           0      -10.443449    1.883925    1.256539
     60          1           0      -12.527203   -2.787943    1.361979
     61          1           0       -8.827215   -1.889958    0.431273
     62          1           0       -5.597218   -2.018395   -0.436414
     63          1           0       -5.798675   -1.420600    1.241564
     64          1           0       -6.869374   -2.506364    0.840006
     65          1           0       -7.237889    1.516496   -0.449308
     66          1           0       -4.633296    0.252586    0.362228
     67          1           0       13.507531   -1.648134    2.109783
     68          1           0       11.883559   -2.156758    1.467455
     69          1           0       13.871340   -2.967721   -0.048888
     70          1           0       13.015264   -1.999194   -2.171380
     71          1           0       11.651795   -2.662360   -1.146836
     72          1           0       11.787902    0.083313    3.381574
     73          1           0       10.602117    1.017468    2.753793
     74          1           0       10.302425   -0.785663    2.724773
     75          1           0       13.617001    1.331763    0.592550
     76          1           0       12.231877    1.907351    1.465790
     77          1           0       13.803992    1.129809    2.222204
     78          1           0       12.921363    0.010534   -2.946912
     79          1           0       12.000924    1.390084   -2.216914
     80          1           0       13.506025    0.851439   -1.562527
     81          1           0       -5.641141    3.024381   -0.624116
     82          1           0        9.989404   -0.115232   -2.208832
     83          1           0       15.205328   -0.903504    0.362516
     84          1           0        8.451758    1.983785    0.179968
     85          1           0       -2.264661    4.459777   -0.061814
     86          1           0       -2.594198    4.070885   -1.704364
     87          1           0       -3.991448    4.829546   -0.677037
     88          1           0       -2.494667    0.567124   -0.045828
     89          1           0        6.752971   -1.870252    0.356377
     90          1           0        8.425879   -1.552937   -0.517307
     91          1           0        8.415919   -1.543757    1.121151
     92          1           0        6.501419    1.762681    0.088723
     93          1           0       -0.520811    2.913347   -0.170642
     94          1           0        4.856423   -0.959025    0.009163
     95          1           0       -0.210789   -0.152368   -0.060707
     96          1           0        4.040205    2.028799   -0.326834
     97          1           0        1.499588    2.335014   -0.281444
     98          1           0        1.342210   -1.384749   -0.083243
     99          1           0        3.079867   -1.868741   -0.694743
    100          1           0        2.610881   -1.556947    0.942720
 ---------------------------------------------------------------------

 SCF Done:  E(RCAM-B3LYP) =  -1857.25291960     A.U. after   15 cycles

 Excitation energies and oscillator strengths:

 Excited State   1:      Singlet-A      2.0116 eV  616.33 nm  f=2.9717  <S**2>=0.000
     163 ->166         0.11329
     164 ->165         0.70403
     164 <-165        -0.12225
 This state for optimization and/or second-order correction.
 Total Energy, E(TD-HF/TD-DFT) =  -1857.17899295
 Copying the excited state density for this state as the 1-particle RhoCI density.

 The electronic state is 1-A.
 Alpha  occ. eigenvalues --  -19.21468 -19.20899 -19.20833 -19.18760 -10.33051
 Alpha  occ. eigenvalues --  -10.32548 -10.31751 -10.31145 -10.29222 -10.28803
 Alpha  occ. eigenvalues --  -10.28657 -10.28611 -10.28060 -10.27826 -10.27706
 Alpha  occ. eigenvalues --  -10.27545 -10.27421 -10.27407 -10.27013 -10.26931
 Alpha  occ. eigenvalues --  -10.26847 -10.26651 -10.26617 -10.26508 -10.26481
 Alpha  occ. eigenvalues --  -10.26364 -10.26309 -10.26158 -10.26046 -10.25969
 Alpha  occ. eigenvalues --  -10.25945 -10.25699 -10.25668 -10.25487 -10.25434
 Alpha  occ. eigenvalues --  -10.25365 -10.25239 -10.24756 -10.24632 -10.24614
 Alpha  occ. eigenvalues --  -10.24593 -10.24572 -10.24184 -10.23625  -1.13101
 Alpha  occ. eigenvalues --   -1.12905  -1.09914  -1.08826  -0.93010  -0.92777
 Alpha  occ. eigenvalues --   -0.91992  -0.91755  -0.90521  -0.89761  -0.88617
 Alpha  occ. eigenvalues --   -0.87383  -0.86526  -0.85829  -0.84507  -0.83472
 Alpha  occ. eigenvalues --   -0.81898  -0.81512  -0.80613  -0.78564  -0.77201
 Alpha  occ. eigenvalues --   -0.77106  -0.76787  -0.76071  -0.75996  -0.75970
 Alpha  occ. eigenvalues --   -0.75634  -0.75184  -0.72741  -0.71672  -0.70941
 Alpha  occ. eigenvalues --   -0.69097  -0.67302  -0.65537  -0.65111  -0.63768
 Alpha  occ. eigenvalues --   -0.63642  -0.62678  -0.61132  -0.60641  -0.60194
 Alpha  occ. eigenvalues --   -0.59613  -0.59340  -0.58061  -0.57688  -0.57354
 Alpha  occ. eigenvalues --   -0.55816  -0.55531  -0.55004  -0.54727  -0.54365
 Alpha  occ. eigenvalues --   -0.54321  -0.53470  -0.53226  -0.52907  -0.52267
 Alpha  occ. eigenvalues --   -0.51869  -0.51342  -0.50786  -0.50466  -0.49969
 Alpha  occ. eigenvalues --   -0.49808  -0.49599  -0.49507  -0.49256  -0.48694
 Alpha  occ. eigenvalues --   -0.48118  -0.47786  -0.47578  -0.47438  -0.46377
 Alpha  occ. eigenvalues --   -0.46101  -0.45844  -0.45662  -0.45276  -0.45056
 Alpha  occ. eigenvalues --   -0.44887  -0.44317  -0.43870  -0.43770  -0.43715
 Alpha  occ. eigenvalues --   -0.43281  -0.43117  -0.42926  -0.42569  -0.42336
 Alpha  occ. eigenvalues --   -0.42240  -0.42168  -0.41719  -0.41640  -0.41312
 Alpha  occ. eigenvalues --   -0.40801  -0.40600  -0.40420  -0.40107  -0.39912
 Alpha  occ. eigenvalues --   -0.39836  -0.39706  -0.39455  -0.39161  -0.38855
 Alpha  occ. eigenvalues --   -0.38476  -0.38162  -0.37962  -0.37836  -0.37010
 Alpha  occ. eigenvalues --   -0.35751  -0.35143  -0.34723  -0.34690  -0.33225
 Alpha  occ. eigenvalues --   -0.32803  -0.32100  -0.31760  -0.30819  -0.30389
 Alpha  occ. eigenvalues --   -0.29864  -0.27364  -0.24798  -0.18839
 Alpha virt. eigenvalues --   -0.06562  -0.00200   0.03031   0.06666   0.07925
 Alpha virt. eigenvalues --    0.09667   0.09983   0.10625   0.11249   0.11892
 Alpha virt. eigenvalues --    0.12732   0.12810   0.13403   0.13901   0.14038

 Mulliken charges:
               1
     1  O   -0.526386
     2  O   -0.578612
     3  O   -0.536043
     4  O   -0.568321
     5  C    0.178701
     6  C    0.311643
     7  C   -0.024502
     8  C   -0.205578
     9  C   -0.151032
    10  C    0.162703
    11  C   -0.332369
    12  C   -0.108873
    13  C   -0.293537
    14  C   -0.285729
    15  C   -0.060397
    16  C    0.024375
    17  C   -0.358230
    18  C   -0.085846
    19  C   -0.039532
    20  C    0.008434
    21  C    0.296709
    22  C   -0.193397
    23  C    0.195282
    24  C   -0.194696
    25  C   -0.163427
    26  C   -0.306525
    27  C   -0.289189
    28  C   -0.309744
    29  C   -0.138709
    30  C    0.276598
    31  C    0.043817
    32  C   -0.335357
    33  C   -0.353102
    34  C   -0.103507
    35  C    0.107492
    36  C   -0.382626
    37  C   -0.111180
    38  C   -0.085295
    39  C   -0.080487
    40  C   -0.092167
    41  C   -0.085315
    42  C   -0.124282
    43  C    0.104415
    44  C   -0.379105
    45  H    0.107476
    46  H    0.108783
    47  H    0.102575
    48  H    0.106763
    49  H    0.104386
    50  H    0.100097
    51  H    0.076567
    52  H    0.122903
    53  H    0.115147
    54  H    0.123104
    55  H    0.085641
    56  H    0.078999
    57  H    0.133392
    58  H    0.110048
    59  H    0.071441
    60  H    0.280746
    61  H    0.077700
    62  H    0.125744
    63  H    0.141912
    64  H    0.089021
    65  H    0.074690
    66  H    0.096456
    67  H    0.082848
    68  H    0.097319
    69  H    0.073173
    70  H    0.072284
    71  H    0.128038
    72  H    0.109068
    73  H    0.100155
    74  H    0.117334
    75  H    0.124839
    76  H    0.101954
    77  H    0.050303
    78  H    0.093234
    79  H    0.095651
    80  H    0.118614
    81  H    0.081611
    82  H    0.295473
    83  H    0.317677
    84  H    0.092667
    85  H    0.135999
    86  H    0.140661
    87  H    0.080852
    88  H    0.082188
    89  H    0.080820
    90  H    0.142337
    91  H    0.121314
    92  H    0.070368
    93  H    0.074545
    94  H    0.099450
    95  H    0.069906
    96  H    0.092160
    97  H    0.072771
    98  H    0.107952
    99  H    0.089488
   100  H    0.126283
 Sum of Mulliken charges =  -0.00000

 Dipole moment (field-independent basis, Debye):
    X=              2.8722    Y=             -0.0965    Z=              1.6573  Tot=              3.3174
 Quadrupole moment (field-independent basis, Debye-Ang):
   XX=           -258.8707   YY=           -260.6825   ZZ=           -278.8893
   XY=              2.7793   XZ=             21.0334   YZ=             -2.4586

 Normal termination of Gaussian 16 at Wed Jul 31 09:17:18 2019.
