 Gaussian 16, Revision A.03,
 Gaussian 16:  ES64L-G16RevA.03 25-Dec-2016

 -------------------------------------
 # td=(NStates=1) CAM-B3LYP/6-31G(d,p)
 -------------------------------------

 --
 TD
 --
 Symbolic Z-matrix:
 Charge =  0 Multiplicity = 1

                         Standard orientation:
 ---------------------------------------------------------------------
 Center     Atomic      Atomic             Coordinates (Angstroms)
 Number     Number       Type             X           Y           Z
 ---------------------------------------------------------------------
      1          8           0      -11.789956    0.271750   -1.581801
      2          8           0      -12.927115   -2.492339    1.355284
      3          8           0       10.489514   -1.179029   -2.066290
      4          8           0       14.553800   -1.253567   -0.168467
      5          6           0      -11.005872   -0.162190   -0.333123
      6          6           0      -11.573219   -1.112447   -1.284073
      7          6           0      -11.739751    0.364882    0.925083
      8          6           0      -12.907851   -1.775782   -0.984465
      9          6           0      -13.249434   -0.086710    0.910304
     10          6           0      -13.455088   -1.571766    0.445336
     11          6           0      -10.773178   -1.913162   -2.266459
     12          6           0       -9.510468    0.057569   -0.378271
     13          6           0      -11.094565   -0.122254    2.230588
     14          6           0      -11.800344    1.859853    0.878417
     15          6           0       -8.672708   -0.830132    0.084944
     16          6           0       -7.240625   -0.627942    0.102828
     17          6           0       -6.313225   -1.871714    0.425826
     18          6           0       -6.649075    0.564588    0.015052
     19          6           0       -5.244861    0.891335   -0.093344
     20          6           0       11.983306    0.163791    1.277852
     21          6           0       11.608908   -0.730648   -1.290822
     22          6           0       12.614851   -1.178160    1.570188
     23          6           0       13.316540   -1.858211    0.259171
     24          6           0       12.310956   -2.080437   -0.810171
     25          6           0       11.079450    0.011058   -0.031961
     26          6           0       11.015908    0.419669    2.442658
     27          6           0       12.990293    1.247151    1.040082
     28          6           0       12.510723    0.130903   -2.205810
     29          6           0       -4.782149    2.147580   -0.368018
     30          6           0        9.907753    0.650336   -0.101592
     31          6           0       -3.412003    2.591592   -0.443506
     32          6           0        8.696936    1.078218   -0.222023
     33          6           0       -3.082961    3.969035   -0.869883
     34          6           0       -2.379010    1.661365   -0.034021
     35          6           0        7.466388    0.230829    0.047106
     36          6           0        7.696271   -1.145093    0.586593
     37          6           0        6.222041    0.811061   -0.093395
     38          6           0       -1.009799    1.903597   -0.169129
     39          6           0        4.921200    0.222853    0.076784
     40          6           0       -0.065960    0.964742    0.109050
     41          6           0        3.762896    0.917985   -0.152756
     42          6           0        1.394995    1.272902   -0.229067
     43          6           0        2.459320    0.414370    0.058686
     44          6           0        2.347287   -0.942325    0.676816
     45          1           0      -13.066491   -2.799990   -1.038488
     46          1           0      -13.397394   -1.391566   -1.786866
     47          1           0      -13.596782    0.184243    1.909298
     48          1           0      -13.904751    0.289558    0.074532
     49          1           0      -14.710230   -1.696754    0.412885
     50          1           0      -10.648903   -3.031081   -2.014079
     51          1           0      -11.317370   -2.029631   -3.019339
     52          1           0       -9.758769   -1.604525   -2.553249
     53          1           0       -9.255768    0.992470   -0.907932
     54          1           0      -10.181059    0.405402    2.448198
     55          1           0      -11.845707    0.267194    3.116364
     56          1           0      -10.968423   -1.235114    2.523428
     57          1           0      -12.148797    2.278349   -0.142965
     58          1           0      -12.812183    2.157183    1.651030
     59          1           0      -10.900777    2.440863    1.462378
     60          1           0      -11.938472   -2.380515    1.010298
     61          1           0       -8.947137   -1.817393    0.256680
     62          1           0       -5.569083   -2.178596   -0.570566
     63          1           0       -5.735670   -1.815416    1.305466
     64          1           0       -7.053245   -2.741845    0.837085
     65          1           0       -7.266177    1.413740   -0.138111
     66          1           0       -4.507892   -0.105723    0.051952
     67          1           0       13.547612   -1.130980    2.375733
     68          1           0       12.013152   -2.153896    1.932502
     69          1           0       13.570552   -3.021890    0.479441
     70          1           0       12.754099   -2.448080   -1.691000
     71          1           0       11.467850   -2.762486   -0.335885
     72          1           0       11.680774    0.465802    3.310974
     73          1           0       10.504684    1.239012    2.284997
     74          1           0       10.285768   -0.299698    2.584145
     75          1           0       13.665911    1.341082    0.212389
     76          1           0       12.628222    2.150424    0.767499
     77          1           0       13.822439    1.256472    1.914319
     78          1           0       13.150061   -0.407626   -2.841804
     79          1           0       11.987509    0.924870   -2.718928
     80          1           0       13.127876    0.714126   -1.615343
     81          1           0       -5.441313    2.926250   -0.765560
     82          1           0       10.067220   -0.374322   -2.555253
     83          1           0       15.097592   -0.990525    0.679403
     84          1           0        8.495482    2.055974   -0.611774
     85          1           0       -2.888727    4.614768   -0.060820
     86          1           0       -2.244117    3.988133   -1.659306
     87          1           0       -3.931931    4.461537   -1.119814
     88          1           0       -2.509182    0.675998    0.052022
     89          1           0        6.769780   -1.771158    0.441637
     90          1           0        8.353519   -1.572964   -0.077845
     91          1           0        8.073365   -1.383562    1.562304
     92          1           0        6.250325    1.813100   -0.705604
     93          1           0       -0.757289    2.925594   -0.579709
     94          1           0        4.943131   -0.774802    0.409107
     95          1           0       -0.298934   -0.038812    0.827214
     96          1           0        3.899183    1.946805   -0.239742
     97          1           0        1.758900    2.155274   -0.653209
     98          1           0        1.410393   -1.400243    0.801387
     99          1           0        2.810210   -1.591225   -0.051827
    100          1           0        2.793767   -1.138076    1.641685
 ---------------------------------------------------------------------

 SCF Done:  E(RCAM-B3LYP) =  -1857.29094807     A.U. after   14 cycles

 Excitation energies and oscillator strengths:

 Excited State   1:      Singlet-A      2.4159 eV  513.20 nm  f=2.7515  <S**2>=0.000
     163 ->166        -0.14222
     164 ->165         0.68923
 This state for optimization and/or second-order correction.
 Total Energy, E(TD-HF/TD-DFT) =  -1857.20216500
 Copying the excited state density for this state as the 1-particle RhoCI density.

 The electronic state is 1-A.
 Alpha  occ. eigenvalues --  -19.22551 -19.22267 -19.22181 -19.20940 -10.32572
 Alpha  occ. eigenvalues --  -10.32261 -10.32226 -10.32003 -10.31938 -10.29078
 Alpha  occ. eigenvalues --  -10.28795 -10.28779 -10.28495 -10.28406 -10.28070
 Alpha  occ. eigenvalues --  -10.28001 -10.27989 -10.27879 -10.27418 -10.27392
 Alpha  occ. eigenvalues --  -10.27095 -10.26962 -10.26789 -10.26699 -10.26583
 Alpha  occ. eigenvalues --  -10.26575 -10.26511 -10.26465 -10.26395 -10.26304
 Alpha  occ. eigenvalues --  -10.25908 -10.25778 -10.25538 -10.25325 -10.25307
 Alpha  occ. eigenvalues --  -10.25234 -10.25061 -10.24989 -10.24612 -10.24580
 Alpha  occ. eigenvalues --  -10.24453 -10.24153 -10.23449 -10.22800  -1.13226
 Alpha  occ. eigenvalues --   -1.10060  -1.08033  -1.07589  -0.92745  -0.92401
 Alpha  occ. eigenvalues --   -0.91739  -0.91167  -0.90256  -0.89714  -0.87308
 Alpha  occ. eigenvalues --   -0.87168  -0.85982  -0.85650  -0.84800  -0.82480
 Alpha  occ. eigenvalues --   -0.82184  -0.81057  -0.80780  -0.78881  -0.78524
 Alpha  occ. eigenvalues --   -0.77154  -0.76748  -0.76458  -0.75941  -0.75735
 Alpha  occ. eigenvalues --   -0.75164  -0.74442  -0.73402  -0.69992  -0.69201
 Alpha  occ. eigenvalues --   -0.68156  -0.66584  -0.65140  -0.64813  -0.64808
 Alpha  occ. eigenvalues --   -0.62222  -0.61466  -0.61345  -0.60583  -0.59037
 Alpha  occ. eigenvalues --   -0.58693  -0.58356  -0.57912  -0.57352  -0.56446
 Alpha  occ. eigenvalues --   -0.56131  -0.55597  -0.54950  -0.54669  -0.54335
 Alpha  occ. eigenvalues --   -0.53595  -0.52870  -0.52590  -0.52167  -0.51944
 Alpha  occ. eigenvalues --   -0.51732  -0.50746  -0.50407  -0.49851  -0.49558
 Alpha  occ. eigenvalues --   -0.49334  -0.49192  -0.48982  -0.48806  -0.48440
 Alpha  occ. eigenvalues --   -0.48298  -0.48023  -0.47606  -0.47365  -0.46738
 Alpha  occ. eigenvalues --   -0.46301  -0.46223  -0.45964  -0.45539  -0.45498
 Alpha  occ. eigenvalues --   -0.45003  -0.44947  -0.44621  -0.44289  -0.43670
 Alpha  occ. eigenvalues --   -0.43558  -0.43061  -0.43006  -0.42736  -0.42491
 Alpha  occ. eigenvalues --   -0.42218  -0.42083  -0.41980  -0.41644  -0.41504
 Alpha  occ. eigenvalues --   -0.41163  -0.40762  -0.40023  -0.39898  -0.39781
 Alpha  occ. eigenvalues --   -0.39650  -0.39468  -0.39312  -0.39098  -0.38722
 Alpha  occ. eigenvalues --   -0.38532  -0.38305  -0.38092  -0.37698  -0.37144
 Alpha  occ. eigenvalues --   -0.36483  -0.35890  -0.35100  -0.34486  -0.34339
 Alpha  occ. eigenvalues --   -0.32751  -0.32524  -0.31588  -0.30901  -0.30679
 Alpha  occ. eigenvalues --   -0.29326  -0.28392  -0.24500  -0.20352
 Alpha virt. eigenvalues --   -0.05122  -0.00499   0.03291   0.06098   0.07128
 Alpha virt. eigenvalues --    0.08768   0.09218   0.09905   0.11174   0.11592
 Alpha virt. eigenvalues --    0.12099   0.12506   0.12681   0.12849   0.13303

 Mulliken charges:
               1
     1  O   -0.527768
     2  O   -0.518521
     3  O   -0.571301
     4  O   -0.562112
     5  C    0.147885
     6  C    0.245336
     7  C    0.035501
     8  C   -0.217387
     9  C   -0.154087
    10  C    0.112945
    11  C   -0.328335
    12  C   -0.112228
    13  C   -0.313947
    14  C   -0.288695
    15  C   -0.049979
    16  C    0.068836
    17  C   -0.363218
    18  C   -0.097833
    19  C   -0.063777
    20  C    0.038142
    21  C    0.251999
    22  C   -0.192111
    23  C    0.168777
    24  C   -0.173053
    25  C   -0.087790
    26  C   -0.286436
    27  C   -0.307641
    28  C   -0.314375
    29  C   -0.122749
    30  C    0.155619
    31  C    0.065294
    32  C   -0.285632
    33  C   -0.376383
    34  C   -0.085767
    35  C    0.108429
    36  C   -0.387390
    37  C   -0.124550
    38  C   -0.062714
    39  C   -0.081569
    40  C   -0.119735
    41  C   -0.123219
    42  C   -0.133038
    43  C    0.120233
    44  C   -0.380771
    45  H    0.118970
    46  H    0.134586
    47  H    0.099608
    48  H    0.103717
    49  H    0.060230
    50  H    0.092001
    51  H    0.128753
    52  H    0.122852
    53  H    0.121533
    54  H    0.118043
    55  H    0.082239
    56  H    0.107187
    57  H    0.138305
    58  H    0.057153
    59  H    0.086052
    60  H    0.302546
    61  H    0.082606
    62  H    0.097268
    63  H    0.140248
    64  H    0.077868
    65  H    0.072923
    66  H    0.079764
    67  H    0.056426
    68  H    0.097997
    69  H    0.050903
    70  H    0.118748
    71  H    0.110367
    72  H    0.091927
    73  H    0.115583
    74  H    0.114439
    75  H    0.128897
    76  H    0.115498
    77  H    0.069115
    78  H    0.123332
    79  H    0.088898
    80  H    0.116199
    81  H    0.083835
    82  H    0.308163
    83  H    0.314151
    84  H    0.100268
    85  H    0.136667
    86  H    0.122562
    87  H    0.113238
    88  H    0.074672
    89  H    0.095960
    90  H    0.149109
    91  H    0.124207
    92  H    0.065993
    93  H    0.081912
    94  H    0.084008
    95  H    0.091928
    96  H    0.087552
    97  H    0.082112
    98  H    0.105860
    99  H    0.124472
   100  H    0.125660
 Sum of Mulliken charges =  -0.00000

 Dipole moment (field-independent basis, Debye):
    X=              3.1639    Y=              0.9024    Z=              0.5864  Tot=              3.3419
 Quadrupole moment (field-independent basis, Debye-Ang):
   XX=           -289.3134   YY=           -260.6961   ZZ=           -274.2688
   XY=             11.7997   XZ=             26.6228   YZ=             -5.4585

 Normal termination of Gaussian 16 at Wed Jul 31 22:32:21 2019.
