 Gaussian 16, Revision A.03,
 Gaussian 16:  ES64L-G16RevA.03 25-Dec-2016

 -------------------------------------
 # td=(NStates=1) CAM-B3LYP/6-31G(d,p)
 -------------------------------------

 --
 TD
 --
 Symbolic Z-matrix:
 Charge =  0 Multiplicity = 1

                         Standard orientation:
 ---------------------------------------------------------------------
 Center     Atomic      Atomic             Coordinates (Angstroms)
 Number     Number       Type             X           Y           Z
 ---------------------------------------------------------------------
      1          8           0      -11.562498   -0.126698   -1.696762
      2          8           0      -12.867600   -2.238912    1.734714
      3          8           0       10.601591   -1.202453   -2.142358
      4          8           0       14.459812   -1.103738   -0.039547
      5          6           0      -11.031887   -0.272271   -0.394432
      6          6           0      -11.642842   -1.414185   -1.141039
      7          6           0      -11.703176    0.442546    0.817542
      8          6           0      -13.097493   -1.884778   -0.660478
      9          6           0      -13.265687   -0.013175    0.828618
     10          6           0      -13.527010   -1.440346    0.633496
     11          6           0      -10.867153   -2.359034   -1.992496
     12          6           0       -9.550404   -0.025922   -0.620511
     13          6           0      -11.005535    0.201449    2.137525
     14          6           0      -11.751436    1.975186    0.545313
     15          6           0       -8.591018   -0.730698    0.021804
     16          6           0       -7.097984   -0.651776    0.112676
     17          6           0       -6.335204   -1.871416    0.495612
     18          6           0       -6.600538    0.632575   -0.104073
     19          6           0       -5.228730    0.991995   -0.002952
     20          6           0       11.956891    0.118447    1.247907
     21          6           0       11.642880   -0.797579   -1.280629
     22          6           0       12.607079   -1.207868    1.520884
     23          6           0       13.275316   -1.833913    0.287211
     24          6           0       12.380834   -2.080276   -0.793917
     25          6           0       11.053526   -0.035697   -0.060032
     26          6           0       11.016047    0.534199    2.364829
     27          6           0       12.959207    1.354474    1.042143
     28          6           0       12.645233    0.099531   -2.057367
     29          6           0       -4.695771    2.257536   -0.433522
     30          6           0        9.853563    0.384582   -0.121019
     31          6           0       -3.377329    2.628761   -0.578878
     32          6           0        8.604378    0.874770   -0.196612
     33          6           0       -3.143989    4.098055   -0.856017
     34          6           0       -2.364182    1.678205   -0.209816
     35          6           0        7.443877    0.118775    0.109064
     36          6           0        7.533079   -1.265298    0.623986
     37          6           0        6.201404    0.802644   -0.011526
     38          6           0       -0.975184    2.005996   -0.278123
     39          6           0        4.911989    0.216908    0.043815
     40          6           0        0.034655    1.106702    0.008333
     41          6           0        3.755998    0.866991   -0.022076
     42          6           0        1.337316    1.396569    0.036592
     43          6           0        2.445134    0.379799    0.103685
     44          6           0        2.131279   -1.003393    0.419466
     45          1           0      -12.874820   -3.075947   -0.669499
     46          1           0      -13.861947   -1.620641   -1.468289
     47          1           0      -13.667784    0.461721    1.638705
     48          1           0      -13.605720    0.550465   -0.134072
     49          1           0      -14.575073   -1.755989    0.777947
     50          1           0      -10.370409   -2.953386   -1.317776
     51          1           0      -11.474006   -2.794505   -2.789645
     52          1           0      -10.006159   -1.632418   -2.560902
     53          1           0       -9.264336    0.776810   -1.351626
     54          1           0       -9.912339    0.296334    2.019249
     55          1           0      -11.549139    0.677541    2.850292
     56          1           0      -11.088276   -0.904605    2.509536
     57          1           0      -12.060842    2.177088   -0.504672
     58          1           0      -12.522640    2.575079    1.217200
     59          1           0      -10.708850    2.409873    0.524317
     60          1           0      -11.981419   -2.390575    1.288463
     61          1           0       -8.934151   -1.638932    0.783158
     62          1           0       -5.740645   -2.096258   -0.539771
     63          1           0       -5.696296   -1.481891    1.160482
     64          1           0       -6.864379   -2.799660    0.874295
     65          1           0       -7.505215    1.524248   -0.129586
     66          1           0       -4.439892    0.159973    0.219715
     67          1           0       13.320826   -1.102261    2.182502
     68          1           0       11.723200   -1.803994    1.885891
     69          1           0       13.562860   -2.786171    0.649714
     70          1           0       13.057949   -2.548950   -1.722720
     71          1           0       11.698102   -2.824950   -0.587607
     72          1           0       11.546908    0.725030    3.317587
     73          1           0       10.399382    1.461066    2.215347
     74          1           0       10.218160   -0.186841    2.537866
     75          1           0       13.780784    0.828541    0.481254
     76          1           0       12.361343    2.118240    0.377311
     77          1           0       13.380940    1.824708    2.113513
     78          1           0       12.672017   -0.271379   -3.084194
     79          1           0       12.137414    1.238900   -2.046149
     80          1           0       13.790633    0.203568   -1.670055
     81          1           0       -5.311742    2.865982   -0.849515
     82          1           0       10.281160   -0.259539   -2.405207
     83          1           0       15.008083   -1.122283    0.658001
     84          1           0        8.359604    1.909593   -0.628682
     85          1           0       -2.651287    4.667106   -0.067283
     86          1           0       -2.197799    4.044813   -1.627604
     87          1           0       -3.803619    4.613824   -1.224828
     88          1           0       -2.550221    0.657169   -0.090240
     89          1           0        6.704138   -1.864054    1.067833
     90          1           0        8.336611   -1.951086   -0.201631
     91          1           0        8.391587   -1.134004    1.475176
     92          1           0        6.211407    1.794992   -0.286215
     93          1           0       -0.748972    2.921222   -0.755171
     94          1           0        4.778140   -0.746552   -0.025200
     95          1           0       -0.220093    0.093291    0.639645
     96          1           0        3.975407    1.946812   -0.137964
     97          1           0        1.627166    2.369237   -0.521092
     98          1           0        0.930122   -1.383689    0.119424
     99          1           0        2.970602   -1.566908   -0.101498
    100          1           0        2.290272   -1.495777    1.556003
 ---------------------------------------------------------------------

 SCF Done:  E(RCAM-B3LYP) =  -1857.21433847     A.U. after   16 cycles

 Excitation energies and oscillator strengths:

 Excited State   1:      Singlet-A      1.8213 eV  680.75 nm  f=2.9155  <S**2>=0.000
     163 ->166        -0.12149
     164 ->165         0.70438
     164 <-165        -0.12729
 This state for optimization and/or second-order correction.
 Total Energy, E(TD-HF/TD-DFT) =  -1857.14740763
 Copying the excited state density for this state as the 1-particle RhoCI density.

 The electronic state is 1-A.
 Alpha  occ. eigenvalues --  -19.22534 -19.22130 -19.21756 -19.20897 -10.32353
 Alpha  occ. eigenvalues --  -10.32278 -10.32114 -10.30905 -10.30333 -10.28952
 Alpha  occ. eigenvalues --  -10.28585 -10.28463 -10.28301 -10.28201 -10.28138
 Alpha  occ. eigenvalues --  -10.28136 -10.27873 -10.27764 -10.27742 -10.27733
 Alpha  occ. eigenvalues --  -10.27677 -10.27576 -10.26915 -10.26890 -10.26682
 Alpha  occ. eigenvalues --  -10.26659 -10.26619 -10.26550 -10.26531 -10.26410
 Alpha  occ. eigenvalues --  -10.26113 -10.26060 -10.26039 -10.25842 -10.25812
 Alpha  occ. eigenvalues --  -10.25720 -10.25428 -10.25416 -10.25175 -10.25083
 Alpha  occ. eigenvalues --  -10.25002 -10.24410 -10.24282 -10.23696  -1.16773
 Alpha  occ. eigenvalues --   -1.13171  -1.10126  -1.06904  -0.93451  -0.92328
 Alpha  occ. eigenvalues --   -0.91792  -0.90775  -0.90423  -0.89960  -0.88063
 Alpha  occ. eigenvalues --   -0.87154  -0.87008  -0.85275  -0.84153  -0.83370
 Alpha  occ. eigenvalues --   -0.82240  -0.81567  -0.80168  -0.79078  -0.76968
 Alpha  occ. eigenvalues --   -0.76843  -0.76242  -0.76058  -0.75333  -0.75267
 Alpha  occ. eigenvalues --   -0.74388  -0.73829  -0.72010  -0.70649  -0.70215
 Alpha  occ. eigenvalues --   -0.68406  -0.66911  -0.64599  -0.64171  -0.63843
 Alpha  occ. eigenvalues --   -0.63670  -0.62309  -0.61947  -0.61052  -0.59414
 Alpha  occ. eigenvalues --   -0.58717  -0.57995  -0.57500  -0.57406  -0.56530
 Alpha  occ. eigenvalues --   -0.55740  -0.55088  -0.54837  -0.54772  -0.54176
 Alpha  occ. eigenvalues --   -0.53369  -0.53271  -0.53021  -0.52621  -0.51576
 Alpha  occ. eigenvalues --   -0.51475  -0.51247  -0.50360  -0.50187  -0.49888
 Alpha  occ. eigenvalues --   -0.49301  -0.49248  -0.48765  -0.48585  -0.48374
 Alpha  occ. eigenvalues --   -0.47809  -0.47773  -0.47293  -0.47101  -0.46890
 Alpha  occ. eigenvalues --   -0.46408  -0.46123  -0.45979  -0.45706  -0.45307
 Alpha  occ. eigenvalues --   -0.45111  -0.44709  -0.44464  -0.44366  -0.44102
 Alpha  occ. eigenvalues --   -0.44005  -0.43745  -0.42674  -0.42570  -0.42243
 Alpha  occ. eigenvalues --   -0.42104  -0.41784  -0.41348  -0.41325  -0.41097
 Alpha  occ. eigenvalues --   -0.40539  -0.40331  -0.39931  -0.39812  -0.39539
 Alpha  occ. eigenvalues --   -0.39439  -0.39260  -0.39075  -0.38739  -0.38539
 Alpha  occ. eigenvalues --   -0.38192  -0.37898  -0.37558  -0.37253  -0.37164
 Alpha  occ. eigenvalues --   -0.36678  -0.36262  -0.34561  -0.34266  -0.33727
 Alpha  occ. eigenvalues --   -0.33058  -0.32336  -0.32115  -0.31032  -0.30895
 Alpha  occ. eigenvalues --   -0.30534  -0.27429  -0.23964  -0.18357
 Alpha virt. eigenvalues --   -0.06934  -0.00901   0.02883   0.05906   0.06928
 Alpha virt. eigenvalues --    0.09693   0.09891   0.10296   0.11011   0.11488
 Alpha virt. eigenvalues --    0.12111   0.12559   0.12619   0.13091   0.13118

 Mulliken charges:
               1
     1  O   -0.493584
     2  O   -0.558204
     3  O   -0.562211
     4  O   -0.524248
     5  C    0.196329
     6  C    0.221634
     7  C    0.009381
     8  C   -0.231766
     9  C   -0.172472
    10  C    0.154675
    11  C   -0.324474
    12  C   -0.117314
    13  C   -0.299254
    14  C   -0.317825
    15  C   -0.084904
    16  C    0.069078
    17  C   -0.358149
    18  C   -0.109801
    19  C   -0.100214
    20  C    0.030122
    21  C    0.261928
    22  C   -0.172428
    23  C    0.149396
    24  C   -0.182848
    25  C   -0.142350
    26  C   -0.314407
    27  C   -0.300131
    28  C   -0.324104
    29  C   -0.091607
    30  C    0.192415
    31  C    0.072416
    32  C   -0.283510
    33  C   -0.340557
    34  C   -0.100822
    35  C    0.173918
    36  C   -0.374466
    37  C   -0.130773
    38  C   -0.088498
    39  C   -0.051255
    40  C   -0.073109
    41  C   -0.097589
    42  C   -0.123077
    43  C    0.104330
    44  C   -0.361579
    45  H    0.091485
    46  H    0.123269
    47  H    0.103000
    48  H    0.100084
    49  H    0.106302
    50  H    0.117009
    51  H    0.120802
    52  H    0.108683
    53  H    0.110542
    54  H    0.114449
    55  H    0.111570
    56  H    0.090386
    57  H    0.119746
    58  H    0.093720
    59  H    0.099187
    60  H    0.298713
    61  H    0.046312
    62  H    0.115259
    63  H    0.144666
    64  H    0.120109
    65  H    0.086926
    66  H    0.080425
    67  H    0.086248
    68  H    0.100166
    69  H    0.091366
    70  H    0.088598
    71  H    0.124280
    72  H    0.089423
    73  H    0.109751
    74  H    0.097374
    75  H    0.121294
    76  H    0.101473
    77  H    0.073143
    78  H    0.120773
    79  H    0.057776
    80  H    0.143521
    81  H    0.063923
    82  H    0.307735
    83  H    0.299583
    84  H    0.110422
    85  H    0.136523
    86  H    0.087293
    87  H    0.113784
    88  H    0.087540
    89  H    0.126006
    90  H    0.095802
    91  H    0.103740
    92  H    0.071801
    93  H    0.078594
    94  H    0.054974
    95  H    0.070115
    96  H    0.071003
    97  H    0.074528
    98  H    0.093815
    99  H    0.115809
   100  H    0.101092
 Sum of Mulliken charges =  -0.00000

 Dipole moment (field-independent basis, Debye):
    X=              3.6356    Y=             -0.4631    Z=              0.9191  Tot=              3.7785
 Quadrupole moment (field-independent basis, Debye-Ang):
   XX=           -245.4016   YY=           -258.9343   ZZ=           -281.0797
   XY=             -9.1207   XZ=             36.3309   YZ=             -5.6778

 Normal termination of Gaussian 16 at Tue Jul 30 21:44:55 2019.
