 Gaussian 16, Revision A.03,
 Gaussian 16:  ES64L-G16RevA.03 25-Dec-2016

 -------------------------------------
 # td=(NStates=1) CAM-B3LYP/6-31G(d,p)
 -------------------------------------

 --
 TD
 --
 Symbolic Z-matrix:
 Charge =  0 Multiplicity = 1

                         Standard orientation:
 ---------------------------------------------------------------------
 Center     Atomic      Atomic             Coordinates (Angstroms)
 Number     Number       Type             X           Y           Z
 ---------------------------------------------------------------------
      1          8           0      -11.733979    0.305301   -1.524942
      2          8           0      -12.805097   -2.544274    1.361547
      3          8           0       10.521191   -1.300706   -1.829816
      4          8           0       14.447075   -1.013492   -0.021232
      5          6           0      -11.132254   -0.109372   -0.284837
      6          6           0      -11.669553   -1.092041   -1.172671
      7          6           0      -11.786456    0.441256    0.960997
      8          6           0      -13.041935   -1.746769   -0.807286
      9          6           0      -13.281974   -0.046954    0.963564
     10          6           0      -13.475427   -1.424806    0.598356
     11          6           0      -10.829814   -1.799608   -2.181566
     12          6           0       -9.560833    0.149846   -0.363691
     13          6           0      -11.082968   -0.123206    2.254155
     14          6           0      -11.753994    2.000483    0.963161
     15          6           0       -8.646499   -0.767429    0.071437
     16          6           0       -7.213465   -0.621442    0.174513
     17          6           0       -6.422213   -1.934862    0.458709
     18          6           0       -6.644490    0.605854   -0.091589
     19          6           0       -5.168901    0.783908   -0.177564
     20          6           0       11.989721    0.247205    1.297437
     21          6           0       11.618765   -0.712549   -1.166449
     22          6           0       12.724343   -1.004453    1.726319
     23          6           0       13.396149   -1.808817    0.545961
     24          6           0       12.392940   -2.009705   -0.588880
     25          6           0       11.063215    0.064660    0.043624
     26          6           0       11.071473    0.656671    2.498394
     27          6           0       13.103241    1.377784    1.038320
     28          6           0       12.550125   -0.010339   -2.233606
     29          6           0       -4.751881    2.086014   -0.399104
     30          6           0       10.013627    0.652744   -0.101066
     31          6           0       -3.417967    2.474526   -0.379626
     32          6           0        8.742772    0.929268   -0.354829
     33          6           0       -3.054318    3.939250   -0.689840
     34          6           0       -2.318474    1.549649   -0.312330
     35          6           0        7.431808    0.221199   -0.124748
     36          6           0        7.636532   -1.219563    0.261008
     37          6           0        6.261496    0.727873   -0.297375
     38          6           0       -0.990634    1.869530   -0.405491
     39          6           0        4.980309    0.137398   -0.066971
     40          6           0        0.027457    0.860396   -0.224265
     41          6           0        3.727745    0.782438   -0.166516
     42          6           0        1.372980    1.188985   -0.262661
     43          6           0        2.436794    0.240868   -0.049613
     44          6           0        2.171101   -1.237729    0.279562
     45          1           0      -13.204041   -2.792075   -1.134741
     46          1           0      -13.772869   -1.311525   -1.554411
     47          1           0      -13.675985    0.139241    2.018699
     48          1           0      -13.869492    0.467343    0.251725
     49          1           0      -14.547901   -1.818015    0.797102
     50          1           0      -10.424111   -2.940752   -1.847048
     51          1           0      -11.250871   -1.969501   -3.085177
     52          1           0      -10.008185   -1.332279   -2.491550
     53          1           0       -9.398010    1.085650   -0.930311
     54          1           0       -9.952618    0.252529    2.122620
     55          1           0      -11.235127    0.484412    3.290860
     56          1           0      -11.079067   -1.127357    2.178081
     57          1           0      -12.419231    2.540890    0.042193
     58          1           0      -12.586507    2.317057    1.760044
     59          1           0      -10.713718    2.421422    1.108496
     60          1           0      -11.866339   -2.615105    1.153939
     61          1           0       -9.108108   -1.713873    0.386526
     62          1           0       -5.943309   -2.292851   -0.461186
     63          1           0       -5.713385   -1.665729    1.229419
     64          1           0       -7.281095   -2.705321    0.821792
     65          1           0       -7.230882    1.338786   -0.240883
     66          1           0       -4.437978   -0.076378   -0.024566
     67          1           0       13.383299   -0.771549    2.581034
     68          1           0       11.963546   -1.751577    2.189357
     69          1           0       13.504990   -2.809615    0.850601
     70          1           0       12.824513   -2.512088   -1.493966
     71          1           0       11.606213   -2.620910   -0.466129
     72          1           0       11.693164    0.952642    3.552032
     73          1           0       10.465698    1.524446    2.126813
     74          1           0       10.392665   -0.194084    2.840302
     75          1           0       13.946272    1.185635    0.369678
     76          1           0       12.558509    2.266842    0.944626
     77          1           0       13.492501    1.504167    2.108527
     78          1           0       12.951683   -0.622967   -3.176634
     79          1           0       11.957017    0.749177   -2.519082
     80          1           0       13.505784    0.699365   -1.816354
     81          1           0       -5.503360    3.008858   -0.413934
     82          1           0        9.922943   -0.568695   -1.991281
     83          1           0       15.457564   -1.456686    0.409999
     84          1           0        8.530440    1.917565   -0.873514
     85          1           0       -2.274894    4.460146    0.056209
     86          1           0       -2.541855    4.185720   -1.784638
     87          1           0       -3.978338    4.593517   -0.742173
     88          1           0       -2.629995    0.315066   -0.184530
     89          1           0        6.833716   -1.946728    0.158216
     90          1           0        8.328320   -1.720634   -0.373057
     91          1           0        7.735614   -1.300457    1.458740
     92          1           0        6.023002    1.815893   -0.730345
     93          1           0       -0.716081    3.043450   -0.490655
     94          1           0        4.822233   -0.924428    0.410511
     95          1           0       -0.452171   -0.145491    0.219725
     96          1           0        3.560662    1.848448   -0.395207
     97          1           0        1.518949    2.130973   -0.685525
     98          1           0        1.317201   -1.577059    0.700221
     99          1           0        2.265107   -1.880696   -0.605943
    100          1           0        3.009131   -1.568411    1.092643
 ---------------------------------------------------------------------

 SCF Done:  E(RCAM-B3LYP) =  -1857.23446270     A.U. after   15 cycles

 Excitation energies and oscillator strengths:

 Excited State   1:      Singlet-A      1.9141 eV  647.74 nm  f=2.8832  <S**2>=0.000
     163 ->166         0.11453
     164 ->165         0.70551
     164 <-165        -0.12948
 This state for optimization and/or second-order correction.
 Total Energy, E(TD-HF/TD-DFT) =  -1857.16412021
 Copying the excited state density for this state as the 1-particle RhoCI density.

 The electronic state is 1-A.
 Alpha  occ. eigenvalues --  -19.23725 -19.22132 -19.20849 -19.20123 -10.32526
 Alpha  occ. eigenvalues --  -10.32235 -10.31944 -10.31224 -10.30891 -10.28587
 Alpha  occ. eigenvalues --  -10.28523 -10.28398 -10.28307 -10.28040 -10.28024
 Alpha  occ. eigenvalues --  -10.27983 -10.27941 -10.27918 -10.27733 -10.27728
 Alpha  occ. eigenvalues --  -10.27556 -10.27542 -10.27530 -10.27379 -10.27239
 Alpha  occ. eigenvalues --  -10.26898 -10.26823 -10.26718 -10.26633 -10.26615
 Alpha  occ. eigenvalues --  -10.26531 -10.26523 -10.26222 -10.26205 -10.25839
 Alpha  occ. eigenvalues --  -10.25789 -10.25717 -10.25540 -10.25401 -10.25367
 Alpha  occ. eigenvalues --  -10.25101 -10.24778 -10.24049 -10.23532  -1.15571
 Alpha  occ. eigenvalues --   -1.10487  -1.07186  -1.06826  -0.92565  -0.91930
 Alpha  occ. eigenvalues --   -0.91495  -0.91083  -0.90472  -0.89778  -0.86943
 Alpha  occ. eigenvalues --   -0.86374  -0.85917  -0.84166  -0.84131  -0.82724
 Alpha  occ. eigenvalues --   -0.81646  -0.80448  -0.79549  -0.78564  -0.77177
 Alpha  occ. eigenvalues --   -0.76794  -0.76403  -0.76052  -0.74972  -0.74952
 Alpha  occ. eigenvalues --   -0.74381  -0.73795  -0.72637  -0.70480  -0.69480
 Alpha  occ. eigenvalues --   -0.68503  -0.66570  -0.65727  -0.65035  -0.63627
 Alpha  occ. eigenvalues --   -0.63028  -0.61669  -0.60755  -0.59923  -0.59221
 Alpha  occ. eigenvalues --   -0.58612  -0.57748  -0.57316  -0.56941  -0.56757
 Alpha  occ. eigenvalues --   -0.55385  -0.55212  -0.54686  -0.54163  -0.53691
 Alpha  occ. eigenvalues --   -0.53162  -0.52575  -0.52223  -0.51192  -0.51054
 Alpha  occ. eigenvalues --   -0.50857  -0.50744  -0.50054  -0.49867  -0.49466
 Alpha  occ. eigenvalues --   -0.49069  -0.48766  -0.48412  -0.48252  -0.48019
 Alpha  occ. eigenvalues --   -0.47488  -0.46974  -0.46474  -0.46460  -0.46112
 Alpha  occ. eigenvalues --   -0.45922  -0.45748  -0.45574  -0.45347  -0.44998
 Alpha  occ. eigenvalues --   -0.44556  -0.44315  -0.44079  -0.43537  -0.43305
 Alpha  occ. eigenvalues --   -0.43174  -0.42793  -0.42414  -0.42307  -0.41706
 Alpha  occ. eigenvalues --   -0.41617  -0.41345  -0.41131  -0.41017  -0.40836
 Alpha  occ. eigenvalues --   -0.40728  -0.40531  -0.40173  -0.39623  -0.39548
 Alpha  occ. eigenvalues --   -0.39155  -0.38932  -0.38883  -0.38423  -0.38189
 Alpha  occ. eigenvalues --   -0.38179  -0.37822  -0.37637  -0.37249  -0.37107
 Alpha  occ. eigenvalues --   -0.36292  -0.35632  -0.35453  -0.34494  -0.34087
 Alpha  occ. eigenvalues --   -0.32603  -0.32349  -0.32322  -0.31845  -0.31243
 Alpha  occ. eigenvalues --   -0.30578  -0.28063  -0.24950  -0.18865
 Alpha virt. eigenvalues --   -0.07060  -0.00407   0.02985   0.06290   0.06465
 Alpha virt. eigenvalues --    0.07252   0.09287   0.09468   0.10363   0.12158
 Alpha virt. eigenvalues --    0.12398   0.12705   0.12838   0.13128   0.13318

 Mulliken charges:
               1
     1  O   -0.505147
     2  O   -0.574419
     3  O   -0.553959
     4  O   -0.532609
     5  C    0.190112
     6  C    0.244009
     7  C    0.023895
     8  C   -0.216033
     9  C   -0.180738
    10  C    0.137772
    11  C   -0.314080
    12  C   -0.125092
    13  C   -0.292090
    14  C   -0.304089
    15  C   -0.078163
    16  C    0.062218
    17  C   -0.360216
    18  C   -0.064316
    19  C   -0.082689
    20  C   -0.009011
    21  C    0.218209
    22  C   -0.156108
    23  C    0.134126
    24  C   -0.186797
    25  C   -0.008211
    26  C   -0.301249
    27  C   -0.295791
    28  C   -0.280646
    29  C   -0.115364
    30  C    0.115155
    31  C    0.093689
    32  C   -0.283908
    33  C   -0.369586
    34  C   -0.092714
    35  C    0.161938
    36  C   -0.381000
    37  C   -0.127215
    38  C   -0.087362
    39  C   -0.104853
    40  C   -0.092013
    41  C   -0.104398
    42  C   -0.134426
    43  C    0.110967
    44  C   -0.366853
    45  H    0.118968
    46  H    0.105240
    47  H    0.103930
    48  H    0.123919
    49  H    0.103744
    50  H    0.059951
    51  H    0.124048
    52  H    0.131518
    53  H    0.112614
    54  H    0.091162
    55  H    0.101720
    56  H    0.096409
    57  H    0.094738
    58  H    0.092481
    59  H    0.110238
    60  H    0.297204
    61  H    0.067582
    62  H    0.134111
    63  H    0.129920
    64  H    0.092505
    65  H    0.061720
    66  H    0.097101
    67  H    0.090487
    68  H    0.070526
    69  H    0.100901
    70  H    0.095925
    71  H    0.117418
    72  H    0.067279
    73  H    0.112696
    74  H    0.107701
    75  H    0.144601
    76  H    0.102645
    77  H    0.080266
    78  H    0.106672
    79  H    0.101310
    80  H    0.086621
    81  H    0.087177
    82  H    0.302278
    83  H    0.298435
    84  H    0.092032
    85  H    0.106986
    86  H    0.102031
    87  H    0.103204
    88  H    0.055014
    89  H    0.109603
    90  H    0.138323
    91  H    0.100004
    92  H    0.078401
    93  H    0.089952
    94  H    0.078944
    95  H    0.086057
    96  H    0.078536
    97  H    0.095298
    98  H    0.126440
    99  H    0.132404
   100  H    0.092067
 Sum of Mulliken charges =  -0.00000

 Dipole moment (field-independent basis, Debye):
    X=              2.6689    Y=             -0.5645    Z=              0.9636  Tot=              2.8932
 Quadrupole moment (field-independent basis, Debye-Ang):
   XX=           -252.5648   YY=           -261.0167   ZZ=           -278.4868
   XY=            -18.3904   XZ=             24.5587   YZ=             -1.3913

 Normal termination of Gaussian 16 at Wed Jul 31 09:12:44 2019.
