 Gaussian 16, Revision A.03,
 Gaussian 16:  ES64L-G16RevA.03 25-Dec-2016

 -------------------------------------
 # td=(NStates=1) CAM-B3LYP/6-31G(d,p)
 -------------------------------------

 --
 TD
 --
 Symbolic Z-matrix:
 Charge =  0 Multiplicity = 1

                         Standard orientation:
 ---------------------------------------------------------------------
 Center     Atomic      Atomic             Coordinates (Angstroms)
 Number     Number       Type             X           Y           Z
 ---------------------------------------------------------------------
      1          8           0      -11.951952    0.277290   -1.401812
      2          8           0      -13.100466   -2.450641    1.569165
      3          8           0       10.644996   -1.118131   -1.939602
      4          8           0       14.393032   -1.201830    0.064090
      5          6           0      -11.015335   -0.096017   -0.319032
      6          6           0      -11.714567   -1.106399   -1.167231
      7          6           0      -11.717253    0.398643    1.072670
      8          6           0      -12.932409   -1.868321   -0.697648
      9          6           0      -13.249903   -0.027961    0.989614
     10          6           0      -13.508077   -1.504095    0.637945
     11          6           0      -10.830048   -1.889766   -2.203985
     12          6           0       -9.595352    0.303072   -0.519584
     13          6           0      -10.944555   -0.158007    2.250878
     14          6           0      -11.614315    1.897902    1.063513
     15          6           0       -8.754904   -0.620372    0.036029
     16          6           0       -7.265648   -0.584740   -0.003917
     17          6           0       -6.516882   -1.815517    0.339973
     18          6           0       -6.708154    0.661008   -0.177515
     19          6           0       -5.331325    0.844596   -0.194714
     20          6           0       11.901382    0.229868    1.388207
     21          6           0       11.664042   -0.653235   -1.189524
     22          6           0       12.540621   -1.170400    1.725240
     23          6           0       13.279340   -1.881803    0.534978
     24          6           0       12.227465   -2.039615   -0.609676
     25          6           0       11.141391    0.091154    0.034285
     26          6           0       10.934461    0.644606    2.532560
     27          6           0       13.015456    1.329509    1.159093
     28          6           0       12.694017    0.092028   -2.080628
     29          6           0       -4.697954    2.149117   -0.369249
     30          6           0        9.978645    0.578712   -0.126866
     31          6           0       -3.324212    2.468964   -0.525452
     32          6           0        8.682645    1.007512   -0.321054
     33          6           0       -2.938824    3.917183   -0.597656
     34          6           0       -2.356047    1.548831   -0.374734
     35          6           0        7.417351    0.223557    0.006405
     36          6           0        7.653775   -1.125766    0.397472
     37          6           0        6.246035    0.766497   -0.164411
     38          6           0       -0.967284    1.731481   -0.463721
     39          6           0        5.029620    0.087588   -0.154861
     40          6           0        0.041285    0.733445   -0.352175
     41          6           0        3.857401    0.798053   -0.238969
     42          6           0        1.464865    0.995999   -0.533227
     43          6           0        2.513440    0.165737   -0.364077
     44          6           0        2.309424   -1.193229    0.084529
     45          1           0      -13.072827   -2.999015   -0.839776
     46          1           0      -13.616528   -1.338162   -1.548034
     47          1           0      -13.761699    0.239106    1.962075
     48          1           0      -13.576895    0.863742    0.114744
     49          1           0      -14.547161   -1.697812    0.433241
     50          1           0      -10.710558   -2.945261   -1.862894
     51          1           0      -11.037520   -1.850675   -3.195151
     52          1           0       -9.805355   -1.342418   -2.204558
     53          1           0       -9.448145    1.295701   -1.097359
     54          1           0       -9.896845    0.108882    2.142634
     55          1           0      -11.236584    0.491409    3.115230
     56          1           0      -10.833361   -1.056275    2.620732
     57          1           0      -11.934316    2.156030    0.099996
     58          1           0      -12.145206    2.575569    1.820720
     59          1           0      -10.619258    2.312453    1.557341
     60          1           0      -12.115137   -2.254355    1.611516
     61          1           0       -9.332197   -1.547877    0.482083
     62          1           0       -5.905816   -2.163524   -0.500374
     63          1           0       -5.617144   -1.899146    1.162249
     64          1           0       -7.260001   -2.692781    0.356072
     65          1           0       -7.362891    1.552128   -0.422368
     66          1           0       -4.445982    0.073963   -0.095176
     67          1           0       13.319879   -1.108302    2.320488
     68          1           0       11.797574   -1.729166    1.906495
     69          1           0       13.554454   -2.885411    1.080145
     70          1           0       12.763674   -2.574654   -1.375935
     71          1           0       11.354535   -2.561126   -0.196095
     72          1           0       11.668938    0.891762    3.483404
     73          1           0       10.685033    1.780303    2.331623
     74          1           0       10.123266    0.047730    2.885405
     75          1           0       13.693216    1.098115    0.430474
     76          1           0       12.727616    2.487862    1.214389
     77          1           0       13.507231    1.214661    2.137119
     78          1           0       12.694249   -0.589388   -3.051599
     79          1           0       12.332283    0.937847   -2.615430
     80          1           0       13.379978    0.300764   -1.433465
     81          1           0       -5.541570    2.866166   -0.371620
     82          1           0       10.133094   -0.373083   -2.212367
     83          1           0       14.984125   -0.812700    0.732614
     84          1           0        8.406941    2.066142   -0.727489
     85          1           0       -2.537714    4.353780    0.427414
     86          1           0       -2.243748    4.122614   -1.284398
     87          1           0       -3.765132    4.665360   -0.803008
     88          1           0       -2.719558    0.378938   -0.362210
     89          1           0        6.841129   -1.744772    0.400078
     90          1           0        8.233812   -1.778304   -0.456212
     91          1           0        8.249268   -1.245846    1.276421
     92          1           0        6.273195    1.950207   -0.327572
     93          1           0       -0.784752    2.672646   -0.440038
     94          1           0        4.990415   -0.928477    0.240611
     95          1           0       -0.288039   -0.269595   -0.108182
     96          1           0        4.171376    1.867122   -0.267739
     97          1           0        1.904280    2.024607   -0.526338
     98          1           0        1.297426   -1.620132    0.083652
     99          1           0        2.941335   -1.850436   -0.525161
    100          1           0        2.591048   -1.169332    1.065960
 ---------------------------------------------------------------------

 SCF Done:  E(RCAM-B3LYP) =  -1857.24957177     A.U. after   15 cycles

 Excitation energies and oscillator strengths:

 Excited State   1:      Singlet-A      2.2682 eV  546.61 nm  f=2.7299  <S**2>=0.000
     163 ->166         0.13648
     164 ->165         0.69372
 This state for optimization and/or second-order correction.
 Total Energy, E(TD-HF/TD-DFT) =  -1857.16621624
 Copying the excited state density for this state as the 1-particle RhoCI density.

 The electronic state is 1-A.
 Alpha  occ. eigenvalues --  -19.22975 -19.21837 -19.21596 -19.20616 -10.32486
 Alpha  occ. eigenvalues --  -10.31863 -10.31733 -10.31460 -10.29703 -10.29627
 Alpha  occ. eigenvalues --  -10.28492 -10.28427 -10.28224 -10.28206 -10.27926
 Alpha  occ. eigenvalues --  -10.27590 -10.27589 -10.27498 -10.27401 -10.27369
 Alpha  occ. eigenvalues --  -10.27219 -10.27172 -10.26994 -10.26914 -10.26783
 Alpha  occ. eigenvalues --  -10.26765 -10.26731 -10.26606 -10.26307 -10.26014
 Alpha  occ. eigenvalues --  -10.25994 -10.25962 -10.25921 -10.25847 -10.25763
 Alpha  occ. eigenvalues --  -10.25681 -10.25227 -10.25053 -10.24769 -10.24728
 Alpha  occ. eigenvalues --  -10.24502 -10.23605 -10.23551 -10.23316  -1.14068
 Alpha  occ. eigenvalues --   -1.12852  -1.11503  -1.10349  -0.93009  -0.92583
 Alpha  occ. eigenvalues --   -0.92309  -0.91488  -0.90857  -0.89869  -0.86719
 Alpha  occ. eigenvalues --   -0.86094  -0.85560  -0.85110  -0.84939  -0.83791
 Alpha  occ. eigenvalues --   -0.81979  -0.81108  -0.80139  -0.78883  -0.77489
 Alpha  occ. eigenvalues --   -0.77182  -0.76889  -0.76758  -0.76362  -0.75945
 Alpha  occ. eigenvalues --   -0.74821  -0.74219  -0.72984  -0.70495  -0.70109
 Alpha  occ. eigenvalues --   -0.68752  -0.66364  -0.65564  -0.64753  -0.64357
 Alpha  occ. eigenvalues --   -0.63660  -0.63073  -0.60916  -0.60209  -0.59680
 Alpha  occ. eigenvalues --   -0.59562  -0.58747  -0.57778  -0.57220  -0.56049
 Alpha  occ. eigenvalues --   -0.55845  -0.55646  -0.55413  -0.54756  -0.54437
 Alpha  occ. eigenvalues --   -0.54145  -0.53964  -0.52763  -0.52440  -0.52293
 Alpha  occ. eigenvalues --   -0.51756  -0.51481  -0.51159  -0.51010  -0.50458
 Alpha  occ. eigenvalues --   -0.49974  -0.49825  -0.49345  -0.48929  -0.48539
 Alpha  occ. eigenvalues --   -0.48277  -0.47973  -0.47826  -0.47610  -0.46806
 Alpha  occ. eigenvalues --   -0.46655  -0.46326  -0.46013  -0.45475  -0.45035
 Alpha  occ. eigenvalues --   -0.44619  -0.44495  -0.44155  -0.43957  -0.43820
 Alpha  occ. eigenvalues --   -0.43610  -0.43382  -0.43196  -0.42927  -0.42743
 Alpha  occ. eigenvalues --   -0.42648  -0.42128  -0.41945  -0.41523  -0.41056
 Alpha  occ. eigenvalues --   -0.40879  -0.40777  -0.40706  -0.40524  -0.40022
 Alpha  occ. eigenvalues --   -0.39779  -0.39704  -0.39280  -0.38243  -0.38117
 Alpha  occ. eigenvalues --   -0.37988  -0.37686  -0.37342  -0.37183  -0.36996
 Alpha  occ. eigenvalues --   -0.35570  -0.35204  -0.34650  -0.33600  -0.33313
 Alpha  occ. eigenvalues --   -0.32628  -0.32354  -0.31606  -0.31361  -0.30890
 Alpha  occ. eigenvalues --   -0.30162  -0.27957  -0.24290  -0.20211
 Alpha virt. eigenvalues --   -0.05836  -0.00678   0.03066   0.06809   0.07361
 Alpha virt. eigenvalues --    0.09330   0.09673   0.10083   0.11326   0.11787
 Alpha virt. eigenvalues --    0.12587   0.12973   0.13149   0.13454   0.13710

 Mulliken charges:
               1
     1  O   -0.522391
     2  O   -0.531329
     3  O   -0.534454
     4  O   -0.537463
     5  C    0.136030
     6  C    0.274951
     7  C    0.044979
     8  C   -0.215022
     9  C   -0.177329
    10  C    0.149819
    11  C   -0.343623
    12  C   -0.087594
    13  C   -0.348923
    14  C   -0.325337
    15  C   -0.108231
    16  C    0.103035
    17  C   -0.385187
    18  C   -0.112324
    19  C   -0.058459
    20  C    0.015617
    21  C    0.233890
    22  C   -0.151826
    23  C    0.145579
    24  C   -0.183151
    25  C   -0.077125
    26  C   -0.307709
    27  C   -0.319757
    28  C   -0.292651
    29  C   -0.144065
    30  C    0.151351
    31  C    0.119340
    32  C   -0.299795
    33  C   -0.382618
    34  C   -0.113021
    35  C    0.173788
    36  C   -0.388443
    37  C   -0.131231
    38  C   -0.054910
    39  C   -0.086429
    40  C   -0.104788
    41  C   -0.134606
    42  C   -0.111878
    43  C    0.097508
    44  C   -0.376101
    45  H    0.109218
    46  H    0.097362
    47  H    0.094565
    48  H    0.093009
    49  H    0.104494
    50  H    0.100259
    51  H    0.128667
    52  H    0.105171
    53  H    0.122832
    54  H    0.116831
    55  H    0.098672
    56  H    0.104378
    57  H    0.133583
    58  H    0.098520
    59  H    0.090632
    60  H    0.305190
    61  H    0.088445
    62  H    0.131930
    63  H    0.114720
    64  H    0.103480
    65  H    0.097177
    66  H    0.073454
    67  H    0.079743
    68  H    0.102730
    69  H    0.060036
    70  H    0.110996
    71  H    0.111791
    72  H    0.068891
    73  H    0.106070
    74  H    0.124217
    75  H    0.121685
    76  H    0.098349
    77  H    0.091597
    78  H    0.104787
    79  H    0.094870
    80  H    0.124473
    81  H    0.076961
    82  H    0.294186
    83  H    0.313191
    84  H    0.092411
    85  H    0.110149
    86  H    0.135821
    87  H    0.107616
    88  H    0.056204
    89  H    0.111886
    90  H    0.106925
    91  H    0.122018
    92  H    0.070668
    93  H    0.069417
    94  H    0.094375
    95  H    0.087533
    96  H    0.090735
    97  H    0.079139
    98  H    0.111636
    99  H    0.115846
   100  H    0.142343
 Sum of Mulliken charges =  -0.00000

 Dipole moment (field-independent basis, Debye):
    X=              5.2894    Y=              0.7949    Z=              2.5100  Tot=              5.9084
 Quadrupole moment (field-independent basis, Debye-Ang):
   XX=           -293.5915   YY=           -260.7659   ZZ=           -276.2731
   XY=              2.2371   XZ=             30.8081   YZ=             -1.4262

 Normal termination of Gaussian 16 at Fri Aug  2 05:44:23 2019.
