 Gaussian 16, Revision A.03,
 Gaussian 16:  ES64L-G16RevA.03 25-Dec-2016

 -------------------------------------
 # td=(NStates=1) CAM-B3LYP/6-31G(d,p)
 -------------------------------------

 --
 TD
 --
 Symbolic Z-matrix:
 Charge =  0 Multiplicity = 1

                         Standard orientation:
 ---------------------------------------------------------------------
 Center     Atomic      Atomic             Coordinates (Angstroms)
 Number     Number       Type             X           Y           Z
 ---------------------------------------------------------------------
      1          8           0      -11.684335    0.262315   -1.484795
      2          8           0      -13.154960   -2.312371    1.486891
      3          8           0       10.573542   -1.213101   -2.032848
      4          8           0       14.490331   -0.729152   -0.328027
      5          6           0      -11.028145   -0.176151   -0.245231
      6          6           0      -11.701626   -1.175385   -1.250641
      7          6           0      -11.826051    0.379404    0.873233
      8          6           0      -13.023707   -1.725844   -0.926330
      9          6           0      -13.339759    0.022011    0.862562
     10          6           0      -13.591837   -1.448689    0.448272
     11          6           0      -11.006706   -1.976521   -2.233744
     12          6           0       -9.542407    0.123089   -0.352526
     13          6           0      -11.095145   -0.122980    2.312130
     14          6           0      -11.644085    1.876711    0.771311
     15          6           0       -8.676745   -0.809884   -0.028611
     16          6           0       -7.205705   -0.612449    0.043308
     17          6           0       -6.391437   -1.791066    0.560145
     18          6           0       -6.682365    0.662924   -0.239164
     19          6           0       -5.269260    0.940230   -0.210850
     20          6           0       11.949731   -0.013469    1.409959
     21          6           0       11.710302   -0.649126   -1.240076
     22          6           0       12.762560   -1.207881    1.457909
     23          6           0       13.496266   -1.734508    0.171838
     24          6           0       12.543029   -1.939255   -1.025327
     25          6           0       11.101640   -0.091331    0.056586
     26          6           0       11.082800    0.120651    2.665256
     27          6           0       12.929415    1.354037    1.345894
     28          6           0       12.414810    0.404647   -2.110729
     29          6           0       -4.698972    2.167839   -0.399125
     30          6           0        9.892936    0.471071   -0.056367
     31          6           0       -3.311968    2.488146   -0.305436
     32          6           0        8.621355    0.799925   -0.231771
     33          6           0       -2.982844    3.935498   -0.666286
     34          6           0       -2.285805    1.566931   -0.214638
     35          6           0        7.457322    0.100959    0.020415
     36          6           0        7.703013   -1.369193    0.476436
     37          6           0        6.191711    0.755373   -0.085217
     38          6           0       -0.873389    1.831268   -0.378889
     39          6           0        4.950317    0.112285    0.101978
     40          6           0        0.060054    0.943993   -0.054683
     41          6           0        3.768973    0.811811   -0.192494
     42          6           0        1.358583    1.208244   -0.216277
     43          6           0        2.406654    0.373878   -0.004746
     44          6           0        2.174873   -1.101052    0.433397
     45          1           0      -13.034096   -2.931060   -0.909852
     46          1           0      -13.691026   -1.482126   -1.489807
     47          1           0      -13.831835    0.194561    1.909272
     48          1           0      -13.907272    0.610089    0.211464
     49          1           0      -14.624408   -1.656457    0.720529
     50          1           0      -10.870421   -3.045538   -1.689032
     51          1           0      -11.579273   -2.181163   -3.085433
     52          1           0      -10.069784   -1.472005   -2.461418
     53          1           0       -9.201035    1.161752   -0.610075
     54          1           0       -9.939689    0.260294    2.432765
     55          1           0      -11.505164    0.280345    3.234034
     56          1           0      -10.860386   -1.186060    2.421676
     57          1           0      -11.687099    2.585533   -0.251154
     58          1           0      -12.251445    2.445346    1.429993
     59          1           0      -10.672075    2.108999    1.093794
     60          1           0      -12.235162   -2.478492    1.227569
     61          1           0       -8.946801   -1.805921    0.203541
     62          1           0       -5.691270   -2.168626   -0.256277
     63          1           0       -5.825502   -1.421883    1.383623
     64          1           0       -6.991756   -2.710787    0.794716
     65          1           0       -7.150267    1.500210   -0.495021
     66          1           0       -4.513563    0.039888   -0.000570
     67          1           0       13.666843   -0.803292    2.139005
     68          1           0       12.267191   -2.058510    1.982272
     69          1           0       14.057469   -2.627006    0.526709
     70          1           0       13.053990   -2.236472   -1.785737
     71          1           0       11.873692   -2.760712   -0.930490
     72          1           0       11.503038    0.144933    3.595280
     73          1           0       10.300811    0.909878    2.614035
     74          1           0       10.320776   -0.784447    2.502313
     75          1           0       13.632206    1.266236    0.666319
     76          1           0       12.261551    2.276146    1.110024
     77          1           0       13.289766    1.391550    2.313710
     78          1           0       12.883731    0.004252   -2.923522
     79          1           0       11.625860    1.190435   -2.433811
     80          1           0       13.074251    0.999523   -1.393381
     81          1           0       -5.433811    2.955069   -0.542351
     82          1           0        9.803503   -0.574581   -2.118684
     83          1           0       15.247903   -0.667504    0.350678
     84          1           0        8.338328    1.883629   -0.502953
     85          1           0       -1.992565    4.048374   -0.023561
     86          1           0       -2.482739    3.976520   -1.491459
     87          1           0       -3.693502    4.706407   -0.551941
     88          1           0       -2.766129    0.444908   -0.118218
     89          1           0        6.732792   -1.911425    0.650803
     90          1           0        8.467732   -1.725848   -0.324990
     91          1           0        8.356727   -1.436507    1.524989
     92          1           0        6.265997    1.954876   -0.285428
     93          1           0       -0.554780    2.868723   -0.642258
     94          1           0        4.881852   -0.881412    0.417353
     95          1           0       -0.092072   -0.063233    0.053751
     96          1           0        3.935531    1.858332   -0.407879
     97          1           0        1.497653    2.284640   -0.538131
     98          1           0        1.029132   -1.286721    0.724336
     99          1           0        2.555076   -1.759369   -0.430316
    100          1           0        2.984590   -1.332658    1.280629
 ---------------------------------------------------------------------

 SCF Done:  E(RCAM-B3LYP) =  -1857.30700495     A.U. after   15 cycles

 Excitation energies and oscillator strengths:

 Excited State   1:      Singlet-A      2.3128 eV  536.09 nm  f=3.2635  <S**2>=0.000
     163 ->166         0.15815
     164 ->165         0.68531
 This state for optimization and/or second-order correction.
 Total Energy, E(TD-HF/TD-DFT) =  -1857.22201253
 Copying the excited state density for this state as the 1-particle RhoCI density.

 The electronic state is 1-A.
 Alpha  occ. eigenvalues --  -19.22280 -19.21350 -19.20554 -19.19552 -10.32348
 Alpha  occ. eigenvalues --  -10.32263 -10.32249 -10.32232 -10.29703 -10.28867
 Alpha  occ. eigenvalues --  -10.28840 -10.28570 -10.28523 -10.28108 -10.27867
 Alpha  occ. eigenvalues --  -10.27820 -10.27595 -10.27531 -10.27387 -10.27202
 Alpha  occ. eigenvalues --  -10.27155 -10.27035 -10.27026 -10.26962 -10.26935
 Alpha  occ. eigenvalues --  -10.26799 -10.26730 -10.26569 -10.26510 -10.26310
 Alpha  occ. eigenvalues --  -10.26270 -10.26207 -10.26030 -10.25866 -10.25453
 Alpha  occ. eigenvalues --  -10.25296 -10.25157 -10.24938 -10.24515 -10.24444
 Alpha  occ. eigenvalues --  -10.24419 -10.24131 -10.23970 -10.23948  -1.13194
 Alpha  occ. eigenvalues --   -1.09652  -1.07333  -1.05810  -0.92996  -0.92354
 Alpha  occ. eigenvalues --   -0.91827  -0.91052  -0.90437  -0.89515  -0.88761
 Alpha  occ. eigenvalues --   -0.87925  -0.85941  -0.85783  -0.84528  -0.83034
 Alpha  occ. eigenvalues --   -0.82359  -0.81498  -0.79542  -0.77964  -0.77208
 Alpha  occ. eigenvalues --   -0.76991  -0.76815  -0.76369  -0.75648  -0.75089
 Alpha  occ. eigenvalues --   -0.74895  -0.73999  -0.73002  -0.70698  -0.69996
 Alpha  occ. eigenvalues --   -0.68677  -0.66954  -0.65588  -0.65106  -0.64827
 Alpha  occ. eigenvalues --   -0.64017  -0.62498  -0.61376  -0.60745  -0.60312
 Alpha  occ. eigenvalues --   -0.59556  -0.57751  -0.57204  -0.56901  -0.56393
 Alpha  occ. eigenvalues --   -0.55708  -0.55338  -0.54816  -0.54416  -0.54396
 Alpha  occ. eigenvalues --   -0.53784  -0.52986  -0.52558  -0.51999  -0.51644
 Alpha  occ. eigenvalues --   -0.50992  -0.50633  -0.50496  -0.49871  -0.49676
 Alpha  occ. eigenvalues --   -0.49476  -0.48869  -0.48274  -0.48000  -0.47742
 Alpha  occ. eigenvalues --   -0.47517  -0.47319  -0.47149  -0.46876  -0.46480
 Alpha  occ. eigenvalues --   -0.46158  -0.46138  -0.46014  -0.45828  -0.45608
 Alpha  occ. eigenvalues --   -0.45394  -0.45169  -0.44686  -0.44340  -0.43907
 Alpha  occ. eigenvalues --   -0.43819  -0.43688  -0.43315  -0.43196  -0.43040
 Alpha  occ. eigenvalues --   -0.42750  -0.42096  -0.42001  -0.41790  -0.41174
 Alpha  occ. eigenvalues --   -0.41033  -0.40700  -0.40546  -0.40321  -0.39765
 Alpha  occ. eigenvalues --   -0.39521  -0.39129  -0.38939  -0.38846  -0.38662
 Alpha  occ. eigenvalues --   -0.38065  -0.37692  -0.37453  -0.37318  -0.36888
 Alpha  occ. eigenvalues --   -0.36686  -0.36235  -0.35505  -0.34326  -0.33988
 Alpha  occ. eigenvalues --   -0.33079  -0.32322  -0.31856  -0.31474  -0.30343
 Alpha  occ. eigenvalues --   -0.29335  -0.28121  -0.24080  -0.20023
 Alpha virt. eigenvalues --   -0.05591  -0.01366   0.02983   0.05261   0.07206
 Alpha virt. eigenvalues --    0.09754   0.10008   0.10877   0.11278   0.11617
 Alpha virt. eigenvalues --    0.11739   0.12225   0.13031   0.13599   0.13995

 Mulliken charges:
               1
     1  O   -0.518425
     2  O   -0.541757
     3  O   -0.597476
     4  O   -0.559365
     5  C    0.167101
     6  C    0.250424
     7  C    0.042377
     8  C   -0.187060
     9  C   -0.177484
    10  C    0.118878
    11  C   -0.318021
    12  C   -0.082540
    13  C   -0.324350
    14  C   -0.315109
    15  C   -0.060518
    16  C    0.059188
    17  C   -0.377127
    18  C   -0.090833
    19  C   -0.065667
    20  C    0.033027
    21  C    0.240467
    22  C   -0.163146
    23  C    0.117721
    24  C   -0.157295
    25  C   -0.071250
    26  C   -0.317921
    27  C   -0.309704
    28  C   -0.269050
    29  C   -0.131744
    30  C    0.125935
    31  C    0.093368
    32  C   -0.303249
    33  C   -0.370214
    34  C   -0.120404
    35  C    0.154278
    36  C   -0.360643
    37  C   -0.136904
    38  C   -0.121612
    39  C   -0.078846
    40  C   -0.017215
    41  C   -0.111181
    42  C   -0.107185
    43  C    0.088937
    44  C   -0.368718
    45  H    0.087267
    46  H    0.124568
    47  H    0.093486
    48  H    0.112132
    49  H    0.099286
    50  H    0.079379
    51  H    0.129121
    52  H    0.126523
    53  H    0.112798
    54  H    0.075351
    55  H    0.114832
    56  H    0.100576
    57  H    0.096627
    58  H    0.105644
    59  H    0.108567
    60  H    0.290560
    61  H    0.073926
    62  H    0.123276
    63  H    0.143287
    64  H    0.110226
    65  H    0.074512
    66  H    0.065791
    67  H    0.053896
    68  H    0.102797
    69  H    0.088287
    70  H    0.118668
    71  H    0.123972
    72  H    0.115500
    73  H    0.116128
    74  H    0.083505
    75  H    0.129357
    76  H    0.093990
    77  H    0.101448
    78  H    0.121480
    79  H    0.079135
    80  H    0.115305
    81  H    0.079098
    82  H    0.304392
    83  H    0.307707
    84  H    0.092348
    85  H    0.093744
    86  H    0.145416
    87  H    0.115196
    88  H    0.065139
    89  H    0.103393
    90  H    0.131727
    91  H    0.099056
    92  H    0.081665
    93  H    0.086728
    94  H    0.082666
    95  H    0.071473
    96  H    0.080673
    97  H    0.068324
    98  H    0.106791
    99  H    0.125602
   100  H    0.107966
 Sum of Mulliken charges =  -0.00000

 Dipole moment (field-independent basis, Debye):
    X=              2.3257    Y=             -0.6310    Z=              1.7002  Tot=              2.9492
 Quadrupole moment (field-independent basis, Debye-Ang):
   XX=           -261.5032   YY=           -258.5679   ZZ=           -279.2070
   XY=             -0.7623   XZ=             38.1723   YZ=             -1.7367

 Normal termination of Gaussian 16 at Thu Aug  1 14:51:54 2019.
