 Gaussian 16, Revision A.03,
 Gaussian 16:  ES64L-G16RevA.03 25-Dec-2016

 -------------------------------------
 # td=(NStates=1) CAM-B3LYP/6-31G(d,p)
 -------------------------------------

 --
 TD
 --
 Symbolic Z-matrix:
 Charge =  0 Multiplicity = 1

                         Standard orientation:
 ---------------------------------------------------------------------
 Center     Atomic      Atomic             Coordinates (Angstroms)
 Number     Number       Type             X           Y           Z
 ---------------------------------------------------------------------
      1          8           0      -11.638409    0.268742   -1.497629
      2          8           0      -13.113420   -2.291503    1.273092
      3          8           0       10.684722   -0.841166   -2.073710
      4          8           0       14.429489   -0.939071   -0.173020
      5          6           0      -10.975736   -0.155751   -0.256443
      6          6           0      -11.669878   -1.146539   -1.205349
      7          6           0      -11.721359    0.341207    0.982776
      8          6           0      -13.108198   -1.670317   -0.938595
      9          6           0      -13.174806   -0.069218    0.995092
     10          6           0      -13.558101   -1.324793    0.490412
     11          6           0      -10.806062   -1.940949   -2.215506
     12          6           0       -9.514491    0.004572   -0.342884
     13          6           0      -11.081199   -0.269418    2.184786
     14          6           0      -11.439615    1.861239    1.020746
     15          6           0       -8.595485   -0.890688    0.077431
     16          6           0       -7.197001   -0.713264    0.058810
     17          6           0       -6.267388   -1.893951    0.452324
     18          6           0       -6.656924    0.471531   -0.137381
     19          6           0       -5.262780    0.773862   -0.254555
     20          6           0       11.928153   -0.076793    1.408137
     21          6           0       11.643253   -0.563594   -1.244951
     22          6           0       12.687487   -1.416767    1.493392
     23          6           0       13.385787   -1.795360    0.244953
     24          6           0       12.490913   -1.797036   -0.979459
     25          6           0       11.158074   -0.009892    0.066570
     26          6           0       11.025380    0.070314    2.560543
     27          6           0       12.848675    1.127888    1.297048
     28          6           0       12.452829    0.583343   -1.920725
     29          6           0       -4.790074    2.080354   -0.387516
     30          6           0        9.860300    0.500426    0.025159
     31          6           0       -3.507779    2.487303   -0.400866
     32          6           0        8.601676    0.923759   -0.028741
     33          6           0       -3.128303    4.110602   -0.430977
     34          6           0       -2.321442    1.614678   -0.432337
     35          6           0        7.460574    0.102556   -0.073923
     36          6           0        7.595386   -1.329584    0.074342
     37          6           0        6.145127    0.718712   -0.253746
     38          6           0       -1.003504    1.975487   -0.247554
     39          6           0        4.917310    0.127143   -0.000407
     40          6           0        0.007914    0.972857   -0.173154
     41          6           0        3.762622    0.848591   -0.103367
     42          6           0        1.363673    1.398583   -0.211898
     43          6           0        2.431473    0.369743    0.016323
     44          6           0        2.243930   -0.989141    0.394126
     45          1           0      -13.216547   -2.693067   -1.028503
     46          1           0      -13.768019   -1.171412   -1.739289
     47          1           0      -13.769719    0.134574    1.955185
     48          1           0      -13.629334    0.711094    0.295443
     49          1           0      -14.738325   -1.143606    0.516452
     50          1           0      -10.460956   -3.000712   -1.901768
     51          1           0      -11.522676   -2.148681   -3.109446
     52          1           0      -10.032729   -1.472883   -2.729923
     53          1           0       -9.126370    0.909679   -0.779115
     54          1           0       -9.978454   -0.016077    2.071241
     55          1           0      -11.544413    0.119788    3.203531
     56          1           0      -11.163573   -1.432239    2.404227
     57          1           0      -11.985969    2.344949    0.197078
     58          1           0      -11.989519    2.319867    1.897822
     59          1           0      -10.321758    2.090032    1.045580
     60          1           0      -12.148771   -2.385495    1.159826
     61          1           0       -9.036741   -1.966504    0.202126
     62          1           0       -6.056235   -2.544541   -0.538465
     63          1           0       -5.394314   -1.570551    1.055600
     64          1           0       -6.923830   -2.699800    1.070396
     65          1           0       -7.427301    1.456317   -0.152844
     66          1           0       -4.642970    0.022734   -0.246416
     67          1           0       13.291673   -1.385770    2.224948
     68          1           0       12.044945   -2.358678    1.881488
     69          1           0       13.886353   -2.742991    0.486416
     70          1           0       13.238431   -2.101916   -1.900430
     71          1           0       11.915990   -2.804625   -1.050291
     72          1           0       11.664651   -0.067602    3.573024
     73          1           0       10.494036    1.129910    2.617369
     74          1           0       10.404336   -0.745104    2.694446
     75          1           0       13.757915    0.727409    0.588213
     76          1           0       12.093736    2.042073    1.339607
     77          1           0       13.312862    1.335858    2.316555
     78          1           0       12.577581    0.119326   -2.949199
     79          1           0       11.874684    1.418282   -2.125589
     80          1           0       13.392291    0.906673   -1.372330
     81          1           0       -5.425320    3.070375   -0.527629
     82          1           0       10.062624   -0.117552   -2.176058
     83          1           0       15.439847   -1.350222    0.323004
     84          1           0        8.649238    2.058631   -0.289457
     85          1           0       -2.578262    4.337531    0.436267
     86          1           0       -2.415228    4.523425   -1.233575
     87          1           0       -4.038961    4.770045   -0.705047
     88          1           0       -2.374398    0.449691   -0.385914
     89          1           0        6.554114   -2.085661    0.253250
     90          1           0        8.429859   -1.668120   -0.610350
     91          1           0        8.067331   -1.462561    1.178931
     92          1           0        6.173818    1.828664   -0.164619
     93          1           0       -0.653875    3.111879   -0.090482
     94          1           0        4.879096   -0.964923    0.105685
     95          1           0       -0.274864   -0.057559    0.024506
     96          1           0        3.919380    1.981572   -0.223082
     97          1           0        1.665989    2.288434   -0.564220
     98          1           0        1.100209   -1.241503    0.948206
     99          1           0        2.386565   -1.809703   -0.543652
    100          1           0        3.080344   -1.044939    1.225608
 ---------------------------------------------------------------------

 SCF Done:  E(RCAM-B3LYP) =  -1857.19576479     A.U. after   18 cycles

 Excitation energies and oscillator strengths:

 Excited State   1:      Singlet-A      1.7204 eV  720.67 nm  f=3.0388  <S**2>=0.000
     163 ->166         0.11458
     164 ->165         0.70873
     164 <-165        -0.14279
 This state for optimization and/or second-order correction.
 Total Energy, E(TD-HF/TD-DFT) =  -1857.13254117
 Copying the excited state density for this state as the 1-particle RhoCI density.

 The electronic state is 1-A.
 Alpha  occ. eigenvalues --  -19.24573 -19.21541 -19.21456 -19.20780 -10.32602
 Alpha  occ. eigenvalues --  -10.31806 -10.31631 -10.31566 -10.29873 -10.29572
 Alpha  occ. eigenvalues --  -10.28658 -10.28305 -10.28293 -10.28228 -10.28174
 Alpha  occ. eigenvalues --  -10.28009 -10.27570 -10.27510 -10.27471 -10.27440
 Alpha  occ. eigenvalues --  -10.27396 -10.27300 -10.27001 -10.26955 -10.26912
 Alpha  occ. eigenvalues --  -10.26795 -10.26787 -10.26690 -10.26676 -10.26549
 Alpha  occ. eigenvalues --  -10.26460 -10.26454 -10.26226 -10.25841 -10.25668
 Alpha  occ. eigenvalues --  -10.25658 -10.25605 -10.25575 -10.25567 -10.25429
 Alpha  occ. eigenvalues --  -10.25257 -10.25131 -10.24108 -10.23263  -1.15023
 Alpha  occ. eigenvalues --   -1.13600  -1.12724  -1.09521  -0.93391  -0.92416
 Alpha  occ. eigenvalues --   -0.92311  -0.91211  -0.90961  -0.89883  -0.87593
 Alpha  occ. eigenvalues --   -0.85888  -0.85807  -0.85296  -0.84179  -0.83533
 Alpha  occ. eigenvalues --   -0.81387  -0.80522  -0.80014  -0.78128  -0.76687
 Alpha  occ. eigenvalues --   -0.76658  -0.76049  -0.75428  -0.75110  -0.74976
 Alpha  occ. eigenvalues --   -0.74793  -0.74037  -0.71637  -0.70465  -0.70027
 Alpha  occ. eigenvalues --   -0.68687  -0.66977  -0.65274  -0.65036  -0.64220
 Alpha  occ. eigenvalues --   -0.63025  -0.61988  -0.61002  -0.60398  -0.59791
 Alpha  occ. eigenvalues --   -0.59666  -0.58567  -0.57756  -0.57185  -0.57064
 Alpha  occ. eigenvalues --   -0.55690  -0.55595  -0.55157  -0.54767  -0.53348
 Alpha  occ. eigenvalues --   -0.53286  -0.53098  -0.52437  -0.52059  -0.51330
 Alpha  occ. eigenvalues --   -0.51157  -0.50442  -0.50224  -0.50088  -0.49824
 Alpha  occ. eigenvalues --   -0.49519  -0.49039  -0.48680  -0.48328  -0.48176
 Alpha  occ. eigenvalues --   -0.48048  -0.47833  -0.47619  -0.47363  -0.46985
 Alpha  occ. eigenvalues --   -0.46347  -0.45971  -0.45332  -0.45243  -0.44664
 Alpha  occ. eigenvalues --   -0.44339  -0.43830  -0.43723  -0.43464  -0.43321
 Alpha  occ. eigenvalues --   -0.43016  -0.42818  -0.42529  -0.42412  -0.42350
 Alpha  occ. eigenvalues --   -0.42303  -0.41938  -0.41565  -0.41436  -0.40921
 Alpha  occ. eigenvalues --   -0.40346  -0.40282  -0.39885  -0.39834  -0.39642
 Alpha  occ. eigenvalues --   -0.39328  -0.38932  -0.38905  -0.38422  -0.38247
 Alpha  occ. eigenvalues --   -0.37990  -0.37751  -0.37560  -0.36960  -0.36611
 Alpha  occ. eigenvalues --   -0.36430  -0.35332  -0.34804  -0.34238  -0.33547
 Alpha  occ. eigenvalues --   -0.32737  -0.32087  -0.31848  -0.31336  -0.30647
 Alpha  occ. eigenvalues --   -0.27989  -0.27584  -0.23941  -0.18172
 Alpha virt. eigenvalues --   -0.07495  -0.01158   0.02701   0.03983   0.05711
 Alpha virt. eigenvalues --    0.06185   0.10097   0.10615   0.10843   0.11380
 Alpha virt. eigenvalues --    0.11762   0.11924   0.12303   0.12827   0.13266

 Mulliken charges:
               1
     1  O   -0.515517
     2  O   -0.517005
     3  O   -0.539594
     4  O   -0.531402
     5  C    0.204768
     6  C    0.221843
     7  C    0.009543
     8  C   -0.203201
     9  C   -0.170915
    10  C    0.152517
    11  C   -0.333023
    12  C   -0.116832
    13  C   -0.290693
    14  C   -0.310077
    15  C   -0.082797
    16  C    0.107020
    17  C   -0.364754
    18  C   -0.104166
    19  C   -0.076807
    20  C    0.019846
    21  C    0.297983
    22  C   -0.146609
    23  C    0.127670
    24  C   -0.185226
    25  C   -0.028391
    26  C   -0.297120
    27  C   -0.312012
    28  C   -0.300870
    29  C   -0.099781
    30  C    0.054008
    31  C    0.056555
    32  C   -0.274919
    33  C   -0.371933
    34  C   -0.115748
    35  C    0.137401
    36  C   -0.371984
    37  C   -0.132355
    38  C   -0.069262
    39  C   -0.072901
    40  C   -0.094375
    41  C   -0.118141
    42  C   -0.103946
    43  C    0.122279
    44  C   -0.366774
    45  H    0.116670
    46  H    0.107615
    47  H    0.098652
    48  H    0.086124
    49  H    0.075466
    50  H    0.092875
    51  H    0.094362
    52  H    0.137008
    53  H    0.108864
    54  H    0.101912
    55  H    0.090797
    56  H    0.072571
    57  H    0.123211
    58  H    0.095426
    59  H    0.105312
    60  H    0.308440
    61  H    0.071362
    62  H    0.107501
    63  H    0.128008
    64  H    0.095243
    65  H    0.067574
    66  H    0.079795
    67  H    0.096017
    68  H    0.080553
    69  H    0.079411
    70  H    0.091495
    71  H    0.102945
    72  H    0.067361
    73  H    0.096595
    74  H    0.115091
    75  H    0.150235
    76  H    0.095607
    77  H    0.074732
    78  H    0.094586
    79  H    0.092755
    80  H    0.117109
    81  H    0.080628
    82  H    0.309911
    83  H    0.301455
    84  H    0.113336
    85  H    0.135610
    86  H    0.109401
    87  H    0.100532
    88  H    0.075134
    89  H    0.091831
    90  H    0.138188
    91  H    0.108253
    92  H    0.078993
    93  H    0.082666
    94  H    0.085378
    95  H    0.093450
    96  H    0.077567
    97  H    0.089140
    98  H    0.083570
    99  H    0.112624
   100  H    0.120747
 Sum of Mulliken charges =  -0.00000

 Dipole moment (field-independent basis, Debye):
    X=              6.8557    Y=             -1.7413    Z=              1.9696  Tot=              7.3425
 Quadrupole moment (field-independent basis, Debye-Ang):
   XX=           -256.7041   YY=           -257.6100   ZZ=           -281.5567
   XY=            -20.6774   XZ=             26.4316   YZ=             -1.7662

 Normal termination of Gaussian 16 at Sun Jul 28 23:29:15 2019.
