 Gaussian 16, Revision A.03,
 Gaussian 16:  ES64L-G16RevA.03 25-Dec-2016

 -------------------------------------
 # td=(NStates=1) CAM-B3LYP/6-31G(d,p)
 -------------------------------------

 --
 TD
 --
 Symbolic Z-matrix:
 Charge =  0 Multiplicity = 1

                         Standard orientation:
 ---------------------------------------------------------------------
 Center     Atomic      Atomic             Coordinates (Angstroms)
 Number     Number       Type             X           Y           Z
 ---------------------------------------------------------------------
      1          8           0      -11.767987    0.096658   -1.498090
      2          8           0      -13.092440   -2.192319    1.598267
      3          8           0       10.574393   -1.295721   -1.981487
      4          8           0       14.515844   -1.149544   -0.208632
      5          6           0      -11.027764   -0.161856   -0.324327
      6          6           0      -11.719773   -1.204492   -1.155328
      7          6           0      -11.607018    0.397980    1.017993
      8          6           0      -13.156479   -1.691992   -0.806069
      9          6           0      -13.202931    0.140480    0.958319
     10          6           0      -13.573761   -1.357890    0.505634
     11          6           0      -11.037972   -2.096658   -2.033857
     12          6           0       -9.511783    0.025210   -0.371824
     13          6           0      -10.908705   -0.131151    2.183732
     14          6           0      -11.537074    1.930490    1.095857
     15          6           0       -8.607841   -0.812657    0.024620
     16          6           0       -7.194161   -0.556770    0.066593
     17          6           0       -6.400191   -1.931486    0.251549
     18          6           0       -6.605495    0.668829   -0.213114
     19          6           0       -5.126193    0.769764   -0.463268
     20          6           0       12.060200    0.295181    1.249874
     21          6           0       11.619280   -0.798952   -1.214221
     22          6           0       12.735404   -1.066421    1.616473
     23          6           0       13.345773   -1.800678    0.372618
     24          6           0       12.444551   -1.940357   -0.673852
     25          6           0       11.092684   -0.027288    0.061299
     26          6           0       11.257391    0.661045    2.519217
     27          6           0       13.139422    1.484609    0.891865
     28          6           0       12.417704    0.070558   -2.064964
     29          6           0       -4.752932    2.170037   -0.554166
     30          6           0        9.840872    0.412821   -0.021387
     31          6           0       -3.420843    2.445311   -0.636983
     32          6           0        8.652240    0.897691   -0.171859
     33          6           0       -3.016062    3.916304   -1.032124
     34          6           0       -2.334258    1.564737   -0.418313
     35          6           0        7.409212    0.205116   -0.046914
     36          6           0        7.600752   -1.258189    0.264130
     37          6           0        6.137880    0.803317   -0.093468
     38          6           0       -0.981688    1.798775   -0.360439
     39          6           0        4.910086    0.190489    0.095431
     40          6           0       -0.000983    0.909937   -0.056647
     41          6           0        3.693914    0.852119    0.028389
     42          6           0        1.302720    1.215189   -0.130603
     43          6           0        2.323378    0.261442    0.227275
     44          6           0        2.185081   -1.064674    0.610905
     45          1           0      -13.384396   -2.650652   -0.900513
     46          1           0      -13.802592   -1.087958   -1.485328
     47          1           0      -13.384133    0.404971    1.972023
     48          1           0      -13.401659    0.647726    0.221898
     49          1           0      -14.745091   -1.356322    0.622273
     50          1           0      -10.960774   -3.175120   -1.493289
     51          1           0      -11.556996   -2.308904   -2.931201
     52          1           0      -10.023143   -1.737928   -2.160032
     53          1           0       -9.146403    0.818991   -0.957669
     54          1           0       -9.848150    0.268213    2.349864
     55          1           0      -11.474425    0.285309    3.123391
     56          1           0      -10.835758   -1.237895    2.208347
     57          1           0      -11.846474    2.595767    0.193427
     58          1           0      -12.236362    2.373877    1.762379
     59          1           0      -10.478465    2.270944    1.355648
     60          1           0      -12.137340   -2.386680    1.425330
     61          1           0       -8.824853   -1.776432    0.381208
     62          1           0       -5.908142   -2.029890   -0.768142
     63          1           0       -5.534105   -1.984353    1.004833
     64          1           0       -7.113092   -2.703850    0.605887
     65          1           0       -7.316749    1.564216   -0.356365
     66          1           0       -4.676043   -0.188128   -0.631148
     67          1           0       13.499538   -1.022269    2.451302
     68          1           0       12.043173   -1.846714    1.900815
     69          1           0       13.603342   -2.736703    0.737612
     70          1           0       12.816697   -2.511211   -1.512273
     71          1           0       11.701282   -2.843255    0.010116
     72          1           0       11.855879    1.057720    3.422015
     73          1           0       10.628551    1.559615    2.377510
     74          1           0       10.572175   -0.225604    2.727302
     75          1           0       13.656434    1.145921   -0.171858
     76          1           0       12.569255    2.314446    0.839197
     77          1           0       13.980411    1.553684    1.709044
     78          1           0       12.802118   -0.454832   -2.944785
     79          1           0       11.973446    1.061590   -2.528742
     80          1           0       13.332241    0.261656   -1.695503
     81          1           0       -5.575659    2.861036   -0.709150
     82          1           0        9.842813   -0.674003   -2.139722
     83          1           0       15.019861   -1.024111    0.639206
     84          1           0        8.420796    1.793202   -0.280076
     85          1           0       -2.579572    4.203202    0.021561
     86          1           0       -2.425675    3.972403   -2.017414
     87          1           0       -3.884406    4.709866   -1.311493
     88          1           0       -2.549269    0.746339    0.167869
     89          1           0        6.689582   -1.781040    0.146773
     90          1           0        8.381889   -1.755205   -0.211926
     91          1           0        7.905664   -1.263683    1.359775
     92          1           0        6.145082    1.749145   -0.083938
     93          1           0       -0.736858    2.818229   -0.864477
     94          1           0        5.020808   -0.832983    0.190853
     95          1           0       -0.532567    0.013791    0.442466
     96          1           0        3.799620    1.950961   -0.449831
     97          1           0        1.741039    2.149386   -0.569028
     98          1           0        1.209247   -1.405911    0.460224
     99          1           0        2.917844   -1.832076    0.136957
    100          1           0        2.284058   -1.106596    1.738066
 ---------------------------------------------------------------------

 SCF Done:  E(RCAM-B3LYP) =  -1857.23854628     A.U. after   15 cycles

 Excitation energies and oscillator strengths:

 Excited State   1:      Singlet-A      1.9538 eV  634.59 nm  f=2.9349  <S**2>=0.000
     163 ->166         0.12847
     164 ->165         0.69995
     164 <-165        -0.11517
 This state for optimization and/or second-order correction.
 Total Energy, E(TD-HF/TD-DFT) =  -1857.16674646
 Copying the excited state density for this state as the 1-particle RhoCI density.

 The electronic state is 1-A.
 Alpha  occ. eigenvalues --  -19.22954 -19.21808 -19.20678 -19.20569 -10.32355
 Alpha  occ. eigenvalues --  -10.32105 -10.31746 -10.30525 -10.29904 -10.29590
 Alpha  occ. eigenvalues --  -10.28143 -10.28059 -10.27782 -10.27732 -10.27674
 Alpha  occ. eigenvalues --  -10.27659 -10.27550 -10.27461 -10.27343 -10.27294
 Alpha  occ. eigenvalues --  -10.27197 -10.27195 -10.27104 -10.26617 -10.26570
 Alpha  occ. eigenvalues --  -10.26531 -10.26427 -10.26407 -10.25965 -10.25916
 Alpha  occ. eigenvalues --  -10.25894 -10.25608 -10.25493 -10.25381 -10.25380
 Alpha  occ. eigenvalues --  -10.25369 -10.25148 -10.25088 -10.24854 -10.24401
 Alpha  occ. eigenvalues --  -10.24399 -10.23995 -10.23082 -10.22681  -1.19272
 Alpha  occ. eigenvalues --   -1.10495  -1.09193  -1.07599  -0.93015  -0.92522
 Alpha  occ. eigenvalues --   -0.92000  -0.91708  -0.90920  -0.90140  -0.88169
 Alpha  occ. eigenvalues --   -0.87960  -0.87041  -0.86115  -0.84627  -0.84097
 Alpha  occ. eigenvalues --   -0.82803  -0.81305  -0.80916  -0.78921  -0.77752
 Alpha  occ. eigenvalues --   -0.77200  -0.76441  -0.76094  -0.75458  -0.75189
 Alpha  occ. eigenvalues --   -0.75164  -0.74095  -0.72904  -0.70606  -0.69443
 Alpha  occ. eigenvalues --   -0.68282  -0.67237  -0.65695  -0.65412  -0.64648
 Alpha  occ. eigenvalues --   -0.63609  -0.62266  -0.61094  -0.60557  -0.60046
 Alpha  occ. eigenvalues --   -0.59603  -0.59386  -0.58396  -0.58153  -0.57555
 Alpha  occ. eigenvalues --   -0.56601  -0.56042  -0.55755  -0.54924  -0.54359
 Alpha  occ. eigenvalues --   -0.54278  -0.53450  -0.52833  -0.52610  -0.52206
 Alpha  occ. eigenvalues --   -0.52159  -0.51946  -0.51271  -0.50294  -0.50025
 Alpha  occ. eigenvalues --   -0.49750  -0.49521  -0.49113  -0.48963  -0.48822
 Alpha  occ. eigenvalues --   -0.48670  -0.48304  -0.48045  -0.47612  -0.47532
 Alpha  occ. eigenvalues --   -0.47175  -0.46853  -0.46333  -0.45917  -0.45348
 Alpha  occ. eigenvalues --   -0.45215  -0.44943  -0.44502  -0.44381  -0.44119
 Alpha  occ. eigenvalues --   -0.43850  -0.43025  -0.42844  -0.42576  -0.42257
 Alpha  occ. eigenvalues --   -0.42136  -0.41602  -0.41405  -0.41274  -0.41011
 Alpha  occ. eigenvalues --   -0.40778  -0.40331  -0.40174  -0.40008  -0.39967
 Alpha  occ. eigenvalues --   -0.39745  -0.39368  -0.39203  -0.38830  -0.38782
 Alpha  occ. eigenvalues --   -0.38643  -0.38376  -0.38027  -0.37124  -0.36909
 Alpha  occ. eigenvalues --   -0.36570  -0.36038  -0.34852  -0.34166  -0.33774
 Alpha  occ. eigenvalues --   -0.32831  -0.32265  -0.32076  -0.31587  -0.30122
 Alpha  occ. eigenvalues --   -0.29647  -0.27637  -0.24198  -0.18816
 Alpha virt. eigenvalues --   -0.06534  -0.00940   0.02907   0.05494   0.06772
 Alpha virt. eigenvalues --    0.08392   0.10224   0.10878   0.12114   0.12193
 Alpha virt. eigenvalues --    0.12760   0.13068   0.13429   0.13919   0.14140

 Mulliken charges:
               1
     1  O   -0.481579
     2  O   -0.556571
     3  O   -0.574210
     4  O   -0.552607
     5  C    0.206122
     6  C    0.241534
     7  C   -0.000879
     8  C   -0.187776
     9  C   -0.145154
    10  C    0.126699
    11  C   -0.332459
    12  C   -0.144580
    13  C   -0.284597
    14  C   -0.320171
    15  C   -0.029287
    16  C    0.051625
    17  C   -0.375725
    18  C   -0.131955
    19  C   -0.079868
    20  C    0.031172
    21  C    0.303136
    22  C   -0.194939
    23  C    0.141388
    24  C   -0.158797
    25  C   -0.103551
    26  C   -0.306046
    27  C   -0.300315
    28  C   -0.307558
    29  C   -0.115066
    30  C    0.175828
    31  C    0.069597
    32  C   -0.260686
    33  C   -0.364612
    34  C   -0.112217
    35  C    0.085576
    36  C   -0.377819
    37  C   -0.089042
    38  C   -0.082400
    39  C   -0.066646
    40  C   -0.084529
    41  C   -0.142291
    42  C   -0.108647
    43  C    0.125639
    44  C   -0.389838
    45  H    0.111074
    46  H    0.122614
    47  H    0.099391
    48  H    0.103091
    49  H    0.082779
    50  H    0.076096
    51  H    0.125429
    52  H    0.118525
    53  H    0.100980
    54  H    0.106800
    55  H    0.093430
    56  H    0.076474
    57  H    0.099218
    58  H    0.114305
    59  H    0.092143
    60  H    0.298025
    61  H    0.065550
    62  H    0.126612
    63  H    0.112377
    64  H    0.111923
    65  H    0.084265
    66  H    0.114465
    67  H    0.080495
    68  H    0.104657
    69  H    0.099280
    70  H    0.120381
    71  H    0.042672
    72  H    0.093112
    73  H    0.101225
    74  H    0.103122
    75  H    0.115396
    76  H    0.121397
    77  H    0.085333
    78  H    0.105472
    79  H    0.086789
    80  H    0.135521
    81  H    0.111292
    82  H    0.311825
    83  H    0.303111
    84  H    0.075553
    85  H    0.127498
    86  H    0.124572
    87  H    0.084611
    88  H    0.067339
    89  H    0.102790
    90  H    0.131811
    91  H    0.114876
    92  H    0.050550
    93  H    0.069304
    94  H    0.068040
    95  H    0.084256
    96  H    0.074979
    97  H    0.097656
    98  H    0.123710
    99  H    0.121068
   100  H    0.128840
 Sum of Mulliken charges =  -0.00000

 Dipole moment (field-independent basis, Debye):
    X=              2.4180    Y=             -0.0259    Z=              1.3543  Tot=              2.7716
 Quadrupole moment (field-independent basis, Debye-Ang):
   XX=           -287.3798   YY=           -260.6086   ZZ=           -276.4221
   XY=              3.3579   XZ=             42.2625   YZ=             -3.1755

 Normal termination of Gaussian 16 at Fri Aug  2 08:25:18 2019.
