 Gaussian 16, Revision A.03,
 Gaussian 16:  ES64L-G16RevA.03 25-Dec-2016

 -------------------------------------
 # td=(NStates=1) CAM-B3LYP/6-31G(d,p)
 -------------------------------------

 --
 TD
 --
 Symbolic Z-matrix:
 Charge =  0 Multiplicity = 1

                         Standard orientation:
 ---------------------------------------------------------------------
 Center     Atomic      Atomic             Coordinates (Angstroms)
 Number     Number       Type             X           Y           Z
 ---------------------------------------------------------------------
      1          8           0      -11.762808    0.201136   -1.554847
      2          8           0      -13.274335   -2.548506    1.451955
      3          8           0       10.674528   -1.116465   -2.101771
      4          8           0       14.612453   -1.012320   -0.110060
      5          6           0      -10.985224   -0.177020   -0.283164
      6          6           0      -11.599937   -1.202735   -1.160157
      7          6           0      -11.688424    0.291227    0.900358
      8          6           0      -12.945565   -1.751391   -0.891847
      9          6           0      -13.240609   -0.082454    0.886638
     10          6           0      -13.546373   -1.513197    0.388952
     11          6           0      -10.741544   -2.001195   -2.207410
     12          6           0       -9.557212    0.142754   -0.300540
     13          6           0      -11.082590   -0.255295    2.201831
     14          6           0      -11.599984    1.809616    0.904221
     15          6           0       -8.663863   -0.747677    0.154281
     16          6           0       -7.161810   -0.501497    0.019540
     17          6           0       -6.408097   -1.841113    0.314069
     18          6           0       -6.560903    0.723338   -0.131095
     19          6           0       -5.168218    0.949104   -0.229847
     20          6           0       11.864234    0.112896    1.329635
     21          6           0       11.694976   -0.660526   -1.161047
     22          6           0       12.572195   -1.335963    1.514795
     23          6           0       13.466243   -1.781494    0.300711
     24          6           0       12.448616   -1.949194   -0.874190
     25          6           0       11.048747   -0.089584    0.070685
     26          6           0       10.965734    0.147804    2.537819
     27          6           0       12.832100    1.199466    1.337222
     28          6           0       12.467666    0.341353   -1.972277
     29          6           0       -4.646065    2.168524   -0.280857
     30          6           0        9.878690    0.497553    0.006728
     31          6           0       -3.308652    2.730128   -0.364985
     32          6           0        8.658193    0.920684   -0.241368
     33          6           0       -3.035582    4.170786   -0.521877
     34          6           0       -2.309116    1.773453   -0.234664
     35          6           0        7.423146    0.008506   -0.133117
     36          6           0        7.610448   -1.399580    0.251436
     37          6           0        6.233178    0.705192   -0.273165
     38          6           0       -0.993035    2.051335   -0.291493
     39          6           0        4.932633    0.184049   -0.039742
     40          6           0        0.017515    1.001470   -0.025346
     41          6           0        3.801163    0.940092   -0.168266
     42          6           0        1.369686    1.332186   -0.108092
     43          6           0        2.467759    0.425626   -0.014740
     44          6           0        2.169989   -1.118249    0.332553
     45          1           0      -12.975417   -2.647662   -1.155290
     46          1           0      -13.450341   -1.193650   -1.571885
     47          1           0      -13.547605    0.285615    1.855785
     48          1           0      -13.533087    0.779008    0.144987
     49          1           0      -14.646534   -1.704772    0.259271
     50          1           0      -10.184756   -2.802980   -1.747743
     51          1           0      -11.429229   -2.315130   -3.054395
     52          1           0       -9.957249   -1.198254   -2.917324
     53          1           0       -9.353481    0.991637   -0.864645
     54          1           0      -10.129032    0.056941    2.546043
     55          1           0      -11.568373    0.042006    3.102694
     56          1           0      -11.105998   -1.514534    2.159015
     57          1           0      -12.014508    2.110564   -0.015273
     58          1           0      -12.473955    2.042476    1.440013
     59          1           0      -10.713852    2.115815    1.271972
     60          1           0      -12.353003   -3.032566    1.426022
     61          1           0       -8.864102   -1.853765    0.617594
     62          1           0       -5.890446   -2.231167   -0.395960
     63          1           0       -5.595746   -1.513713    0.940505
     64          1           0       -6.858760   -2.639835    0.914444
     65          1           0       -7.280937    1.604193   -0.044286
     66          1           0       -4.527770    0.106318   -0.534976
     67          1           0       13.296574   -1.162705    2.254038
     68          1           0       11.833643   -2.044397    1.840442
     69          1           0       13.873005   -2.963280    0.557681
     70          1           0       13.034866   -2.228913   -1.788987
     71          1           0       11.718168   -2.700057   -0.771283
     72          1           0       11.497479    0.124251    3.549490
     73          1           0       10.416033    1.062113    2.601881
     74          1           0       10.103456   -0.466988    2.367625
     75          1           0       13.367756    1.053728    0.332831
     76          1           0       12.380284    2.265887    1.375504
     77          1           0       13.498855    1.170864    2.215296
     78          1           0       12.683063   -0.039250   -2.832185
     79          1           0       11.923072    1.429365   -2.208563
     80          1           0       13.349149    0.714324   -1.444917
     81          1           0       -5.332291    3.064258   -0.046874
     82          1           0       10.198220   -0.235873   -2.360226
     83          1           0       15.080436   -0.759855    0.758844
     84          1           0        8.469807    2.086045   -0.282395
     85          1           0       -2.457362    4.651479    0.323133
     86          1           0       -2.582845    4.358425   -1.390462
     87          1           0       -4.062841    4.595471   -0.701983
     88          1           0       -2.582466    0.698749   -0.133202
     89          1           0        6.683573   -1.982979    0.214290
     90          1           0        8.368556   -1.870484   -0.691819
     91          1           0        8.108913   -1.716850    1.105370
     92          1           0        5.926763    1.842582   -0.570457
     93          1           0       -0.586679    3.160311   -0.373554
     94          1           0        4.745739   -0.867055    0.402058
     95          1           0       -0.215693    0.027957    0.487260
     96          1           0        3.832672    1.984030   -0.736362
     97          1           0        1.668675    2.293402   -0.438545
     98          1           0        1.181435   -1.158909    0.673851
     99          1           0        2.333354   -1.822403   -0.616044
    100          1           0        2.621480   -1.554420    1.216357
 ---------------------------------------------------------------------

 SCF Done:  E(RCAM-B3LYP) =  -1857.26900663     A.U. after   15 cycles

 Excitation energies and oscillator strengths:

 Excited State   1:      Singlet-A      2.1292 eV  582.29 nm  f=2.9560  <S**2>=0.000
     163 ->166         0.11859
     164 ->165         0.70139
     164 <-165        -0.10956
 This state for optimization and/or second-order correction.
 Total Energy, E(TD-HF/TD-DFT) =  -1857.19075814
 Copying the excited state density for this state as the 1-particle RhoCI density.

 The electronic state is 1-A.
 Alpha  occ. eigenvalues --  -19.23920 -19.20845 -19.20842 -19.20545 -10.33199
 Alpha  occ. eigenvalues --  -10.31515 -10.31462 -10.31273 -10.30660 -10.29185
 Alpha  occ. eigenvalues --  -10.28628 -10.28176 -10.28151 -10.27957 -10.27772
 Alpha  occ. eigenvalues --  -10.27729 -10.27677 -10.27620 -10.27606 -10.27249
 Alpha  occ. eigenvalues --  -10.27245 -10.26873 -10.26787 -10.26765 -10.26710
 Alpha  occ. eigenvalues --  -10.26604 -10.26541 -10.26503 -10.26433 -10.26158
 Alpha  occ. eigenvalues --  -10.26084 -10.25807 -10.25781 -10.25693 -10.25620
 Alpha  occ. eigenvalues --  -10.25605 -10.25605 -10.25118 -10.24933 -10.24187
 Alpha  occ. eigenvalues --  -10.24158 -10.24101 -10.22745 -10.22311  -1.11107
 Alpha  occ. eigenvalues --   -1.09757  -1.07843  -1.04998  -0.93834  -0.92387
 Alpha  occ. eigenvalues --   -0.91818  -0.91210  -0.90097  -0.89466  -0.88872
 Alpha  occ. eigenvalues --   -0.86873  -0.86312  -0.85786  -0.84457  -0.83060
 Alpha  occ. eigenvalues --   -0.82223  -0.80833  -0.79881  -0.78776  -0.77423
 Alpha  occ. eigenvalues --   -0.77391  -0.76881  -0.76790  -0.76421  -0.76175
 Alpha  occ. eigenvalues --   -0.75850  -0.74893  -0.72755  -0.70718  -0.69254
 Alpha  occ. eigenvalues --   -0.68485  -0.66487  -0.65403  -0.64657  -0.64363
 Alpha  occ. eigenvalues --   -0.63294  -0.62134  -0.60276  -0.59806  -0.59351
 Alpha  occ. eigenvalues --   -0.57908  -0.57768  -0.57481  -0.57361  -0.56004
 Alpha  occ. eigenvalues --   -0.55722  -0.55325  -0.54688  -0.54343  -0.54004
 Alpha  occ. eigenvalues --   -0.53548  -0.53396  -0.52794  -0.52614  -0.52191
 Alpha  occ. eigenvalues --   -0.51825  -0.50882  -0.50451  -0.50113  -0.49633
 Alpha  occ. eigenvalues --   -0.49351  -0.49106  -0.48784  -0.48610  -0.48386
 Alpha  occ. eigenvalues --   -0.48079  -0.47998  -0.47766  -0.47425  -0.47117
 Alpha  occ. eigenvalues --   -0.46926  -0.46276  -0.45822  -0.45264  -0.44951
 Alpha  occ. eigenvalues --   -0.44744  -0.44525  -0.44321  -0.44084  -0.43638
 Alpha  occ. eigenvalues --   -0.43220  -0.43029  -0.42901  -0.42801  -0.42669
 Alpha  occ. eigenvalues --   -0.42349  -0.42028  -0.41911  -0.41391  -0.40783
 Alpha  occ. eigenvalues --   -0.40442  -0.40221  -0.40123  -0.39883  -0.39585
 Alpha  occ. eigenvalues --   -0.39516  -0.39317  -0.39101  -0.38815  -0.38686
 Alpha  occ. eigenvalues --   -0.38167  -0.38049  -0.37685  -0.37362  -0.37063
 Alpha  occ. eigenvalues --   -0.36411  -0.35408  -0.35131  -0.34671  -0.33754
 Alpha  occ. eigenvalues --   -0.32817  -0.32353  -0.31656  -0.31469  -0.31044
 Alpha  occ. eigenvalues --   -0.29394  -0.27712  -0.24910  -0.19321
 Alpha virt. eigenvalues --   -0.06253   0.00041   0.02891   0.05611   0.07787
 Alpha virt. eigenvalues --    0.08915   0.09522   0.09919   0.11349   0.12191
 Alpha virt. eigenvalues --    0.12386   0.12501   0.12870   0.13143   0.13278

 Mulliken charges:
               1
     1  O   -0.539901
     2  O   -0.586440
     3  O   -0.574637
     4  O   -0.541497
     5  C    0.225067
     6  C    0.209823
     7  C   -0.010708
     8  C   -0.164615
     9  C   -0.196858
    10  C    0.161169
    11  C   -0.323052
    12  C   -0.106433
    13  C   -0.283667
    14  C   -0.316697
    15  C   -0.069652
    16  C    0.055683
    17  C   -0.388786
    18  C   -0.115913
    19  C   -0.074470
    20  C    0.021696
    21  C    0.228960
    22  C   -0.184525
    23  C    0.152874
    24  C   -0.181627
    25  C   -0.039980
    26  C   -0.318379
    27  C   -0.298765
    28  C   -0.295665
    29  C   -0.111343
    30  C    0.148711
    31  C    0.073970
    32  C   -0.295970
    33  C   -0.374779
    34  C   -0.080168
    35  C    0.097336
    36  C   -0.374064
    37  C   -0.097598
    38  C   -0.108985
    39  C   -0.077487
    40  C   -0.105482
    41  C   -0.130005
    42  C   -0.103771
    43  C    0.077302
    44  C   -0.361444
    45  H    0.097544
    46  H    0.146898
    47  H    0.109224
    48  H    0.097512
    49  H    0.104707
    50  H    0.113708
    51  H    0.109383
    52  H    0.090745
    53  H    0.124080
    54  H    0.107875
    55  H    0.105839
    56  H    0.043038
    57  H    0.131180
    58  H    0.101593
    59  H    0.112377
    60  H    0.299284
    61  H    0.083452
    62  H    0.132499
    63  H    0.119250
    64  H    0.110472
    65  H    0.086902
    66  H    0.090676
    67  H    0.076378
    68  H    0.119476
    69  H    0.039885
    70  H    0.109471
    71  H    0.127532
    72  H    0.092126
    73  H    0.103527
    74  H    0.109834
    75  H    0.106824
    76  H    0.097567
    77  H    0.095180
    78  H    0.129232
    79  H    0.061535
    80  H    0.124497
    81  H    0.059753
    82  H    0.306921
    83  H    0.317993
    84  H    0.109218
    85  H    0.126480
    86  H    0.144454
    87  H    0.104991
    88  H    0.084014
    89  H    0.115541
    90  H    0.110351
    91  H    0.138391
    92  H    0.084600
    93  H    0.087863
    94  H    0.084487
    95  H    0.097425
    96  H    0.077746
    97  H    0.076804
    98  H    0.106761
    99  H    0.115200
   100  H    0.120482
 Sum of Mulliken charges =  -0.00000

 Dipole moment (field-independent basis, Debye):
    X=              3.3975    Y=              0.1822    Z=              2.2719  Tot=              4.0912
 Quadrupole moment (field-independent basis, Debye-Ang):
   XX=           -302.5335   YY=           -255.4646   ZZ=           -277.2650
   XY=             13.1422   XZ=             34.4017   YZ=             -2.8413

 Normal termination of Gaussian 16 at Thu Aug  1 03:15:46 2019.
