 Gaussian 16, Revision A.03,
 Gaussian 16:  ES64L-G16RevA.03 25-Dec-2016

 -------------------------------------
 # td=(NStates=1) CAM-B3LYP/6-31G(d,p)
 -------------------------------------

 --
 TD
 --
 Symbolic Z-matrix:
 Charge =  0 Multiplicity = 1

                         Standard orientation:
 ---------------------------------------------------------------------
 Center     Atomic      Atomic             Coordinates (Angstroms)
 Number     Number       Type             X           Y           Z
 ---------------------------------------------------------------------
      1          8           0      -11.678969    0.320571   -1.485097
      2          8           0      -13.156441   -2.532596    1.254967
      3          8           0       10.587005   -0.934367   -2.135605
      4          8           0       14.499241   -1.118941    0.027951
      5          6           0      -10.988309   -0.082765   -0.336753
      6          6           0      -11.678703   -1.075979   -1.330150
      7          6           0      -11.737356    0.272635    0.921639
      8          6           0      -12.978890   -1.746215   -1.110466
      9          6           0      -13.269177   -0.099503    0.842499
     10          6           0      -13.548516   -1.564955    0.378965
     11          6           0      -10.756328   -1.778594   -2.266614
     12          6           0       -9.499047    0.111998   -0.353887
     13          6           0      -11.138308   -0.379510    2.124324
     14          6           0      -11.685213    1.774448    1.158100
     15          6           0       -8.587914   -0.700467    0.095914
     16          6           0       -7.144192   -0.554736    0.223265
     17          6           0       -6.377630   -1.782231    0.631034
     18          6           0       -6.560521    0.679243    0.001710
     19          6           0       -5.214349    0.920815   -0.082900
     20          6           0       11.829432   -0.079349    1.280579
     21          6           0       11.618573   -0.506794   -1.274363
     22          6           0       12.480551   -1.397241    1.437352
     23          6           0       13.311015   -1.921902    0.267008
     24          6           0       12.415338   -1.859003   -1.061960
     25          6           0       11.012421   -0.003185    0.009781
     26          6           0       10.989098    0.119338    2.522968
     27          6           0       12.875388    1.148834    1.360303
     28          6           0       12.492980    0.550165   -2.023075
     29          6           0       -4.714268    2.201583   -0.325522
     30          6           0        9.865914    0.529518   -0.069661
     31          6           0       -3.355209    2.553718   -0.378380
     32          6           0        8.663213    1.036522   -0.259277
     33          6           0       -3.055550    3.997627   -0.540206
     34          6           0       -2.287860    1.664982   -0.176336
     35          6           0        7.442924    0.150182   -0.055448
     36          6           0        7.642200   -1.299949    0.154450
     37          6           0        6.316918    0.699534   -0.146023
     38          6           0       -0.924360    2.003730   -0.242261
     39          6           0        4.981080    0.122720    0.035180
     40          6           0        0.087266    0.994084   -0.195098
     41          6           0        3.888694    1.000777    0.053087
     42          6           0        1.409256    1.262724   -0.004648
     43          6           0        2.505114    0.416567    0.101703
     44          6           0        2.238908   -1.115093    0.173210
     45          1           0      -12.961827   -2.775515   -1.460368
     46          1           0      -13.757953   -1.236356   -1.835869
     47          1           0      -13.861034    0.122908    1.844724
     48          1           0      -13.704787    0.338881    0.077496
     49          1           0      -14.624201   -1.864154    0.400571
     50          1           0      -10.158103   -2.653835   -1.900748
     51          1           0      -11.523793   -2.304088   -3.075745
     52          1           0      -10.077223   -1.147073   -2.717326
     53          1           0       -9.156278    1.178435   -0.758949
     54          1           0      -10.348085    0.605630    2.346634
     55          1           0      -11.882852   -0.581098    2.999355
     56          1           0      -10.668955   -1.540752    1.834558
     57          1           0      -12.045536    2.152051    0.267452
     58          1           0      -12.250582    1.960778    2.100731
     59          1           0      -10.573907    1.940656    1.089829
     60          1           0      -12.139698   -2.627285    1.208490
     61          1           0       -8.862217   -1.659850    0.538542
     62          1           0       -5.769151   -2.096178   -0.439581
     63          1           0       -5.609122   -1.473678    1.393797
     64          1           0       -7.115009   -2.544784    1.000695
     65          1           0       -7.296644    1.375486   -0.213929
     66          1           0       -4.416998    0.077694    0.103957
     67          1           0       13.137964   -1.330025    2.326991
     68          1           0       11.739606   -2.143823    1.772223
     69          1           0       13.779716   -3.052048    0.405653
     70          1           0       13.085892   -1.913729   -1.786718
     71          1           0       11.574660   -2.783433   -0.909511
     72          1           0       11.441584   -0.261843    3.413879
     73          1           0       10.419827    1.072309    2.505871
     74          1           0       10.149071   -0.669206    2.429064
     75          1           0       13.777065    0.899245    0.805033
     76          1           0       12.445941    2.117595    1.205250
     77          1           0       13.333713    1.038836    2.440611
     78          1           0       12.655074    0.219388   -3.111126
     79          1           0       12.015814    1.544485   -2.209826
     80          1           0       13.448760    0.424113   -1.539972
     81          1           0       -5.311601    3.295627   -0.402747
     82          1           0        9.997501   -0.075108   -2.094077
     83          1           0       15.217297   -1.339223    0.693392
     84          1           0        8.232413    1.959128   -0.810199
     85          1           0       -2.723609    4.513201    0.567385
     86          1           0       -2.288005    4.264189   -1.207076
     87          1           0       -3.906827    4.670065   -0.721961
     88          1           0       -2.492811    0.622090   -0.156093
     89          1           0        6.737725   -1.862890    0.181725
     90          1           0        8.372319   -1.949263   -0.513319
     91          1           0        8.094651   -1.353048    1.277231
     92          1           0        6.096072    1.778336   -0.283413
     93          1           0       -0.512664    3.063992   -0.531589
     94          1           0        4.870957   -1.009371    0.362045
     95          1           0       -0.350508   -0.122133   -0.178917
     96          1           0        4.004632    2.109684    0.255926
     97          1           0        1.735390    2.280101    0.047205
     98          1           0        1.196935   -1.203948   -0.256929
     99          1           0        2.925895   -1.730341   -0.466532
    100          1           0        2.509306   -1.783810    1.148234
 ---------------------------------------------------------------------

 SCF Done:  E(RCAM-B3LYP) =  -1857.29459386     A.U. after   15 cycles

 Excitation energies and oscillator strengths:

 Excited State   1:      Singlet-A      2.0906 eV  593.06 nm  f=2.6803  <S**2>=0.000
     163 ->166        -0.11806
     164 ->165         0.70219
     164 <-165        -0.10991
 This state for optimization and/or second-order correction.
 Total Energy, E(TD-HF/TD-DFT) =  -1857.21776612
 Copying the excited state density for this state as the 1-particle RhoCI density.

 The electronic state is 1-A.
 Alpha  occ. eigenvalues --  -19.22754 -19.22535 -19.21217 -19.20403 -10.33042
 Alpha  occ. eigenvalues --  -10.32195 -10.32131 -10.31664 -10.30650 -10.28507
 Alpha  occ. eigenvalues --  -10.28310 -10.28259 -10.28254 -10.28048 -10.27979
 Alpha  occ. eigenvalues --  -10.27880 -10.27829 -10.27796 -10.27761 -10.27734
 Alpha  occ. eigenvalues --  -10.27346 -10.27323 -10.27264 -10.27190 -10.26722
 Alpha  occ. eigenvalues --  -10.26630 -10.26608 -10.26536 -10.26518 -10.26483
 Alpha  occ. eigenvalues --  -10.26480 -10.26406 -10.26168 -10.26143 -10.25894
 Alpha  occ. eigenvalues --  -10.25843 -10.25790 -10.25238 -10.25012 -10.24831
 Alpha  occ. eigenvalues --  -10.24816 -10.24648 -10.24455 -10.24369  -1.17127
 Alpha  occ. eigenvalues --   -1.10203  -1.09123  -1.08705  -0.93681  -0.92752
 Alpha  occ. eigenvalues --   -0.92168  -0.91798  -0.91058  -0.90108  -0.87118
 Alpha  occ. eigenvalues --   -0.86636  -0.86205  -0.85086  -0.84724  -0.82856
 Alpha  occ. eigenvalues --   -0.81823  -0.80753  -0.80133  -0.78020  -0.77013
 Alpha  occ. eigenvalues --   -0.76448  -0.75972  -0.75713  -0.75484  -0.75370
 Alpha  occ. eigenvalues --   -0.75254  -0.73965  -0.72976  -0.69855  -0.69219
 Alpha  occ. eigenvalues --   -0.68571  -0.66835  -0.65345  -0.64624  -0.63955
 Alpha  occ. eigenvalues --   -0.63166  -0.61647  -0.60457  -0.59822  -0.59778
 Alpha  occ. eigenvalues --   -0.58619  -0.57907  -0.57664  -0.57001  -0.56906
 Alpha  occ. eigenvalues --   -0.56137  -0.55670  -0.55568  -0.54683  -0.54267
 Alpha  occ. eigenvalues --   -0.53963  -0.52978  -0.52441  -0.52040  -0.51768
 Alpha  occ. eigenvalues --   -0.51453  -0.50810  -0.50646  -0.49701  -0.49584
 Alpha  occ. eigenvalues --   -0.49240  -0.48787  -0.48746  -0.48192  -0.47572
 Alpha  occ. eigenvalues --   -0.47493  -0.47157  -0.46929  -0.46753  -0.46491
 Alpha  occ. eigenvalues --   -0.46268  -0.46096  -0.46006  -0.45450  -0.45155
 Alpha  occ. eigenvalues --   -0.44979  -0.44921  -0.44513  -0.43961  -0.43676
 Alpha  occ. eigenvalues --   -0.43621  -0.43360  -0.43241  -0.42862  -0.42687
 Alpha  occ. eigenvalues --   -0.42368  -0.42036  -0.41911  -0.41547  -0.41184
 Alpha  occ. eigenvalues --   -0.41124  -0.40778  -0.40349  -0.40255  -0.39986
 Alpha  occ. eigenvalues --   -0.39625  -0.39410  -0.39043  -0.38794  -0.38517
 Alpha  occ. eigenvalues --   -0.38237  -0.38103  -0.37511  -0.37247  -0.36897
 Alpha  occ. eigenvalues --   -0.36360  -0.35812  -0.35070  -0.34086  -0.33198
 Alpha  occ. eigenvalues --   -0.32769  -0.32468  -0.32172  -0.31412  -0.30082
 Alpha  occ. eigenvalues --   -0.29838  -0.28284  -0.25146  -0.19535
 Alpha virt. eigenvalues --   -0.06444  -0.00368   0.03290   0.05565   0.07274
 Alpha virt. eigenvalues --    0.08089   0.08912   0.09269   0.10622   0.11028
 Alpha virt. eigenvalues --    0.11789   0.12083   0.12263   0.12753   0.13063

 Mulliken charges:
               1
     1  O   -0.497254
     2  O   -0.533558
     3  O   -0.557235
     4  O   -0.556967
     5  C    0.198867
     6  C    0.274206
     7  C    0.006486
     8  C   -0.252866
     9  C   -0.181973
    10  C    0.160955
    11  C   -0.327540
    12  C   -0.145916
    13  C   -0.254019
    14  C   -0.301200
    15  C   -0.035230
    16  C    0.063476
    17  C   -0.356942
    18  C   -0.059044
    19  C   -0.106913
    20  C    0.015760
    21  C    0.226450
    22  C   -0.177748
    23  C    0.134479
    24  C   -0.165753
    25  C   -0.045592
    26  C   -0.305955
    27  C   -0.302816
    28  C   -0.327405
    29  C   -0.107630
    30  C    0.173366
    31  C    0.115676
    32  C   -0.315566
    33  C   -0.378282
    34  C   -0.114988
    35  C    0.138600
    36  C   -0.372024
    37  C   -0.108090
    38  C   -0.087527
    39  C   -0.089027
    40  C   -0.098431
    41  C   -0.142988
    42  C   -0.106035
    43  C    0.099683
    44  C   -0.367164
    45  H    0.112447
    46  H    0.109514
    47  H    0.083422
    48  H    0.114404
    49  H    0.089548
    50  H    0.107883
    51  H    0.072502
    52  H    0.133807
    53  H    0.097197
    54  H    0.078105
    55  H    0.114940
    56  H    0.035621
    57  H    0.128133
    58  H    0.112644
    59  H    0.091415
    60  H    0.294900
    61  H    0.066105
    62  H    0.100148
    63  H    0.128857
    64  H    0.110210
    65  H    0.071337
    66  H    0.094916
    67  H    0.082954
    68  H    0.103230
    69  H    0.060225
    70  H    0.116660
    71  H    0.099028
    72  H    0.107151
    73  H    0.113823
    74  H    0.079938
    75  H    0.132105
    76  H    0.111682
    77  H    0.070314
    78  H    0.107239
    79  H    0.098616
    80  H    0.141760
    81  H    0.076733
    82  H    0.298285
    83  H    0.314940
    84  H    0.116724
    85  H    0.087994
    86  H    0.130357
    87  H    0.109968
    88  H    0.079244
    89  H    0.108586
    90  H    0.132031
    91  H    0.099249
    92  H    0.072736
    93  H    0.090681
    94  H    0.092014
    95  H    0.081747
    96  H    0.103797
    97  H    0.076527
    98  H    0.109285
    99  H    0.113336
   100  H    0.104660
 Sum of Mulliken charges =  -0.00000

 Dipole moment (field-independent basis, Debye):
    X=              3.2871    Y=             -0.4448    Z=              1.9111  Tot=              3.8282
 Quadrupole moment (field-independent basis, Debye-Ang):
   XX=           -271.5656   YY=           -258.9586   ZZ=           -281.4378
   XY=             -8.2218   XZ=             31.2308   YZ=             -4.2552

 Normal termination of Gaussian 16 at Mon Jul 29 18:56:05 2019.
