 Gaussian 16, Revision A.03,
 Gaussian 16:  ES64L-G16RevA.03 25-Dec-2016

 -------------------------------------
 # td=(NStates=1) CAM-B3LYP/6-31G(d,p)
 -------------------------------------

 --
 TD
 --
 Symbolic Z-matrix:
 Charge =  0 Multiplicity = 1

                         Standard orientation:
 ---------------------------------------------------------------------
 Center     Atomic      Atomic             Coordinates (Angstroms)
 Number     Number       Type             X           Y           Z
 ---------------------------------------------------------------------
      1          8           0      -11.582212    0.169221   -1.672455
      2          8           0      -12.943703   -2.310269    1.449686
      3          8           0       10.427274   -1.425322   -1.834431
      4          8           0       14.434310   -0.912552   -0.350384
      5          6           0      -11.001974   -0.104338   -0.352516
      6          6           0      -11.586584   -1.266254   -1.175419
      7          6           0      -11.872144    0.440576    0.822539
      8          6           0      -12.949701   -1.847797   -0.871731
      9          6           0      -13.346660   -0.049372    0.815177
     10          6           0      -13.506037   -1.531542    0.523081
     11          6           0      -10.765638   -2.143804   -2.113757
     12          6           0       -9.494526    0.128271   -0.359570
     13          6           0      -11.245766    0.176372    2.175384
     14          6           0      -11.891257    1.900327    0.620523
     15          6           0       -8.597156   -0.659178    0.206862
     16          6           0       -7.139669   -0.503363    0.357028
     17          6           0       -6.371532   -1.662876    0.862885
     18          6           0       -6.428684    0.621987    0.022218
     19          6           0       -5.098624    0.889343   -0.192695
     20          6           0       12.007770    0.193509    1.229414
     21          6           0       11.486234   -0.800191   -1.179225
     22          6           0       12.782156   -1.031935    1.543805
     23          6           0       13.436002   -1.724910    0.264283
     24          6           0       12.423051   -1.954877   -0.815398
     25          6           0       11.032637    0.024174    0.083437
     26          6           0       11.101677    0.537756    2.483408
     27          6           0       12.991006    1.401926    1.122273
     28          6           0       12.192219    0.125940   -2.213835
     29          6           0       -4.622410    2.143241   -0.475842
     30          6           0        9.832733    0.515755   -0.028295
     31          6           0       -3.291628    2.469234   -0.559100
     32          6           0        8.562879    0.990870   -0.216237
     33          6           0       -2.916308    3.878686   -0.906632
     34          6           0       -2.323617    1.583873   -0.253561
     35          6           0        7.475973    0.209385    0.192565
     36          6           0        7.662898   -1.199154    0.688311
     37          6           0        6.214108    0.712256   -0.044290
     38          6           0       -0.967091    1.818167   -0.400861
     39          6           0        4.921570    0.026299    0.114103
     40          6           0       -0.036402    0.845941   -0.179127
     41          6           0        3.740014    0.822217   -0.017569
     42          6           0        1.388675    1.121656   -0.177631
     43          6           0        2.453828    0.211945   -0.050818
     44          6           0        2.267382   -1.192251    0.325253
     45          1           0      -12.772544   -2.917153   -0.963974
     46          1           0      -13.651254   -1.884208   -1.701481
     47          1           0      -13.752995    0.383889    1.740133
     48          1           0      -13.841720    0.399005    0.004271
     49          1           0      -14.580037   -1.566868    0.611396
     50          1           0      -10.777528   -3.157531   -1.554267
     51          1           0      -11.321126   -2.249363   -2.954517
     52          1           0       -9.738348   -1.937363   -2.137277
     53          1           0       -9.298550    1.144160   -0.703116
     54          1           0      -10.454768    0.561037    2.286798
     55          1           0      -11.828958    0.513018    3.057015
     56          1           0      -11.020499   -0.861112    2.390596
     57          1           0      -12.222444    2.177584   -0.371232
     58          1           0      -12.420417    2.450815    1.475767
     59          1           0      -10.850793    2.310576    0.550516
     60          1           0      -12.004970   -2.223541    1.417388
     61          1           0       -8.932682   -1.540572    0.537476
     62          1           0       -5.396982   -1.970516   -0.002461
     63          1           0       -5.890993   -1.474926    1.797709
     64          1           0       -7.116164   -2.426079    1.137337
     65          1           0       -7.014108    1.704835   -0.432835
     66          1           0       -4.332700    0.144883    0.162437
     67          1           0       13.281119   -1.049796    2.595547
     68          1           0       11.987955   -1.800725    1.842207
     69          1           0       13.961519   -2.799338    0.402151
     70          1           0       12.945232   -2.395584   -1.578598
     71          1           0       11.583528   -2.798085   -0.522081
     72          1           0       11.621828    0.624050    3.523062
     73          1           0       10.529379    1.422960    2.402338
     74          1           0       10.352988   -0.413987    2.692276
     75          1           0       13.631699    1.330364    0.156044
     76          1           0       12.486636    2.298262    0.624242
     77          1           0       13.308924    1.567136    2.114759
     78          1           0       12.473466   -0.348668   -3.164132
     79          1           0       11.518661    0.807314   -2.623910
     80          1           0       13.064607    0.552407   -1.842508
     81          1           0       -5.360405    2.708358   -0.853094
     82          1           0       10.155226   -0.581357   -2.634760
     83          1           0       15.211487   -0.681955    0.157226
     84          1           0        8.307223    1.952673   -0.779446
     85          1           0       -2.593336    4.408809    0.012105
     86          1           0       -2.342866    3.912593   -1.670912
     87          1           0       -3.806660    4.413540   -1.111727
     88          1           0       -2.653860    0.665270    0.000923
     89          1           0        6.766791   -1.808857    0.876326
     90          1           0        8.178766   -1.814072   -0.118942
     91          1           0        8.514131   -1.160629    1.434682
     92          1           0        5.947050    1.593650   -0.318975
     93          1           0       -0.427304    2.858689   -0.770577
     94          1           0        5.001733   -0.926028    0.339866
     95          1           0       -0.402647   -0.184218    0.019183
     96          1           0        3.780013    1.794896   -0.278494
     97          1           0        1.495589    2.259911   -0.462237
     98          1           0        1.375214   -1.609590    0.465242
     99          1           0        2.612521   -1.794988   -0.492031
    100          1           0        2.912593   -1.459378    1.266585
 ---------------------------------------------------------------------

 SCF Done:  E(RCAM-B3LYP) =  -1857.26160462     A.U. after   15 cycles

 Excitation energies and oscillator strengths:

 Excited State   1:      Singlet-A      2.1504 eV  576.57 nm  f=3.0558  <S**2>=0.000
     163 ->166         0.14676
     164 ->165         0.69092
 This state for optimization and/or second-order correction.
 Total Energy, E(TD-HF/TD-DFT) =  -1857.18257943
 Copying the excited state density for this state as the 1-particle RhoCI density.

 The electronic state is 1-A.
 Alpha  occ. eigenvalues --  -19.22958 -19.21349 -19.20922 -19.20709 -10.32834
 Alpha  occ. eigenvalues --  -10.32224 -10.32107 -10.31933 -10.29800 -10.28603
 Alpha  occ. eigenvalues --  -10.27598 -10.27556 -10.27397 -10.27377 -10.27303
 Alpha  occ. eigenvalues --  -10.27196 -10.27183 -10.27099 -10.27065 -10.27001
 Alpha  occ. eigenvalues --  -10.26958 -10.26568 -10.26546 -10.26290 -10.26270
 Alpha  occ. eigenvalues --  -10.25992 -10.25971 -10.25886 -10.25783 -10.25626
 Alpha  occ. eigenvalues --  -10.25430 -10.25353 -10.25231 -10.25180 -10.25174
 Alpha  occ. eigenvalues --  -10.25093 -10.24667 -10.24637 -10.23974 -10.23833
 Alpha  occ. eigenvalues --  -10.23819 -10.23495 -10.23479 -10.22368  -1.12771
 Alpha  occ. eigenvalues --   -1.10640  -1.09769  -1.08760  -0.93577  -0.92911
 Alpha  occ. eigenvalues --   -0.91750  -0.91473  -0.90756  -0.90345  -0.87780
 Alpha  occ. eigenvalues --   -0.86912  -0.85718  -0.85493  -0.84785  -0.83064
 Alpha  occ. eigenvalues --   -0.82522  -0.81713  -0.80063  -0.79338  -0.77731
 Alpha  occ. eigenvalues --   -0.77266  -0.76846  -0.76400  -0.76243  -0.76134
 Alpha  occ. eigenvalues --   -0.74795  -0.73695  -0.73091  -0.70923  -0.70447
 Alpha  occ. eigenvalues --   -0.68925  -0.67470  -0.65952  -0.64595  -0.63773
 Alpha  occ. eigenvalues --   -0.63565  -0.63499  -0.61883  -0.61065  -0.60201
 Alpha  occ. eigenvalues --   -0.59221  -0.58818  -0.57872  -0.57359  -0.56200
 Alpha  occ. eigenvalues --   -0.55590  -0.55148  -0.55093  -0.54834  -0.54628
 Alpha  occ. eigenvalues --   -0.53818  -0.53714  -0.53320  -0.52939  -0.52472
 Alpha  occ. eigenvalues --   -0.51462  -0.51181  -0.50805  -0.50455  -0.50342
 Alpha  occ. eigenvalues --   -0.49909  -0.49568  -0.49289  -0.48675  -0.48517
 Alpha  occ. eigenvalues --   -0.48254  -0.47834  -0.47574  -0.46813  -0.46768
 Alpha  occ. eigenvalues --   -0.46470  -0.46132  -0.46065  -0.45779  -0.45204
 Alpha  occ. eigenvalues --   -0.44907  -0.44662  -0.44562  -0.44169  -0.44051
 Alpha  occ. eigenvalues --   -0.44028  -0.43694  -0.42924  -0.42540  -0.42230
 Alpha  occ. eigenvalues --   -0.42193  -0.41783  -0.41322  -0.41268  -0.41251
 Alpha  occ. eigenvalues --   -0.41010  -0.40784  -0.40624  -0.40480  -0.40261
 Alpha  occ. eigenvalues --   -0.40210  -0.39582  -0.38859  -0.38760  -0.38586
 Alpha  occ. eigenvalues --   -0.37943  -0.37553  -0.37279  -0.37019  -0.36672
 Alpha  occ. eigenvalues --   -0.36421  -0.35878  -0.34754  -0.34528  -0.33852
 Alpha  occ. eigenvalues --   -0.32979  -0.31835  -0.31494  -0.31142  -0.30576
 Alpha  occ. eigenvalues --   -0.30142  -0.27871  -0.23609  -0.19428
 Alpha virt. eigenvalues --   -0.05851  -0.00913   0.03710   0.06312   0.07060
 Alpha virt. eigenvalues --    0.07552   0.10017   0.10431   0.10949   0.11430
 Alpha virt. eigenvalues --    0.12034   0.12511   0.12871   0.13069   0.13640

 Mulliken charges:
               1
     1  O   -0.526052
     2  O   -0.514146
     3  O   -0.554110
     4  O   -0.554634
     5  C    0.181578
     6  C    0.200110
     7  C    0.005946
     8  C   -0.233647
     9  C   -0.179276
    10  C    0.157046
    11  C   -0.315738
    12  C   -0.089209
    13  C   -0.276606
    14  C   -0.310210
    15  C   -0.048089
    16  C    0.066283
    17  C   -0.358811
    18  C   -0.099079
    19  C   -0.055028
    20  C    0.026439
    21  C    0.273404
    22  C   -0.201234
    23  C    0.158653
    24  C   -0.170280
    25  C   -0.101919
    26  C   -0.311702
    27  C   -0.298591
    28  C   -0.342477
    29  C   -0.105939
    30  C    0.170616
    31  C    0.073195
    32  C   -0.255006
    33  C   -0.357075
    34  C   -0.083288
    35  C    0.136470
    36  C   -0.384729
    37  C   -0.094073
    38  C   -0.087529
    39  C   -0.071984
    40  C   -0.074604
    41  C   -0.116640
    42  C   -0.148086
    43  C    0.118896
    44  C   -0.369636
    45  H    0.109229
    46  H    0.117401
    47  H    0.094359
    48  H    0.106898
    49  H    0.095174
    50  H    0.081456
    51  H    0.134499
    52  H    0.129960
    53  H    0.104164
    54  H    0.110859
    55  H    0.098534
    56  H    0.068917
    57  H    0.129837
    58  H    0.087489
    59  H    0.085080
    60  H    0.302723
    61  H    0.059173
    62  H    0.081567
    63  H    0.136019
    64  H    0.102978
    65  H    0.035471
    66  H    0.075640
    67  H    0.094075
    68  H    0.094183
    69  H    0.065482
    70  H    0.120232
    71  H    0.092424
    72  H    0.080368
    73  H    0.127511
    74  H    0.080373
    75  H    0.110229
    76  H    0.091557
    77  H    0.111998
    78  H    0.108201
    79  H    0.087588
    80  H    0.135748
    81  H    0.078359
    82  H    0.302351
    83  H    0.309685
    84  H    0.112010
    85  H    0.124412
    86  H    0.130329
    87  H    0.103779
    88  H    0.069529
    89  H    0.109016
    90  H    0.138218
    91  H    0.116959
    92  H    0.046770
    93  H    0.078367
    94  H    0.063205
    95  H    0.079739
    96  H    0.085067
    97  H    0.069039
    98  H    0.117782
    99  H    0.126982
   100  H    0.111789
 Sum of Mulliken charges =  -0.00000

 Dipole moment (field-independent basis, Debye):
    X=              5.5610    Y=              0.0524    Z=              0.7685  Tot=              5.6141
 Quadrupole moment (field-independent basis, Debye-Ang):
   XX=           -255.4963   YY=           -262.2635   ZZ=           -271.4865
   XY=              7.1408   XZ=              6.0368   YZ=             -2.9571

 Normal termination of Gaussian 16 at Tue Jul 30 12:23:54 2019.
