 Gaussian 09, Revision D.01,
 Gaussian 09:  ES64L-G09RevD.01 24-Apr-2013

 --------------------------
 # td=(NStates=1) B3LYP/SVP
 --------------------------

 --
 TD
 --
 Symbolic Z-matrix:
 Charge =  0 Multiplicity = 1

                         Standard orientation:
 ---------------------------------------------------------------------
 Center     Atomic      Atomic             Coordinates (Angstroms)
 Number     Number       Type             X           Y           Z
 ---------------------------------------------------------------------
      1          8           0        5.090360   -0.536178   -3.304000
      2          8           0       -2.867009   -2.942221    3.272192
      3          8           0       -3.171171   -0.771693    3.421226
      4          8           0       -1.881540    7.273722    1.132211
      5          8           0        0.017193    6.773899   -0.382720
      6          8           0       -1.860670   -3.989405   -0.099008
      7          7           0        2.484488    1.072421    0.539125
      8          7           0        4.227416   -0.866609   -1.145238
      9          7           0       -1.894593    0.675340   -0.370456
     10          7           0       -2.731069   -1.863419   -0.448503
     11          6           0        4.897192   -1.157620    0.172679
     12          6           0        4.529794   -0.058304    1.252366
     13          6           0        3.107670    0.179842    1.326073
     14          6           0        2.237551   -0.463535    2.153222
     15          6           0        0.820510    0.044235    1.796752
     16          6           0        1.082713    1.012527    0.778146
     17          6           0        6.382051   -1.311623   -0.091056
     18          6           0       -0.521525   -0.299728    2.650676
     19          6           0        6.566419   -1.026106   -1.385981
     20          6           0        0.239052    1.877119    0.106571
     21          6           0       -1.126189    1.798553   -0.328689
     22          6           0        5.196815   -0.739866   -2.091635
     23          6           0       -1.924067    2.893180   -0.873355
     24          6           0        2.435942   -1.425172    3.288496
     25          6           0        7.294079   -1.800612    0.912873
     26          6           0       -3.125565    2.300351   -1.220168
     27          6           0       -1.015820   -1.641030    2.658171
     28          6           0       -3.134503    0.909390   -0.948156
     29          6           0       -1.521281    4.320043   -1.113063
     30          6           0        7.776819   -0.870387   -2.305275
     31          6           0       -1.919222    5.105233    0.200451
     32          6           0       -4.320245    3.013844   -1.789872
     33          6           0       -4.127735   -0.038172   -1.196785
     34          6           0       -2.440729   -1.680609    3.196028
     35          6           0       -3.849724   -1.404598   -0.915111
     36          6           0        9.092932   -0.916204   -1.897228
     37          6           0       -1.155137    6.476725    0.189996
     38          6           0       -4.740523   -2.599527   -1.430766
     39          6           0       -4.057557   -3.731893   -1.030634
     40          6           0       -2.813087   -3.226730   -0.374296
     41          6           0       -6.050253   -2.353047   -1.983546
     42          6           0       -4.450137   -5.139365   -1.336289
     43          6           0       -6.853358   -3.324335   -2.522664
     44          1           0        4.637073   -2.227026    0.663312
     45          1           0        5.026861    0.825677    1.039808
     46          1           0        4.973139   -0.210189    2.248680
     47          1           0        2.726290    1.612950   -0.251596
     48          1           0        3.277099   -1.116869   -1.382986
     49          1           0       -0.453025    0.187358    3.689289
     50          1           0       -1.262351    0.293727    2.053468
     51          1           0        0.887467    2.717791   -0.308247
     52          1           0        3.329317   -1.473929    3.786223
     53          1           0        1.693529   -1.360923    4.160540
     54          1           0        2.173342   -2.439001    2.994972
     55          1           0        6.806493   -2.454153    1.549246
     56          1           0        7.746245   -0.899082    1.381863
     57          1           0        8.115050   -2.197859    0.550504
     58          1           0       -1.218305   -2.125145    1.635325
     59          1           0       -0.251380   -2.224625    3.295484
     60          1           0       -1.749323   -0.344910   -0.432552
     61          1           0       -1.702673    4.844258   -2.083273
     62          1           0       -0.406867    4.420113   -1.248876
     63          1           0        7.485282   -0.899494   -3.460241
     64          1           0       -1.592269    4.501895    1.139804
     65          1           0       -3.075133    5.167527    0.160426
     66          1           0       -4.255477    4.045436   -2.239368
     67          1           0       -5.110182    3.002319   -0.834570
     68          1           0       -4.945493    2.292945   -2.659549
     69          1           0       -4.998865    0.208289   -1.824035
     70          1           0        9.552883   -0.975081   -1.032200
     71          1           0        9.751283   -0.936388   -2.707677
     72          1           0       -3.731215   -2.853244    3.462759
     73          1           0       -6.349806   -1.204316   -2.113097
     74          1           0       -4.550187   -5.499914   -2.436109
     75          1           0       -3.655675   -5.945985   -0.776126
     76          1           0       -5.446646   -5.301378   -0.850901
     77          1           0       -1.416852    8.090609    1.080679
     78          1           0       -7.847115   -2.985777   -3.057724
     79          1           0       -6.460805   -4.460193   -2.624531
 ---------------------------------------------------------------------

 SCF Done:  E(RB3LYP) =  -1947.84247217     A.U. after   19 cycles

 Excitation energies and oscillator strengths:

 Excited State   1:      Singlet-A      2.1163 eV  585.86 nm  f=0.5664  <S**2>=0.000
     154 ->156        -0.12143
     155 ->156         0.69864
     155 <-156        -0.13555
 This state for optimization and/or second-order correction.
 Total Energy, E(TD-HF/TD-KS) =  -1947.76470088
 Copying the excited state density for this state as the 1-particle RhoCI density.

 The electronic state is 1-A.
 Alpha  occ. eigenvalues --  -19.20180 -19.16221 -19.15763 -19.11661 -19.10175
 Alpha  occ. eigenvalues --  -19.09750 -14.38576 -14.36633 -14.36184 -14.29622
 Alpha  occ. eigenvalues --  -10.35547 -10.30523 -10.28741 -10.26815 -10.26479
 Alpha  occ. eigenvalues --  -10.25168 -10.24097 -10.23853 -10.23653 -10.23636
 Alpha  occ. eigenvalues --  -10.23518 -10.22957 -10.22841 -10.21676 -10.21666
 Alpha  occ. eigenvalues --  -10.21437 -10.21413 -10.21362 -10.21310 -10.21299
 Alpha  occ. eigenvalues --  -10.21294 -10.20668 -10.20373 -10.20228 -10.20131
 Alpha  occ. eigenvalues --  -10.20114 -10.19994 -10.19682 -10.19582 -10.19578
 Alpha  occ. eigenvalues --  -10.19414 -10.19397 -10.18387  -1.10999  -1.07981
 Alpha  occ. eigenvalues --   -1.01695  -1.00893  -1.00037  -0.99192  -0.98542
 Alpha  occ. eigenvalues --   -0.98081  -0.93779  -0.92808  -0.83297  -0.82546
 Alpha  occ. eigenvalues --   -0.82156  -0.80961  -0.80184  -0.79791  -0.77655
 Alpha  occ. eigenvalues --   -0.77313  -0.76837  -0.75840  -0.74218  -0.72768
 Alpha  occ. eigenvalues --   -0.72048  -0.71337  -0.69182  -0.68238  -0.67658
 Alpha  occ. eigenvalues --   -0.67018  -0.66472  -0.63985  -0.61301  -0.61150
 Alpha  occ. eigenvalues --   -0.59635  -0.58936  -0.58707  -0.58640  -0.58191
 Alpha  occ. eigenvalues --   -0.56960  -0.55953  -0.54652  -0.54031  -0.52902
 Alpha  occ. eigenvalues --   -0.51989  -0.51511  -0.50907  -0.50416  -0.49871
 Alpha  occ. eigenvalues --   -0.49078  -0.48904  -0.48467  -0.47852  -0.47716
 Alpha  occ. eigenvalues --   -0.47500  -0.46772  -0.46533  -0.46007  -0.45759
 Alpha  occ. eigenvalues --   -0.45517  -0.44871  -0.44838  -0.44304  -0.44030
 Alpha  occ. eigenvalues --   -0.43179  -0.42952  -0.42804  -0.42708  -0.42428
 Alpha  occ. eigenvalues --   -0.42253  -0.42084  -0.41920  -0.41185  -0.40963
 Alpha  occ. eigenvalues --   -0.40700  -0.40188  -0.40136  -0.39669  -0.39536
 Alpha  occ. eigenvalues --   -0.39400  -0.39306  -0.39173  -0.39007  -0.38365
 Alpha  occ. eigenvalues --   -0.38148  -0.37921  -0.37467  -0.37253  -0.36792
 Alpha  occ. eigenvalues --   -0.36250  -0.35871  -0.34703  -0.34130  -0.33981
 Alpha  occ. eigenvalues --   -0.33547  -0.33257  -0.32898  -0.31849  -0.31393
 Alpha  occ. eigenvalues --   -0.31165  -0.30856  -0.29787  -0.29365  -0.27416
 Alpha  occ. eigenvalues --   -0.27320  -0.27171  -0.25576  -0.25428  -0.25153
 Alpha  occ. eigenvalues --   -0.24340  -0.24181  -0.23845  -0.22299  -0.18917
 Alpha virt. eigenvalues --   -0.11079  -0.06882  -0.05467  -0.05291  -0.01004
 Alpha virt. eigenvalues --    0.00848   0.01461   0.02191   0.02564   0.02680
 Alpha virt. eigenvalues --    0.03662   0.04044   0.04604   0.05203   0.05398

 Mulliken charges:
               1
     1  O   -0.240960
     2  O   -0.107362
     3  O   -0.210928
     4  O   -0.189087
     5  O   -0.307416
     6  O   -0.243651
     7  N   -0.042706
     8  N   -0.182068
     9  N   -0.063512
    10  N   -0.237989
    11  C    0.016523
    12  C    0.272198
    13  C   -0.078700
    14  C   -0.132557
    15  C   -0.082428
    16  C    0.036319
    17  C   -0.200048
    18  C    0.072363
    19  C   -0.084780
    20  C   -0.109930
    21  C    0.101976
    22  C    0.153673
    23  C   -0.063364
    24  C    0.115089
    25  C    0.250560
    26  C   -0.086290
    27  C   -0.038285
    28  C    0.093798
    29  C    0.046436
    30  C   -0.032430
    31  C   -0.047453
    32  C   -0.044816
    33  C   -0.107442
    34  C    0.094877
    35  C    0.060507
    36  C    0.036233
    37  C    0.231991
    38  C    0.012598
    39  C   -0.139515
    40  C    0.151976
    41  C   -0.045861
    42  C   -0.030290
    43  C   -0.094264
    44  H    0.041978
    45  H   -0.052902
    46  H   -0.002505
    47  H    0.108217
    48  H    0.144615
    49  H    0.037110
    50  H    0.009035
    51  H    0.006723
    52  H   -0.022654
    53  H    0.015651
    54  H    0.021973
    55  H    0.001548
    56  H    0.024384
    57  H   -0.035310
    58  H    0.091792
    59  H    0.030798
    60  H    0.146656
    61  H    0.030322
    62  H    0.015730
    63  H    0.062885
    64  H    0.087035
    65  H    0.066017
    66  H    0.043119
    67  H    0.054933
    68  H    0.044689
    69  H   -0.018005
    70  H   -0.035276
    71  H    0.010392
    72  H    0.119939
    73  H    0.031070
    74  H    0.061512
    75  H    0.052593
    76  H    0.036895
    77  H    0.165219
    78  H    0.045414
    79  H    0.055423
 Sum of Mulliken charges =   0.00000

 Dipole moment (field-independent basis, Debye):
    X=              1.1485    Y=              3.0201    Z=              2.9010  Tot=              4.3423
 Quadrupole moment (field-independent basis, Debye-Ang):
   XX=           -219.7794   YY=           -247.0793   ZZ=           -261.9906
   XY=            -14.1601   XZ=             37.4974   YZ=             -2.3473

 Normal termination of Gaussian 09 at Mon Jul  8 09:02:29 2019.
