 Gaussian 09, Revision D.01,
 Gaussian 09:  ES64L-G09RevD.01 24-Apr-2013

 --------------------------
 # td=(NStates=1) B3LYP/SVP
 --------------------------

 --
 TD
 --
 Symbolic Z-matrix:
 Charge =  0 Multiplicity = 1

                         Standard orientation:
 ---------------------------------------------------------------------
 Center     Atomic      Atomic             Coordinates (Angstroms)
 Number     Number       Type             X           Y           Z
 ---------------------------------------------------------------------
      1          8           0        5.421263   -0.395870   -3.395993
      2          8           0       -2.808615   -3.176742    3.349660
      3          8           0       -3.328129   -0.958237    3.262556
      4          8           0       -1.479313    7.140164    1.638406
      5          8           0       -0.615888    7.153139   -0.506203
      6          8           0       -1.796554   -4.041225   -0.182348
      7          7           0        2.357802    1.000054    0.617834
      8          7           0        4.442036   -0.631807   -1.369855
      9          7           0       -1.889862    0.708320   -0.396434
     10          7           0       -2.619205   -1.931364   -0.542415
     11          6           0        4.842030   -1.159629   -0.087636
     12          6           0        4.439148   -0.293078    1.127468
     13          6           0        2.967652    0.060961    1.317248
     14          6           0        1.949668   -0.673582    2.046958
     15          6           0        0.699861   -0.019426    1.705266
     16          6           0        0.976022    0.978729    0.798481
     17          6           0        6.287836   -1.252731   -0.109050
     18          6           0       -0.552978   -0.318025    2.507491
     19          6           0        6.683569   -0.884084   -1.353531
     20          6           0        0.130011    2.011781    0.225154
     21          6           0       -1.126189    1.841855   -0.295124
     22          6           0        5.509447   -0.539915   -2.167289
     23          6           0       -1.976615    2.894316   -0.816042
     24          6           0        2.244888   -1.828480    2.979968
     25          6           0        7.107715   -1.860774    1.096049
     26          6           0       -3.190298    2.445966   -1.255948
     27          6           0       -1.028122   -1.741401    2.582195
     28          6           0       -3.082276    0.936101   -0.963534
     29          6           0       -1.495050    4.434756   -0.957969
     30          6           0        7.967563   -0.755535   -1.975911
     31          6           0       -1.652424    5.112303    0.436588
     32          6           0       -4.352505    3.088644   -1.849091
     33          6           0       -3.979605    0.007097   -1.246653
     34          6           0       -2.592675   -1.906337    3.069696
     35          6           0       -3.795218   -1.402766   -1.108026
     36          6           0        9.208052   -0.923291   -1.486922
     37          6           0       -1.184953    6.586639    0.405433
     38          6           0       -4.658394   -2.478196   -1.578974
     39          6           0       -4.092598   -3.647198   -1.159021
     40          6           0       -2.701857   -3.299712   -0.611262
     41          6           0       -5.965612   -2.318331   -2.096001
     42          6           0       -4.425164   -5.054912   -1.200091
     43          6           0       -6.924471   -3.329583   -2.426618
     44          1           0        4.356365   -2.151441    0.017186
     45          1           0        4.902618    0.718628    1.071462
     46          1           0        4.718600   -0.833528    2.083022
     47          1           0        2.595090    1.761078   -0.146864
     48          1           0        3.429279   -0.639115   -1.631753
     49          1           0       -0.518604   -0.010012    3.536174
     50          1           0       -1.387557    0.277966    1.807347
     51          1           0        0.645294    2.880889    0.182366
     52          1           0        3.287777   -1.665791    3.230289
     53          1           0        1.583035   -1.701988    3.933766
     54          1           0        2.198950   -2.847540    2.449764
     55          1           0        6.524107   -2.549211    1.683569
     56          1           0        7.703900   -1.062904    1.606111
     57          1           0        7.929327   -2.418338    0.562533
     58          1           0       -1.189388   -2.217733    1.542464
     59          1           0       -0.514661   -2.358282    3.153259
     60          1           0       -1.536827   -0.138253   -0.116844
     61          1           0       -2.147690    5.026761   -1.715759
     62          1           0       -0.523191    4.562211   -1.484062
     63          1           0        7.964801   -0.383041   -3.013027
     64          1           0       -1.053655    4.419000    1.385224
     65          1           0       -2.802647    5.211397    0.616701
     66          1           0       -4.081276    4.177800   -2.062154
     67          1           0       -5.224027    2.829506   -1.188448
     68          1           0       -4.534482    2.730985   -2.956464
     69          1           0       -5.028129    0.474612   -1.750728
     70          1           0        9.230039   -0.895220   -0.257890
     71          1           0       10.206778   -0.935046   -1.868747
     72          1           0       -3.814765   -3.175116    3.863170
     73          1           0       -6.229369   -1.327264   -2.444661
     74          1           0       -4.481087   -5.645434   -2.151765
     75          1           0       -3.627574   -5.650644   -0.540495
     76          1           0       -5.431589   -5.091743   -0.928658
     77          1           0       -0.980437    7.943645    1.727873
     78          1           0       -7.900042   -2.981945   -3.050094
     79          1           0       -6.865221   -4.394119   -1.956193
 ---------------------------------------------------------------------

 SCF Done:  E(RB3LYP) =  -1947.86134618     A.U. after   17 cycles

 Excitation energies and oscillator strengths:

 Excited State   1:      Singlet-A      1.9748 eV  627.82 nm  f=0.2781  <S**2>=0.000
     154 ->156         0.31643
     155 ->156         0.62609
 This state for optimization and/or second-order correction.
 Total Energy, E(TD-HF/TD-KS) =  -1947.78877189
 Copying the excited state density for this state as the 1-particle RhoCI density.

 The electronic state is 1-A.
 Alpha  occ. eigenvalues --  -19.18842 -19.18729 -19.14596 -19.11206 -19.10342
 Alpha  occ. eigenvalues --  -19.08630 -14.39435 -14.37234 -14.35682 -14.28811
 Alpha  occ. eigenvalues --  -10.33562 -10.30545 -10.27685 -10.25999 -10.25146
 Alpha  occ. eigenvalues --  -10.24703 -10.24671 -10.24418 -10.24246 -10.23317
 Alpha  occ. eigenvalues --  -10.22548 -10.22395 -10.22359 -10.22304 -10.22245
 Alpha  occ. eigenvalues --  -10.21996 -10.21945 -10.21823 -10.21786 -10.21529
 Alpha  occ. eigenvalues --  -10.20746 -10.20576 -10.20500 -10.20500 -10.20268
 Alpha  occ. eigenvalues --  -10.20073 -10.19912 -10.19854 -10.19458 -10.18925
 Alpha  occ. eigenvalues --  -10.18919 -10.18880 -10.17624  -1.09652  -1.07889
 Alpha  occ. eigenvalues --   -1.01899  -1.01803  -1.00343  -0.99827  -0.99180
 Alpha  occ. eigenvalues --   -0.98848  -0.94477  -0.90871  -0.82750  -0.82610
 Alpha  occ. eigenvalues --   -0.82520  -0.80409  -0.80236  -0.79896  -0.77723
 Alpha  occ. eigenvalues --   -0.77417  -0.75823  -0.74913  -0.74613  -0.72930
 Alpha  occ. eigenvalues --   -0.71921  -0.71194  -0.69985  -0.69298  -0.68158
 Alpha  occ. eigenvalues --   -0.66587  -0.65138  -0.64172  -0.61883  -0.60662
 Alpha  occ. eigenvalues --   -0.59994  -0.58864  -0.58538  -0.58136  -0.57083
 Alpha  occ. eigenvalues --   -0.56597  -0.55588  -0.54917  -0.53980  -0.53528
 Alpha  occ. eigenvalues --   -0.51615  -0.51408  -0.51173  -0.50280  -0.49878
 Alpha  occ. eigenvalues --   -0.49124  -0.48773  -0.48529  -0.48026  -0.47535
 Alpha  occ. eigenvalues --   -0.47352  -0.46942  -0.46379  -0.45989  -0.45715
 Alpha  occ. eigenvalues --   -0.44824  -0.44677  -0.44613  -0.44275  -0.43863
 Alpha  occ. eigenvalues --   -0.43399  -0.43194  -0.42754  -0.42576  -0.42264
 Alpha  occ. eigenvalues --   -0.42187  -0.41808  -0.41377  -0.41061  -0.40784
 Alpha  occ. eigenvalues --   -0.40632  -0.40565  -0.40181  -0.39935  -0.39636
 Alpha  occ. eigenvalues --   -0.39291  -0.39287  -0.39012  -0.38688  -0.38529
 Alpha  occ. eigenvalues --   -0.38245  -0.38039  -0.37640  -0.36977  -0.36611
 Alpha  occ. eigenvalues --   -0.36568  -0.35245  -0.34918  -0.34564  -0.34497
 Alpha  occ. eigenvalues --   -0.34392  -0.33540  -0.33519  -0.31743  -0.31336
 Alpha  occ. eigenvalues --   -0.31161  -0.30837  -0.29568  -0.28060  -0.26838
 Alpha  occ. eigenvalues --   -0.26651  -0.25990  -0.25844  -0.24954  -0.24643
 Alpha  occ. eigenvalues --   -0.23937  -0.23887  -0.23456  -0.21431  -0.19402
 Alpha virt. eigenvalues --   -0.11341  -0.06673  -0.06118  -0.02163  -0.02001
 Alpha virt. eigenvalues --    0.00793   0.01347   0.01501   0.01984   0.02570
 Alpha virt. eigenvalues --    0.03165   0.03324   0.04034   0.04508   0.04876

 Mulliken charges:
               1
     1  O   -0.255934
     2  O   -0.218069
     3  O   -0.241082
     4  O   -0.195831
     5  O   -0.213680
     6  O   -0.228924
     7  N   -0.073157
     8  N   -0.155537
     9  N    0.017203
    10  N   -0.288173
    11  C    0.099097
    12  C    0.162161
    13  C   -0.106771
    14  C   -0.173835
    15  C   -0.046317
    16  C   -0.017496
    17  C   -0.183846
    18  C    0.052750
    19  C   -0.020398
    20  C   -0.081637
    21  C    0.138877
    22  C    0.128482
    23  C   -0.091479
    24  C    0.089130
    25  C    0.098227
    26  C   -0.100196
    27  C   -0.008727
    28  C    0.092632
    29  C    0.045313
    30  C   -0.006150
    31  C   -0.100761
    32  C    0.056723
    33  C   -0.159403
    34  C    0.127427
    35  C    0.103000
    36  C   -0.068615
    37  C    0.164937
    38  C    0.076660
    39  C   -0.180957
    40  C    0.156369
    41  C   -0.043242
    42  C    0.057219
    43  C   -0.099461
    44  H    0.021300
    45  H   -0.006174
    46  H    0.008445
    47  H    0.158462
    48  H    0.143502
    49  H    0.011340
    50  H    0.027374
    51  H   -0.052092
    52  H   -0.012378
    53  H    0.042546
    54  H    0.052848
    55  H    0.029881
    56  H    0.050028
    57  H    0.039388
    58  H    0.079540
    59  H   -0.025647
    60  H    0.105431
    61  H    0.021718
    62  H    0.033076
    63  H    0.016400
    64  H    0.097430
    65  H    0.065377
    66  H    0.025699
    67  H    0.061310
    68  H    0.048105
    69  H    0.023884
    70  H    0.009580
    71  H    0.028762
    72  H    0.230990
    73  H   -0.014330
    74  H    0.036500
    75  H    0.060428
    76  H    0.005635
    77  H    0.170152
    78  H    0.054214
    79  H    0.044752
 Sum of Mulliken charges =   0.00000

 Dipole moment (field-independent basis, Debye):
    X=             -0.2425    Y=              3.0473    Z=              3.8571  Tot=              4.9216
 Quadrupole moment (field-independent basis, Debye-Ang):
   XX=           -222.9168   YY=           -246.9158   ZZ=           -264.8096
   XY=             -2.7529   XZ=             34.7323   YZ=             -2.0172

 Normal termination of Gaussian 09 at Tue Jul  9 09:00:37 2019.
