 Gaussian 09, Revision D.01,
 Gaussian 09:  ES64L-G09RevD.01 24-Apr-2013

 --------------------------
 # td=(NStates=1) B3LYP/SVP
 --------------------------

 --
 TD
 --
 Symbolic Z-matrix:
 Charge =  0 Multiplicity = 1

                         Standard orientation:
 ---------------------------------------------------------------------
 Center     Atomic      Atomic             Coordinates (Angstroms)
 Number     Number       Type             X           Y           Z
 ---------------------------------------------------------------------
      1          8           0        5.359404   -0.124465   -3.274997
      2          8           0       -2.936058   -3.047975    3.036646
      3          8           0       -3.176348   -0.818909    3.180555
      4          8           0       -1.365674    7.135580    1.666061
      5          8           0       -0.828061    7.083635   -0.622475
      6          8           0       -1.844105   -4.027977   -0.035551
      7          7           0        2.365994    0.922914    0.490965
      8          7           0        4.541688   -0.708630   -1.263962
      9          7           0       -1.910009    0.686073   -0.369408
     10          7           0       -2.646348   -1.859764   -0.655168
     11          6           0        4.840830   -1.215017    0.042137
     12          6           0        4.427745   -0.236394    1.164397
     13          6           0        3.008123   -0.043913    1.354601
     14          6           0        2.022299   -0.690784    1.975382
     15          6           0        0.729091   -0.108879    1.677256
     16          6           0        1.011293    0.876375    0.760504
     17          6           0        6.337747   -1.355455   -0.109618
     18          6           0       -0.514783   -0.296356    2.421771
     19          6           0        6.714755   -0.971897   -1.450909
     20          6           0        0.194976    1.835687    0.152918
     21          6           0       -1.120720    1.848784   -0.288414
     22          6           0        5.523483   -0.578038   -2.141124
     23          6           0       -2.000716    2.977955   -0.789356
     24          6           0        2.379365   -1.732420    3.129267
     25          6           0        7.197223   -1.835378    0.933073
     26          6           0       -3.213028    2.433032   -1.184672
     27          6           0       -1.167568   -1.742105    2.470687
     28          6           0       -3.044528    0.948211   -0.918164
     29          6           0       -1.532058    4.325228   -0.907950
     30          6           0        8.007782   -0.801117   -2.047346
     31          6           0       -1.698898    5.077049    0.431414
     32          6           0       -4.465945    3.093444   -1.827334
     33          6           0       -4.054830   -0.064392   -1.290550
     34          6           0       -2.567856   -1.743206    2.848345
     35          6           0       -3.803913   -1.448140   -1.180644
     36          6           0        9.272754   -0.751656   -1.490867
     37          6           0       -1.224825    6.468280    0.438170
     38          6           0       -4.726113   -2.578444   -1.415623
     39          6           0       -4.044527   -3.671673   -0.999047
     40          6           0       -2.702979   -3.319360   -0.507371
     41          6           0       -6.061796   -2.310233   -1.989307
     42          6           0       -4.516699   -5.037462   -0.996952
     43          6           0       -6.857035   -3.267613   -2.555587
     44          1           0        4.374116   -2.180244    0.214771
     45          1           0        4.943356    0.791280    0.837180
     46          1           0        4.797316   -0.397246    2.194218
     47          1           0        2.795262    1.728608   -0.130049
     48          1           0        3.583758   -0.547119   -1.578069
     49          1           0       -0.588231    0.066524    3.490880
     50          1           0       -1.429623    0.103282    2.124417
     51          1           0        0.669096    2.707614   -0.014128
     52          1           0        3.322754   -1.347323    3.638420
     53          1           0        1.798634   -1.431863    4.039970
     54          1           0        2.267894   -2.787571    2.838451
     55          1           0        6.856951   -2.539843    1.613164
     56          1           0        7.379047   -0.885078    1.707084
     57          1           0        8.162484   -2.246562    0.635951
     58          1           0       -1.093665   -2.132212    1.452481
     59          1           0       -0.705571   -2.333817    3.075689
     60          1           0       -1.867536   -0.246134   -0.246787
     61          1           0       -1.830802    4.944305   -1.638538
     62          1           0       -0.585306    4.706343   -1.121079
     63          1           0        8.110185   -0.644002   -3.146823
     64          1           0       -1.232735    4.389745    1.129231
     65          1           0       -2.741338    4.823491    0.764068
     66          1           0       -4.301004    4.237386   -1.473801
     67          1           0       -5.441993    2.411882   -1.432479
     68          1           0       -4.392254    2.801725   -2.942864
     69          1           0       -4.900974    0.236186   -1.828262
     70          1           0        9.377855   -0.976890   -0.460387
     71          1           0       10.178715   -0.677644   -1.974391
     72          1           0       -3.829822   -3.089845    3.626190
     73          1           0       -6.334718   -1.213616   -1.922152
     74          1           0       -4.081865   -5.707772   -1.963486
     75          1           0       -4.151124   -5.580806    0.057746
     76          1           0       -5.763706   -5.112809   -0.965422
     77          1           0       -1.171665    8.046095    1.533743
     78          1           0       -7.856320   -3.024226   -2.666329
     79          1           0       -6.541604   -4.279789   -2.742029
 ---------------------------------------------------------------------

 SCF Done:  E(RB3LYP) =  -1947.80925822     A.U. after   16 cycles

 Excitation energies and oscillator strengths:

 Excited State   1:      Singlet-A      2.0894 eV  593.40 nm  f=0.3691  <S**2>=0.000
     154 ->156         0.13791
     155 ->156         0.68582
 This state for optimization and/or second-order correction.
 Total Energy, E(TD-HF/TD-KS) =  -1947.73247423
 Copying the excited state density for this state as the 1-particle RhoCI density.

 The electronic state is 1-A.
 Alpha  occ. eigenvalues --  -19.19576 -19.16540 -19.14753 -19.12030 -19.10967
 Alpha  occ. eigenvalues --  -19.08277 -14.38372 -14.36885 -14.34711 -14.28089
 Alpha  occ. eigenvalues --  -10.34884 -10.29862 -10.26954 -10.26577 -10.25827
 Alpha  occ. eigenvalues --  -10.25471 -10.25241 -10.24239 -10.22975 -10.22852
 Alpha  occ. eigenvalues --  -10.22818 -10.22718 -10.22645 -10.22521 -10.22290
 Alpha  occ. eigenvalues --  -10.22135 -10.21525 -10.21373 -10.21295 -10.21120
 Alpha  occ. eigenvalues --  -10.20813 -10.20590 -10.20279 -10.19687 -10.19637
 Alpha  occ. eigenvalues --  -10.19588 -10.19437 -10.19215 -10.19088 -10.18939
 Alpha  occ. eigenvalues --  -10.18697 -10.18374 -10.16455  -1.08984  -1.08738
 Alpha  occ. eigenvalues --   -1.01932  -1.01808  -1.00866  -0.99942  -0.99551
 Alpha  occ. eigenvalues --   -0.97455  -0.94310  -0.91217  -0.85038  -0.82564
 Alpha  occ. eigenvalues --   -0.81920  -0.81045  -0.80147  -0.79606  -0.79276
 Alpha  occ. eigenvalues --   -0.77563  -0.76683  -0.76073  -0.74299  -0.72472
 Alpha  occ. eigenvalues --   -0.72012  -0.71655  -0.70276  -0.69332  -0.68528
 Alpha  occ. eigenvalues --   -0.67477  -0.66519  -0.63553  -0.62267  -0.62019
 Alpha  occ. eigenvalues --   -0.61172  -0.60240  -0.58501  -0.57856  -0.57672
 Alpha  occ. eigenvalues --   -0.56662  -0.55887  -0.55530  -0.54689  -0.53766
 Alpha  occ. eigenvalues --   -0.53167  -0.52184  -0.51487  -0.51093  -0.50013
 Alpha  occ. eigenvalues --   -0.49701  -0.49020  -0.48696  -0.48391  -0.48186
 Alpha  occ. eigenvalues --   -0.48131  -0.47449  -0.47014  -0.46387  -0.46145
 Alpha  occ. eigenvalues --   -0.45841  -0.45371  -0.44677  -0.44088  -0.44004
 Alpha  occ. eigenvalues --   -0.43559  -0.43322  -0.42937  -0.42891  -0.42715
 Alpha  occ. eigenvalues --   -0.42117  -0.42084  -0.41816  -0.41640  -0.41404
 Alpha  occ. eigenvalues --   -0.41107  -0.40732  -0.40323  -0.40083  -0.39828
 Alpha  occ. eigenvalues --   -0.39469  -0.39278  -0.38905  -0.38659  -0.38306
 Alpha  occ. eigenvalues --   -0.37864  -0.37754  -0.37557  -0.37297  -0.36573
 Alpha  occ. eigenvalues --   -0.36244  -0.35495  -0.34948  -0.34287  -0.34098
 Alpha  occ. eigenvalues --   -0.34014  -0.33471  -0.32981  -0.32767  -0.31152
 Alpha  occ. eigenvalues --   -0.30810  -0.30718  -0.29779  -0.28805  -0.27640
 Alpha  occ. eigenvalues --   -0.27467  -0.26838  -0.25981  -0.25137  -0.24548
 Alpha  occ. eigenvalues --   -0.24017  -0.23576  -0.22926  -0.22170  -0.19327
 Alpha virt. eigenvalues --   -0.10749  -0.07295  -0.06789  -0.04357  -0.00886
 Alpha virt. eigenvalues --    0.00414   0.01493   0.01928   0.02282   0.02925
 Alpha virt. eigenvalues --    0.03144   0.03731   0.04444   0.04620   0.05281

 Mulliken charges:
               1
     1  O   -0.246881
     2  O   -0.263976
     3  O   -0.176624
     4  O   -0.191402
     5  O   -0.289334
     6  O   -0.178946
     7  N   -0.188650
     8  N   -0.147513
     9  N    0.102160
    10  N   -0.362774
    11  C    0.178180
    12  C    0.128658
    13  C   -0.029273
    14  C   -0.150539
    15  C    0.000917
    16  C    0.140694
    17  C   -0.168297
    18  C    0.053566
    19  C    0.018316
    20  C   -0.050364
    21  C    0.094474
    22  C    0.101572
    23  C   -0.003289
    24  C    0.059855
    25  C    0.075235
    26  C   -0.139246
    27  C    0.041052
    28  C   -0.010556
    29  C    0.110466
    30  C   -0.068801
    31  C   -0.037420
    32  C    0.006430
    33  C   -0.068413
    34  C    0.121400
    35  C    0.065503
    36  C    0.000224
    37  C    0.236828
    38  C    0.079787
    39  C   -0.169095
    40  C    0.196868
    41  C   -0.054159
    42  C   -0.091289
    43  C    0.024213
    44  H    0.020793
    45  H    0.011007
    46  H    0.007640
    47  H    0.161718
    48  H    0.118175
    49  H    0.004117
    50  H   -0.028147
    51  H   -0.072388
    52  H    0.008283
    53  H    0.015086
    54  H    0.057667
    55  H   -0.003768
    56  H    0.045091
    57  H    0.036277
    58  H    0.061399
    59  H   -0.034914
    60  H    0.061129
    61  H   -0.035992
    62  H   -0.021957
    63  H    0.019515
    64  H    0.026800
    65  H    0.042646
    66  H    0.074882
    67  H    0.067195
    68  H    0.066563
    69  H   -0.055643
    70  H   -0.014641
    71  H    0.007174
    72  H    0.212616
    73  H    0.015145
    74  H    0.066206
    75  H    0.055946
    76  H    0.043434
    77  H    0.175073
    78  H    0.004997
    79  H    0.031320
 Sum of Mulliken charges =   0.00000

 Dipole moment (field-independent basis, Debye):
    X=             -0.3236    Y=              2.4848    Z=              4.8715  Tot=              5.4782
 Quadrupole moment (field-independent basis, Debye-Ang):
   XX=           -221.4717   YY=           -248.1142   ZZ=           -262.5931
   XY=             -8.5633   XZ=             33.5937   YZ=              2.6841

 Normal termination of Gaussian 09 at Mon Jul  8 03:21:27 2019.
