 Gaussian 09, Revision D.01,
 Gaussian 09:  ES64L-G09RevD.01 24-Apr-2013

 --------------------------
 # td=(NStates=1) B3LYP/SVP
 --------------------------

 --
 TD
 --
 Symbolic Z-matrix:
 Charge =  0 Multiplicity = 1

                         Standard orientation:
 ---------------------------------------------------------------------
 Center     Atomic      Atomic             Coordinates (Angstroms)
 Number     Number       Type             X           Y           Z
 ---------------------------------------------------------------------
      1          8           0        5.379652    0.058997   -3.331564
      2          8           0       -3.073453   -3.019890    3.307391
      3          8           0       -3.240268   -0.891263    3.397628
      4          8           0       -1.289783    7.083149    1.606236
      5          8           0       -0.399422    7.013503   -0.478463
      6          8           0       -1.948936   -4.032054   -0.132506
      7          7           0        2.289245    0.859294    0.605984
      8          7           0        4.466500   -0.642965   -1.355461
      9          7           0       -1.846017    0.734922   -0.388317
     10          7           0       -2.652003   -1.919366   -0.742053
     11          6           0        4.774244   -1.285499   -0.077157
     12          6           0        4.434648   -0.417756    1.201334
     13          6           0        2.944499   -0.119408    1.295374
     14          6           0        1.983927   -0.756554    2.143954
     15          6           0        0.705119   -0.147998    1.793679
     16          6           0        0.900411    0.835982    0.882559
     17          6           0        6.347186   -1.468293   -0.242601
     18          6           0       -0.548617   -0.348785    2.637010
     19          6           0        6.681376   -0.935587   -1.482117
     20          6           0        0.208860    1.878483    0.239459
     21          6           0       -1.084404    1.801738   -0.225905
     22          6           0        5.471209   -0.400092   -2.198652
     23          6           0       -1.929648    2.969161   -0.840302
     24          6           0        2.268670   -1.691397    3.328533
     25          6           0        7.157608   -2.040822    0.911652
     26          6           0       -3.139799    2.334700   -1.236842
     27          6           0       -1.223371   -1.702363    2.533022
     28          6           0       -3.055708    0.949766   -0.929014
     29          6           0       -1.521674    4.368731   -0.960835
     30          6           0        8.037995   -0.799528   -2.069007
     31          6           0       -1.662208    5.104104    0.376696
     32          6           0       -4.426095    3.024826   -1.734920
     33          6           0       -3.921803   -0.006305   -1.331536
     34          6           0       -2.559762   -1.768739    3.103544
     35          6           0       -3.791878   -1.408370   -1.234152
     36          6           0        9.290483   -0.896208   -1.501783
     37          6           0       -1.030782    6.525476    0.402157
     38          6           0       -4.798992   -2.432492   -1.546865
     39          6           0       -4.114217   -3.588262   -1.161960
     40          6           0       -2.777629   -3.273246   -0.631617
     41          6           0       -6.143327   -2.142742   -1.955555
     42          6           0       -4.398238   -5.035619   -1.452418
     43          6           0       -7.054156   -2.950346   -2.604965
     44          1           0        4.295509   -2.215901   -0.000818
     45          1           0        5.134259    0.689645    1.319072
     46          1           0        4.785035   -0.889123    2.156052
     47          1           0        2.751198    1.411158   -0.168772
     48          1           0        3.581255   -0.445488   -1.774171
     49          1           0       -0.597681   -0.059244    3.721105
     50          1           0       -1.265509    0.483337    2.072325
     51          1           0        0.713217    2.836272   -0.122335
     52          1           0        3.397257   -1.950340    3.392244
     53          1           0        2.182089   -1.310857    4.408360
     54          1           0        1.833984   -2.652135    3.318481
     55          1           0        6.605331   -2.538232    1.898138
     56          1           0        8.014236   -1.343848    1.421378
     57          1           0        7.929588   -2.683237    0.406142
     58          1           0       -1.317805   -2.204357    1.710389
     59          1           0       -0.616366   -2.446915    3.226778
     60          1           0       -1.708604   -0.261292   -0.013477
     61          1           0       -1.844461    4.846307   -1.857349
     62          1           0       -0.420403    4.477544   -1.217497
     63          1           0        8.127309   -0.612804   -2.943418
     64          1           0       -1.227081    4.458686    1.171609
     65          1           0       -2.840747    5.224455    0.663256
     66          1           0       -4.140581    4.058699   -1.932873
     67          1           0       -5.233365    2.744892   -0.841085
     68          1           0       -4.916000    2.522304   -2.649534
     69          1           0       -4.732776    0.594703   -2.136549
     70          1           0        9.265531   -1.137307   -0.535950
     71          1           0       10.099786   -0.579914   -2.228250
     72          1           0       -3.799570   -3.049197    3.729862
     73          1           0       -6.648528   -1.060589   -2.102458
     74          1           0       -4.191801   -5.242420   -2.429854
     75          1           0       -3.444581   -5.475324   -0.957082
     76          1           0       -5.505390   -5.430446   -1.116866
     77          1           0       -0.933105    8.081906    1.660085
     78          1           0       -7.914367   -2.759076   -2.975509
     79          1           0       -6.786820   -4.063910   -2.646900
 ---------------------------------------------------------------------

 SCF Done:  E(RB3LYP) =  -1947.76032980     A.U. after   19 cycles

 Excitation energies and oscillator strengths:

 Excited State   1:      Singlet-A      1.9728 eV  628.45 nm  f=0.3605  <S**2>=0.000
     154 ->156         0.30821
     155 ->156         0.63584
     155 <-156        -0.11278
 This state for optimization and/or second-order correction.
 Total Energy, E(TD-HF/TD-KS) =  -1947.68782920
 Copying the excited state density for this state as the 1-particle RhoCI density.

 The electronic state is 1-A.
 Alpha  occ. eigenvalues --  -19.19593 -19.14145 -19.13641 -19.10715 -19.10631
 Alpha  occ. eigenvalues --  -19.09874 -14.39020 -14.37163 -14.35895 -14.28477
 Alpha  occ. eigenvalues --  -10.33178 -10.29686 -10.28499 -10.26263 -10.25911
 Alpha  occ. eigenvalues --  -10.24854 -10.24530 -10.24215 -10.24179 -10.23962
 Alpha  occ. eigenvalues --  -10.23699 -10.23630 -10.23382 -10.22849 -10.22437
 Alpha  occ. eigenvalues --  -10.22417 -10.22230 -10.21447 -10.21384 -10.21286
 Alpha  occ. eigenvalues --  -10.21182 -10.21162 -10.20734 -10.20444 -10.20326
 Alpha  occ. eigenvalues --  -10.20266 -10.20068 -10.19827 -10.19303 -10.18923
 Alpha  occ. eigenvalues --  -10.18565 -10.18459 -10.18443  -1.10419  -1.10073
 Alpha  occ. eigenvalues --   -1.02646  -1.01998  -1.01239  -1.00970  -1.00156
 Alpha  occ. eigenvalues --   -0.98436  -0.94446  -0.92557  -0.82801  -0.82634
 Alpha  occ. eigenvalues --   -0.81845  -0.81238  -0.79892  -0.79632  -0.77748
 Alpha  occ. eigenvalues --   -0.77662  -0.77091  -0.75660  -0.74642  -0.72709
 Alpha  occ. eigenvalues --   -0.71344  -0.71129  -0.70071  -0.69200  -0.68398
 Alpha  occ. eigenvalues --   -0.68040  -0.66610  -0.64346  -0.61453  -0.61255
 Alpha  occ. eigenvalues --   -0.60517  -0.60272  -0.59268  -0.58655  -0.57115
 Alpha  occ. eigenvalues --   -0.56889  -0.55914  -0.55522  -0.55172  -0.53852
 Alpha  occ. eigenvalues --   -0.52451  -0.52076  -0.51832  -0.50830  -0.50072
 Alpha  occ. eigenvalues --   -0.49409  -0.48875  -0.48406  -0.48005  -0.47880
 Alpha  occ. eigenvalues --   -0.47498  -0.46838  -0.46441  -0.46299  -0.45835
 Alpha  occ. eigenvalues --   -0.45523  -0.45444  -0.44784  -0.44493  -0.44012
 Alpha  occ. eigenvalues --   -0.43346  -0.43104  -0.42809  -0.42699  -0.42014
 Alpha  occ. eigenvalues --   -0.41869  -0.41432  -0.41370  -0.41217  -0.40912
 Alpha  occ. eigenvalues --   -0.40812  -0.40742  -0.40128  -0.39962  -0.39682
 Alpha  occ. eigenvalues --   -0.39468  -0.39231  -0.39090  -0.38798  -0.38730
 Alpha  occ. eigenvalues --   -0.38409  -0.37519  -0.37209  -0.37192  -0.36929
 Alpha  occ. eigenvalues --   -0.36498  -0.36092  -0.35693  -0.34635  -0.34552
 Alpha  occ. eigenvalues --   -0.34220  -0.33597  -0.32534  -0.31611  -0.31116
 Alpha  occ. eigenvalues --   -0.31051  -0.30704  -0.29603  -0.28964  -0.27153
 Alpha  occ. eigenvalues --   -0.26927  -0.26541  -0.25942  -0.25792  -0.25528
 Alpha  occ. eigenvalues --   -0.24502  -0.24116  -0.23948  -0.21797  -0.19239
 Alpha virt. eigenvalues --   -0.11562  -0.06829  -0.06400  -0.01290  -0.00371
 Alpha virt. eigenvalues --    0.00074   0.00995   0.01571   0.01949   0.02431
 Alpha virt. eigenvalues --    0.02766   0.03266   0.03398   0.04597   0.04762

 Mulliken charges:
               1
     1  O   -0.234087
     2  O   -0.134250
     3  O   -0.163714
     4  O   -0.235594
     5  O   -0.193224
     6  O   -0.215457
     7  N   -0.118854
     8  N   -0.163250
     9  N   -0.020456
    10  N   -0.262979
    11  C    0.175526
    12  C    0.047775
    13  C   -0.056158
    14  C   -0.092594
    15  C   -0.054922
    16  C    0.153459
    17  C   -0.136525
    18  C   -0.004073
    19  C   -0.019804
    20  C   -0.121877
    21  C    0.035518
    22  C    0.123801
    23  C   -0.089257
    24  C    0.059628
    25  C   -0.037213
    26  C   -0.134555
    27  C    0.097869
    28  C    0.068792
    29  C    0.086938
    30  C    0.054847
    31  C   -0.071329
    32  C    0.038004
    33  C   -0.139834
    34  C    0.042690
    35  C    0.062611
    36  C    0.053693
    37  C    0.156756
    38  C    0.140430
    39  C   -0.226067
    40  C    0.163529
    41  C   -0.099758
    42  C    0.058323
    43  C    0.009814
    44  H    0.017213
    45  H    0.038957
    46  H    0.018627
    47  H    0.138538
    48  H    0.112929
    49  H    0.028142
    50  H    0.025917
    51  H    0.012379
    52  H   -0.013404
    53  H    0.032072
    54  H    0.021260
    55  H    0.065930
    56  H    0.061119
    57  H    0.050725
    58  H   -0.024771
    59  H    0.038496
    60  H    0.173117
    61  H    0.008200
    62  H    0.011969
    63  H   -0.125744
    64  H    0.053809
    65  H    0.061498
    66  H    0.030963
    67  H    0.064203
    68  H    0.044165
    69  H    0.030261
    70  H   -0.062549
    71  H    0.048800
    72  H    0.096969
    73  H    0.026717
    74  H    0.007665
    75  H    0.037868
    76  H    0.053694
    77  H    0.224456
    78  H   -0.034238
    79  H    0.019875
 Sum of Mulliken charges =   0.00000

 Dipole moment (field-independent basis, Debye):
    X=              1.0081    Y=              3.6186    Z=              3.6076  Tot=              5.2082
 Quadrupole moment (field-independent basis, Debye-Ang):
   XX=           -226.1144   YY=           -245.1402   ZZ=           -260.3244
   XY=            -15.9204   XZ=             36.2240   YZ=              3.6144

 Normal termination of Gaussian 09 at Wed Jul 10 17:56:34 2019.
