 Gaussian 09, Revision D.01,
 Gaussian 09:  ES64L-G09RevD.01 24-Apr-2013

 --------------------------
 # td=(NStates=1) B3LYP/SVP
 --------------------------

 --
 TD
 --
 Symbolic Z-matrix:
 Charge =  0 Multiplicity = 1

                         Standard orientation:
 ---------------------------------------------------------------------
 Center     Atomic      Atomic             Coordinates (Angstroms)
 Number     Number       Type             X           Y           Z
 ---------------------------------------------------------------------
      1          8           0        5.518888   -0.047520   -3.345529
      2          8           0       -2.980781   -3.090295    3.056256
      3          8           0       -3.134982   -0.781821    3.307464
      4          8           0       -1.341254    7.216094    1.427685
      5          8           0       -0.317650    6.895345   -0.515860
      6          8           0       -2.222872   -4.174498   -0.147353
      7          7           0        2.408759    0.891267    0.716119
      8          7           0        4.487498   -0.605187   -1.397420
      9          7           0       -1.962882    0.754847   -0.139511
     10          7           0       -2.822529   -1.842577   -0.513374
     11          6           0        4.804677   -1.273319   -0.154215
     12          6           0        4.463640   -0.390285    1.177697
     13          6           0        3.047282   -0.145050    1.355939
     14          6           0        2.014287   -0.859777    2.046412
     15          6           0        0.836249   -0.233935    1.769976
     16          6           0        1.070117    0.826520    0.871247
     17          6           0        6.301974   -1.469309   -0.298921
     18          6           0       -0.416850   -0.468811    2.580205
     19          6           0        6.776455   -0.852571   -1.449601
     20          6           0        0.219761    1.904884    0.312652
     21          6           0       -1.034373    1.844480   -0.063524
     22          6           0        5.565009   -0.557252   -2.256428
     23          6           0       -1.783019    2.933252   -0.748405
     24          6           0        2.221911   -2.003056    3.060423
     25          6           0        7.059699   -2.251027    0.777121
     26          6           0       -3.019973    2.459020   -1.146774
     27          6           0       -1.103167   -1.883504    2.427420
     28          6           0       -3.062281    1.049464   -0.709911
     29          6           0       -1.316510    4.299852   -0.715500
     30          6           0        8.141136   -0.781954   -2.059361
     31          6           0       -1.614145    5.123353    0.555622
     32          6           0       -4.152461    3.252293   -1.807592
     33          6           0       -4.059747    0.125928   -1.157203
     34          6           0       -2.530950   -1.779837    2.991349
     35          6           0       -3.948283   -1.294890   -1.032401
     36          6           0        9.306992   -0.909076   -1.315195
     37          6           0       -1.003341    6.547581    0.358016
     38          6           0       -4.935778   -2.375201   -1.431969
     39          6           0       -4.352175   -3.539218   -1.223606
     40          6           0       -2.962963   -3.238973   -0.581840
     41          6           0       -6.359921   -1.983173   -1.957982
     42          6           0       -4.967836   -4.947570   -1.354197
     43          6           0       -6.995333   -2.773002   -2.955074
     44          1           0        4.448461   -2.261833   -0.197200
     45          1           0        4.970456    0.548687    0.892557
     46          1           0        4.946490   -0.919377    1.979769
     47          1           0        2.891427    1.376527   -0.214282
     48          1           0        3.433508   -0.509808   -1.643730
     49          1           0       -0.134426   -0.193264    3.502390
     50          1           0       -1.284649    0.394061    2.455569
     51          1           0        0.658352    2.893516   -0.104235
     52          1           0        3.303885   -1.998715    3.100193
     53          1           0        1.483881   -1.851474    4.062612
     54          1           0        1.946632   -2.868563    2.574217
     55          1           0        6.415556   -3.005345    1.316521
     56          1           0        7.441999   -1.517191    1.677657
     57          1           0        8.004887   -2.767832    0.550006
     58          1           0       -1.186791   -2.376623    1.644065
     59          1           0       -0.457013   -2.517160    2.953324
     60          1           0       -1.744756   -0.174704   -0.004070
     61          1           0       -1.812887    4.948782   -1.616817
     62          1           0       -0.152279    4.154359   -0.895807
     63          1           0        8.013526   -0.767918   -3.201073
     64          1           0       -1.112353    4.862060    1.596168
     65          1           0       -2.742373    4.983592    0.616951
     66          1           0       -3.712075    4.284873   -2.259383
     67          1           0       -5.011028    3.407872   -1.087593
     68          1           0       -4.316758    2.636210   -2.536749
     69          1           0       -4.791811    0.492314   -1.667333
     70          1           0        9.474620   -0.929422   -0.267428
     71          1           0       10.249521   -0.830500   -1.912035
     72          1           0       -3.980976   -3.246648    3.442326
     73          1           0       -6.814671   -0.988421   -1.291053
     74          1           0       -4.822950   -5.117213   -2.434142
     75          1           0       -4.337237   -5.709101   -0.667444
     76          1           0       -5.910222   -4.924406   -1.186177
     77          1           0       -1.050427    8.060780    1.503950
     78          1           0       -8.139617   -2.514805   -3.083210
     79          1           0       -6.375115   -3.715208   -3.706806
 ---------------------------------------------------------------------

 SCF Done:  E(RB3LYP) =  -1947.75091123     A.U. after   16 cycles

 Excitation energies and oscillator strengths:

 Excited State   1:      Singlet-A      2.3102 eV  536.69 nm  f=0.5175  <S**2>=0.000
     155 ->156         0.69734
 This state for optimization and/or second-order correction.
 Total Energy, E(TD-HF/TD-KS) =  -1947.66601399
 Copying the excited state density for this state as the 1-particle RhoCI density.

 The electronic state is 1-A.
 Alpha  occ. eigenvalues --  -19.18949 -19.16764 -19.13892 -19.12178 -19.09820
 Alpha  occ. eigenvalues --  -19.09671 -14.39612 -14.36776 -14.35820 -14.28649
 Alpha  occ. eigenvalues --  -10.32885 -10.31083 -10.28305 -10.26454 -10.24778
 Alpha  occ. eigenvalues --  -10.24573 -10.23998 -10.23202 -10.23122 -10.23100
 Alpha  occ. eigenvalues --  -10.23031 -10.23024 -10.22892 -10.22584 -10.22461
 Alpha  occ. eigenvalues --  -10.22439 -10.22395 -10.22191 -10.21851 -10.20863
 Alpha  occ. eigenvalues --  -10.20786 -10.20729 -10.20664 -10.20505 -10.20437
 Alpha  occ. eigenvalues --  -10.19299 -10.19101 -10.19028 -10.18890 -10.18711
 Alpha  occ. eigenvalues --  -10.17817 -10.17679 -10.17225  -1.13361  -1.05841
 Alpha  occ. eigenvalues --   -1.04719  -1.03119  -1.00262  -0.99202  -0.98431
 Alpha  occ. eigenvalues --   -0.97853  -0.94144  -0.90391  -0.83889  -0.81747
 Alpha  occ. eigenvalues --   -0.81377  -0.81062  -0.79714  -0.78435  -0.77887
 Alpha  occ. eigenvalues --   -0.76506  -0.75858  -0.75041  -0.73123  -0.72336
 Alpha  occ. eigenvalues --   -0.71831  -0.71045  -0.70062  -0.69333  -0.68300
 Alpha  occ. eigenvalues --   -0.67054  -0.66467  -0.64317  -0.63019  -0.61428
 Alpha  occ. eigenvalues --   -0.59876  -0.58209  -0.57955  -0.57214  -0.56519
 Alpha  occ. eigenvalues --   -0.56373  -0.55342  -0.54690  -0.53799  -0.52908
 Alpha  occ. eigenvalues --   -0.51758  -0.51416  -0.50586  -0.50197  -0.49602
 Alpha  occ. eigenvalues --   -0.49235  -0.49111  -0.48445  -0.47570  -0.47423
 Alpha  occ. eigenvalues --   -0.46758  -0.46661  -0.46212  -0.45869  -0.45658
 Alpha  occ. eigenvalues --   -0.44999  -0.44441  -0.44115  -0.43710  -0.43373
 Alpha  occ. eigenvalues --   -0.43332  -0.42746  -0.42477  -0.42316  -0.42197
 Alpha  occ. eigenvalues --   -0.41841  -0.41769  -0.41598  -0.41400  -0.41108
 Alpha  occ. eigenvalues --   -0.40566  -0.40046  -0.39885  -0.39566  -0.39526
 Alpha  occ. eigenvalues --   -0.39252  -0.38934  -0.38865  -0.38754  -0.38267
 Alpha  occ. eigenvalues --   -0.38138  -0.37846  -0.37692  -0.37279  -0.36695
 Alpha  occ. eigenvalues --   -0.36080  -0.35240  -0.35105  -0.34952  -0.34449
 Alpha  occ. eigenvalues --   -0.34191  -0.33641  -0.32637  -0.31680  -0.30990
 Alpha  occ. eigenvalues --   -0.30921  -0.30676  -0.29620  -0.28228  -0.27297
 Alpha  occ. eigenvalues --   -0.26600  -0.26245  -0.25914  -0.25796  -0.25496
 Alpha  occ. eigenvalues --   -0.24047  -0.23503  -0.23017  -0.22143  -0.19060
 Alpha virt. eigenvalues --   -0.09849  -0.06422  -0.05259  -0.01488  -0.00256
 Alpha virt. eigenvalues --    0.00753   0.00875   0.01435   0.01796   0.02486
 Alpha virt. eigenvalues --    0.02737   0.02961   0.03128   0.04450   0.04617

 Mulliken charges:
               1
     1  O   -0.214088
     2  O   -0.278020
     3  O   -0.215241
     4  O   -0.106866
     5  O   -0.162935
     6  O   -0.263769
     7  N   -0.103464
     8  N   -0.243033
     9  N    0.048620
    10  N   -0.299050
    11  C    0.139277
    12  C    0.200236
    13  C   -0.086563
    14  C   -0.168498
    15  C   -0.043347
    16  C    0.016947
    17  C   -0.201275
    18  C    0.011888
    19  C   -0.065901
    20  C   -0.092381
    21  C    0.120490
    22  C    0.144785
    23  C   -0.052723
    24  C    0.145667
    25  C    0.012389
    26  C   -0.183062
    27  C    0.168807
    28  C    0.047991
    29  C   -0.010131
    30  C   -0.011144
    31  C   -0.075258
    32  C    0.136881
    33  C   -0.026740
    34  C    0.177894
    35  C    0.071670
    36  C   -0.030210
    37  C    0.116469
    38  C    0.016968
    39  C   -0.250801
    40  C    0.196242
    41  C   -0.054471
    42  C    0.157148
    43  C   -0.124206
    44  H   -0.000999
    45  H   -0.002048
    46  H   -0.001646
    47  H    0.171833
    48  H    0.152722
    49  H   -0.019580
    50  H    0.039115
    51  H    0.004789
    52  H   -0.012277
    53  H    0.061589
    54  H    0.014257
    55  H    0.027350
    56  H    0.047588
    57  H    0.037572
    58  H   -0.063368
    59  H   -0.010566
    60  H    0.105422
    61  H    0.044483
    62  H    0.031701
    63  H    0.049868
    64  H    0.063396
    65  H    0.055385
    66  H    0.032012
    67  H    0.053113
    68  H   -0.004411
    69  H   -0.120217
    70  H    0.021045
    71  H    0.034759
    72  H    0.223637
    73  H    0.069201
    74  H    0.019527
    75  H    0.056122
    76  H   -0.032121
    77  H    0.137214
    78  H    0.054718
    79  H    0.091622
 Sum of Mulliken charges =   0.00000

 Dipole moment (field-independent basis, Debye):
    X=              0.6357    Y=              3.5292    Z=              3.8672  Tot=              5.2739
 Quadrupole moment (field-independent basis, Debye-Ang):
   XX=           -223.3819   YY=           -239.2767   ZZ=           -263.4104
   XY=            -18.7443   XZ=             29.0636   YZ=              5.3419

 Normal termination of Gaussian 09 at Sun Jul  7 17:17:54 2019.
