 Gaussian 09, Revision D.01,
 Gaussian 09:  ES64L-G09RevD.01 24-Apr-2013

 --------------------------
 # td=(NStates=1) B3LYP/SVP
 --------------------------

 --
 TD
 --
 Symbolic Z-matrix:
 Charge =  0 Multiplicity = 1

                         Standard orientation:
 ---------------------------------------------------------------------
 Center     Atomic      Atomic             Coordinates (Angstroms)
 Number     Number       Type             X           Y           Z
 ---------------------------------------------------------------------
      1          8           0        5.032643   -0.154348   -3.353346
      2          8           0       -2.672348   -3.282680    3.401229
      3          8           0       -3.142418   -1.085328    3.409768
      4          8           0       -1.004734    7.153876    1.750039
      5          8           0       -0.154631    7.033412   -0.336989
      6          8           0       -2.302463   -4.040194   -0.100702
      7          7           0        2.341832    0.695713    0.444699
      8          7           0        4.332574   -0.739995   -1.265012
      9          7           0       -1.872424    0.765448   -0.283294
     10          7           0       -2.839340   -1.746459   -0.539115
     11          6           0        4.816157   -1.429529   -0.075626
     12          6           0        4.448400   -0.601544    1.176854
     13          6           0        3.065840   -0.189710    1.278760
     14          6           0        2.101160   -0.726509    2.164335
     15          6           0        0.818602   -0.157730    1.829869
     16          6           0        1.026611    0.838722    0.819263
     17          6           0        6.231668   -1.506914   -0.364387
     18          6           0       -0.457808   -0.437109    2.569098
     19          6           0        6.630538   -0.882663   -1.570293
     20          6           0        0.173410    1.739455    0.219553
     21          6           0       -1.065511    1.756413   -0.152474
     22          6           0        5.262770   -0.558142   -2.287262
     23          6           0       -1.821760    2.979113   -0.732490
     24          6           0        2.336153   -1.749554    3.289039
     25          6           0        7.193416   -2.021787    0.737709
     26          6           0       -3.017968    2.471548   -1.176971
     27          6           0       -1.087765   -1.910577    2.434880
     28          6           0       -3.073563    1.092268   -0.907053
     29          6           0       -1.339487    4.372811   -0.859111
     30          6           0        7.853440   -0.926795   -2.234919
     31          6           0       -1.378358    5.089668    0.524907
     32          6           0       -4.252923    3.321490   -1.669547
     33          6           0       -3.960686    0.161518   -1.339715
     34          6           0       -2.312880   -1.998395    3.151297
     35          6           0       -3.877151   -1.218164   -1.092926
     36          6           0        9.072289   -0.973007   -1.768474
     37          6           0       -0.832740    6.544059    0.490491
     38          6           0       -4.896402   -2.163427   -1.586478
     39          6           0       -4.430465   -3.401232   -1.083005
     40          6           0       -3.033162   -3.144457   -0.537452
     41          6           0       -6.229893   -1.895685   -2.141109
     42          6           0       -4.901815   -4.760600   -1.358451
     43          6           0       -7.007943   -2.801916   -2.820365
     44          1           0        4.253422   -2.408071    0.048096
     45          1           0        5.279164    0.237354    0.996412
     46          1           0        4.746546   -1.285603    2.025035
     47          1           0        2.782515    1.524870   -0.187384
     48          1           0        3.303347   -0.712910   -1.516319
     49          1           0       -0.292108   -0.190538    3.673091
     50          1           0       -1.215413    0.271119    2.322774
     51          1           0        0.811794    2.676697    0.025988
     52          1           0        3.379670   -1.737950    3.592861
     53          1           0        1.765480   -1.380950    4.122785
     54          1           0        2.435192   -2.931611    2.863385
     55          1           0        6.743644   -2.782363    1.487633
     56          1           0        7.329935   -1.217325    1.465875
     57          1           0        8.166588   -2.406167    0.346371
     58          1           0       -1.189761   -1.989044    1.207906
     59          1           0       -0.239209   -2.691412    2.769918
     60          1           0       -1.888608   -0.394461   -0.113584
     61          1           0       -2.002585    4.976788   -1.506770
     62          1           0       -0.393589    4.248178   -1.500632
     63          1           0        7.473867   -0.646110   -3.371279
     64          1           0       -0.820074    4.530115    1.295267
     65          1           0       -2.434541    5.306825    0.774176
     66          1           0       -4.253282    4.316007   -1.330293
     67          1           0       -5.174953    3.012650   -1.140997
     68          1           0       -4.501565    3.125387   -2.674949
     69          1           0       -4.869777    0.561963   -1.698659
     70          1           0        9.142713   -0.812985   -0.694613
     71          1           0        9.972283   -0.793252   -2.495948
     72          1           0       -3.703491   -3.518852    3.632891
     73          1           0       -6.633008   -0.870023   -1.930499
     74          1           0       -4.697523   -5.071269   -2.366856
     75          1           0       -4.313639   -5.321099   -0.715269
     76          1           0       -5.992596   -4.931729   -1.273907
     77          1           0       -0.428733    8.117723    1.836577
     78          1           0       -7.979926   -2.297932   -2.954208
     79          1           0       -6.661707   -3.804582   -3.243495
 ---------------------------------------------------------------------

 SCF Done:  E(RB3LYP) =  -1947.85533847     A.U. after   16 cycles

 Excitation energies and oscillator strengths:

 Excited State   1:      Singlet-A      2.0564 eV  602.92 nm  f=0.4979  <S**2>=0.000
     155 ->156         0.70073
     155 <-156        -0.11275
 This state for optimization and/or second-order correction.
 Total Energy, E(TD-HF/TD-KS) =  -1947.77976715
 Copying the excited state density for this state as the 1-particle RhoCI density.

 The electronic state is 1-A.
 Alpha  occ. eigenvalues --  -19.18009 -19.16289 -19.13909 -19.11459 -19.11043
 Alpha  occ. eigenvalues --  -19.10330 -14.39195 -14.35743 -14.34601 -14.30605
 Alpha  occ. eigenvalues --  -10.32575 -10.30598 -10.28644 -10.27707 -10.24613
 Alpha  occ. eigenvalues --  -10.23915 -10.23811 -10.23595 -10.23402 -10.22812
 Alpha  occ. eigenvalues --  -10.22678 -10.22609 -10.22365 -10.21986 -10.21763
 Alpha  occ. eigenvalues --  -10.21472 -10.21321 -10.21034 -10.20809 -10.20800
 Alpha  occ. eigenvalues --  -10.20724 -10.20585 -10.20437 -10.20239 -10.20214
 Alpha  occ. eigenvalues --  -10.20119 -10.20110 -10.19698 -10.19655 -10.19339
 Alpha  occ. eigenvalues --  -10.19198 -10.18416 -10.17791  -1.08808  -1.05588
 Alpha  occ. eigenvalues --   -1.05277  -1.01474  -0.99451  -0.99205  -0.97322
 Alpha  occ. eigenvalues --   -0.95578  -0.94077  -0.93976  -0.83100  -0.82527
 Alpha  occ. eigenvalues --   -0.81848  -0.80809  -0.80551  -0.79833  -0.77990
 Alpha  occ. eigenvalues --   -0.77412  -0.76327  -0.75468  -0.75138  -0.72321
 Alpha  occ. eigenvalues --   -0.71319  -0.70560  -0.70530  -0.69516  -0.68494
 Alpha  occ. eigenvalues --   -0.66594  -0.66428  -0.64549  -0.61403  -0.60712
 Alpha  occ. eigenvalues --   -0.59215  -0.57995  -0.57760  -0.57202  -0.56040
 Alpha  occ. eigenvalues --   -0.55648  -0.55493  -0.54678  -0.53659  -0.53170
 Alpha  occ. eigenvalues --   -0.52810  -0.51408  -0.50829  -0.50390  -0.49544
 Alpha  occ. eigenvalues --   -0.48730  -0.48572  -0.47933  -0.47665  -0.47489
 Alpha  occ. eigenvalues --   -0.46820  -0.46612  -0.46084  -0.45617  -0.45370
 Alpha  occ. eigenvalues --   -0.44957  -0.44471  -0.44155  -0.44064  -0.43855
 Alpha  occ. eigenvalues --   -0.43697  -0.43297  -0.43185  -0.42972  -0.42691
 Alpha  occ. eigenvalues --   -0.42324  -0.42133  -0.41528  -0.41454  -0.41038
 Alpha  occ. eigenvalues --   -0.40895  -0.40459  -0.40190  -0.39979  -0.39826
 Alpha  occ. eigenvalues --   -0.39597  -0.39446  -0.38904  -0.38533  -0.38421
 Alpha  occ. eigenvalues --   -0.37974  -0.37820  -0.37341  -0.36835  -0.36267
 Alpha  occ. eigenvalues --   -0.35952  -0.35685  -0.35274  -0.35026  -0.34742
 Alpha  occ. eigenvalues --   -0.34256  -0.33070  -0.32943  -0.32546  -0.32467
 Alpha  occ. eigenvalues --   -0.31361  -0.29648  -0.29308  -0.29105  -0.28777
 Alpha  occ. eigenvalues --   -0.26718  -0.26179  -0.25968  -0.25665  -0.24862
 Alpha  occ. eigenvalues --   -0.24318  -0.24189  -0.23499  -0.22672  -0.19091
 Alpha virt. eigenvalues --   -0.11163  -0.06561  -0.06131  -0.01340  -0.00846
 Alpha virt. eigenvalues --   -0.00752  -0.00224   0.01096   0.01593   0.02015
 Alpha virt. eigenvalues --    0.03049   0.03465   0.03805   0.04336   0.05186

 Mulliken charges:
               1
     1  O   -0.155954
     2  O   -0.256618
     3  O   -0.281636
     4  O   -0.319861
     5  O   -0.174294
     6  O   -0.213996
     7  N   -0.145914
     8  N   -0.251266
     9  N   -0.109400
    10  N   -0.280568
    11  C    0.105743
    12  C    0.117382
    13  C    0.001234
    14  C   -0.155183
    15  C   -0.099573
    16  C    0.076321
    17  C   -0.164648
    18  C    0.038376
    19  C   -0.110430
    20  C   -0.162923
    21  C    0.143792
    22  C    0.149969
    23  C   -0.124427
    24  C    0.098348
    25  C    0.041877
    26  C   -0.106674
    27  C   -0.089446
    28  C    0.099403
    29  C    0.082471
    30  C   -0.030661
    31  C   -0.000223
    32  C    0.137882
    33  C   -0.082842
    34  C    0.197150
    35  C    0.101961
    36  C   -0.057709
    37  C    0.143704
    38  C    0.011635
    39  C   -0.201602
    40  C    0.176540
    41  C   -0.062334
    42  C    0.123771
    43  C   -0.025953
    44  H    0.024419
    45  H    0.009972
    46  H    0.003181
    47  H    0.162819
    48  H    0.140371
    49  H    0.011934
    50  H   -0.004486
    51  H   -0.004736
    52  H   -0.015308
    53  H    0.030793
    54  H    0.050688
    55  H    0.018522
    56  H    0.029688
    57  H    0.051437
    58  H    0.125701
    59  H    0.060726
    60  H    0.225932
    61  H    0.007624
    62  H    0.048235
    63  H    0.045314
    64  H    0.064037
    65  H    0.043346
    66  H    0.001951
    67  H    0.010355
    68  H    0.016544
    69  H   -0.056678
    70  H    0.027202
    71  H    0.053086
    72  H    0.239734
    73  H    0.017041
    74  H    0.024253
    75  H    0.007326
    76  H    0.020027
    77  H    0.243726
    78  H    0.029267
    79  H    0.052529
 Sum of Mulliken charges =   0.00000

 Dipole moment (field-independent basis, Debye):
    X=             -0.0777    Y=              2.4079    Z=              2.1342  Tot=              3.2185
 Quadrupole moment (field-independent basis, Debye-Ang):
   XX=           -221.9510   YY=           -243.6273   ZZ=           -266.2137
   XY=             -6.5631   XZ=             34.3399   YZ=              3.1884

 Normal termination of Gaussian 09 at Sun Jul  7 15:11:20 2019.
