 Gaussian 09, Revision D.01,
 Gaussian 09:  ES64L-G09RevD.01 24-Apr-2013

 --------------------------
 # td=(NStates=1) B3LYP/SVP
 --------------------------

 --
 TD
 --
 Symbolic Z-matrix:
 Charge =  0 Multiplicity = 1

                         Standard orientation:
 ---------------------------------------------------------------------
 Center     Atomic      Atomic             Coordinates (Angstroms)
 Number     Number       Type             X           Y           Z
 ---------------------------------------------------------------------
      1          8           0        5.370632   -0.315782   -3.451237
      2          8           0       -2.706668   -3.101121    3.608699
      3          8           0       -3.050253   -0.861435    3.487572
      4          8           0       -1.335526    7.202476    1.513615
      5          8           0       -0.496084    7.002518   -0.540205
      6          8           0       -2.241329   -4.019374    0.099794
      7          7           0        2.433372    0.846987    0.469092
      8          7           0        4.490372   -0.603421   -1.291537
      9          7           0       -1.980479    0.702072   -0.241766
     10          7           0       -2.822096   -1.855370   -0.486211
     11          6           0        4.848965   -1.154253    0.012430
     12          6           0        4.524144   -0.209801    1.194678
     13          6           0        3.000602    0.052193    1.368232
     14          6           0        2.068149   -0.576457    2.082632
     15          6           0        0.759156   -0.056171    1.803102
     16          6           0        1.034059    0.946097    0.804330
     17          6           0        6.329888   -1.390863   -0.200495
     18          6           0       -0.552858   -0.266108    2.521792
     19          6           0        6.725599   -1.000085   -1.458233
     20          6           0        0.156678    1.864897    0.123916
     21          6           0       -1.142233    1.779514   -0.322918
     22          6           0        5.429928   -0.627916   -2.260647
     23          6           0       -1.913501    2.847570   -0.892363
     24          6           0        2.384338   -1.668716    3.132791
     25          6           0        7.144260   -2.042932    0.818506
     26          6           0       -3.166916    2.447659   -1.262391
     27          6           0       -1.037065   -1.752243    2.597205
     28          6           0       -3.151291    0.943843   -0.929519
     29          6           0       -1.474112    4.259765   -0.831999
     30          6           0        8.026583   -0.806380   -2.118371
     31          6           0       -1.718746    5.261533    0.503518
     32          6           0       -4.330899    3.058813   -1.925535
     33          6           0       -4.082281    0.049935   -1.355044
     34          6           0       -2.425141   -1.813960    3.229850
     35          6           0       -3.929932   -1.327308   -1.043433
     36          6           0        9.316427   -0.874137   -1.656095
     37          6           0       -1.148026    6.504036    0.387266
     38          6           0       -4.907349   -2.465206   -1.456197
     39          6           0       -4.297069   -3.627153   -1.160972
     40          6           0       -3.004955   -3.239152   -0.509222
     41          6           0       -6.094577   -2.227582   -2.196572
     42          6           0       -4.546672   -5.027704   -1.246703
     43          6           0       -6.786408   -3.201395   -2.859491
     44          1           0        4.137614   -2.135391    0.131162
     45          1           0        4.916179    0.705464    1.169049
     46          1           0        4.964273   -0.645706    2.148849
     47          1           0        2.986732    1.206616   -0.228423
     48          1           0        3.317190   -1.039069   -1.520910
     49          1           0       -0.275728    0.034653    3.511927
     50          1           0       -1.428424    0.308480    2.187864
     51          1           0        0.702867    2.867952   -0.132612
     52          1           0        3.422047   -1.277284    3.575871
     53          1           0        1.551278   -1.364606    3.945276
     54          1           0        2.366297   -2.843188    3.043261
     55          1           0        6.164627   -2.741673    1.424611
     56          1           0        7.776013   -1.476782    1.546363
     57          1           0        7.737717   -2.895941    0.336861
     58          1           0       -1.097616   -2.478249    1.497952
     59          1           0       -0.235504   -2.094315    3.386639
     60          1           0       -1.752591   -0.340312    0.030816
     61          1           0       -1.661530    4.770566   -1.797977
     62          1           0       -0.424956    4.420253   -0.815326
     63          1           0        7.835573   -0.445557   -3.248484
     64          1           0       -1.217869    5.008389    1.505898
     65          1           0       -2.835815    5.473264    0.621126
     66          1           0       -4.017707    4.188749   -2.180172
     67          1           0       -5.148937    2.952653   -1.253734
     68          1           0       -4.664574    2.614335   -3.015434
     69          1           0       -4.920477    0.213260   -2.058724
     70          1           0        9.525374   -1.575575   -0.452349
     71          1           0        9.966098   -0.534153   -2.444154
     72          1           0       -3.448820   -2.913549    3.959219
     73          1           0       -6.476791   -1.260239   -2.208757
     74          1           0       -4.182893   -5.531523   -2.346170
     75          1           0       -3.919004   -5.624609   -0.404457
     76          1           0       -5.683058   -5.163960   -1.237760
     77          1           0       -0.880274    8.062936    1.404534
     78          1           0       -7.743965   -2.977105   -3.430722
     79          1           0       -6.760183   -4.320911   -2.908367
 ---------------------------------------------------------------------

 SCF Done:  E(RB3LYP) =  -1947.73468921     A.U. after   16 cycles

 Excitation energies and oscillator strengths:

 Excited State   1:      Singlet-A      2.1388 eV  579.69 nm  f=0.4396  <S**2>=0.000
     155 ->156         0.69740
 This state for optimization and/or second-order correction.
 Total Energy, E(TD-HF/TD-KS) =  -1947.65608992
 Copying the excited state density for this state as the 1-particle RhoCI density.

 The electronic state is 1-A.
 Alpha  occ. eigenvalues --  -19.18415 -19.16097 -19.12780 -19.12310 -19.11136
 Alpha  occ. eigenvalues --  -19.10656 -14.37641 -14.37620 -14.37133 -14.29803
 Alpha  occ. eigenvalues --  -10.31849 -10.30818 -10.29543 -10.26641 -10.26516
 Alpha  occ. eigenvalues --  -10.25129 -10.24102 -10.24062 -10.23459 -10.23432
 Alpha  occ. eigenvalues --  -10.22575 -10.22572 -10.22427 -10.22226 -10.22161
 Alpha  occ. eigenvalues --  -10.22127 -10.21868 -10.21860 -10.21512 -10.21380
 Alpha  occ. eigenvalues --  -10.21296 -10.21206 -10.21146 -10.20837 -10.20781
 Alpha  occ. eigenvalues --  -10.20561 -10.20382 -10.20279 -10.20087 -10.19432
 Alpha  occ. eigenvalues --  -10.19425 -10.19186 -10.18704  -1.11632  -1.10447
 Alpha  occ. eigenvalues --   -1.03209  -1.02313  -1.00402  -0.99400  -0.99063
 Alpha  occ. eigenvalues --   -0.98156  -0.94689  -0.91713  -0.82732  -0.81902
 Alpha  occ. eigenvalues --   -0.81657  -0.81451  -0.80832  -0.79854  -0.79474
 Alpha  occ. eigenvalues --   -0.77172  -0.76351  -0.75835  -0.74982  -0.73420
 Alpha  occ. eigenvalues --   -0.70976  -0.70026  -0.69300  -0.68790  -0.68013
 Alpha  occ. eigenvalues --   -0.67548  -0.66389  -0.63891  -0.60970  -0.60598
 Alpha  occ. eigenvalues --   -0.59971  -0.59440  -0.58278  -0.56964  -0.55726
 Alpha  occ. eigenvalues --   -0.55574  -0.55277  -0.55053  -0.53880  -0.52792
 Alpha  occ. eigenvalues --   -0.52046  -0.51716  -0.50739  -0.50025  -0.49818
 Alpha  occ. eigenvalues --   -0.49518  -0.48641  -0.48335  -0.48058  -0.47707
 Alpha  occ. eigenvalues --   -0.47254  -0.46786  -0.46447  -0.46084  -0.45826
 Alpha  occ. eigenvalues --   -0.45410  -0.44723  -0.44618  -0.44266  -0.43612
 Alpha  occ. eigenvalues --   -0.43256  -0.42969  -0.42792  -0.42489  -0.42364
 Alpha  occ. eigenvalues --   -0.42023  -0.41942  -0.41665  -0.41190  -0.40781
 Alpha  occ. eigenvalues --   -0.40396  -0.40195  -0.39793  -0.39733  -0.39465
 Alpha  occ. eigenvalues --   -0.38789  -0.38644  -0.38603  -0.38358  -0.38251
 Alpha  occ. eigenvalues --   -0.38099  -0.37797  -0.37468  -0.36937  -0.36344
 Alpha  occ. eigenvalues --   -0.36035  -0.34995  -0.34921  -0.34384  -0.34214
 Alpha  occ. eigenvalues --   -0.33857  -0.33310  -0.32724  -0.32220  -0.31619
 Alpha  occ. eigenvalues --   -0.31613  -0.31511  -0.28773  -0.27966  -0.27866
 Alpha  occ. eigenvalues --   -0.27591  -0.27493  -0.26188  -0.26043  -0.24956
 Alpha  occ. eigenvalues --   -0.24490  -0.24338  -0.24018  -0.22612  -0.19234
 Alpha virt. eigenvalues --   -0.10750  -0.07087  -0.06620  -0.02384  -0.01665
 Alpha virt. eigenvalues --   -0.00432  -0.00279   0.01078   0.01457   0.02050
 Alpha virt. eigenvalues --    0.03327   0.03394   0.03978   0.04235   0.04934

 Mulliken charges:
               1
     1  O   -0.226734
     2  O   -0.094899
     3  O   -0.187569
     4  O   -0.189263
     5  O   -0.262992
     6  O   -0.237966
     7  N   -0.035487
     8  N   -0.269206
     9  N   -0.114928
    10  N   -0.273139
    11  C    0.033485
    12  C    0.274953
    13  C   -0.132301
    14  C   -0.133080
    15  C   -0.037175
    16  C    0.042909
    17  C   -0.129956
    18  C    0.069693
    19  C   -0.062265
    20  C   -0.134454
    21  C    0.141143
    22  C    0.178517
    23  C   -0.072986
    24  C   -0.026701
    25  C   -0.036593
    26  C   -0.101987
    27  C   -0.150330
    28  C    0.157407
    29  C    0.091580
    30  C   -0.063845
    31  C   -0.010416
    32  C    0.041991
    33  C   -0.139084
    34  C    0.134455
    35  C    0.051704
    36  C   -0.061083
    37  C    0.106108
    38  C    0.071590
    39  C   -0.144583
    40  C    0.150413
    41  C    0.014163
    42  C   -0.034912
    43  C   -0.076528
    44  H    0.053498
    45  H   -0.049134
    46  H    0.003444
    47  H    0.086946
    48  H    0.194472
    49  H    0.007969
    50  H    0.025730
    51  H    0.017614
    52  H    0.023379
    53  H    0.026936
    54  H    0.071440
    55  H    0.033289
    56  H    0.068459
    57  H    0.061164
    58  H    0.136038
    59  H    0.039543
    60  H    0.197605
    61  H    0.024487
    62  H   -0.017650
    63  H    0.054336
    64  H    0.069584
    65  H    0.065355
    66  H    0.039492
    67  H    0.031692
    68  H    0.059398
    69  H   -0.009878
    70  H    0.065833
    71  H    0.038207
    72  H    0.078702
    73  H   -0.026250
    74  H    0.053698
    75  H    0.077343
    76  H    0.034338
    77  H    0.186124
    78  H    0.023916
    79  H    0.033228
 Sum of Mulliken charges =   0.00000

 Dipole moment (field-independent basis, Debye):
    X=             -0.0383    Y=              1.8560    Z=              2.4121  Tot=              3.0437
 Quadrupole moment (field-independent basis, Debye-Ang):
   XX=           -219.8693   YY=           -252.4133   ZZ=           -265.0434
   XY=            -10.9159   XZ=             34.0162   YZ=              9.3039

 Normal termination of Gaussian 09 at Wed Jul 10 11:38:29 2019.
