 Gaussian 09, Revision D.01,
 Gaussian 09:  ES64L-G09RevD.01 24-Apr-2013

 --------------------------
 # td=(NStates=1) B3LYP/SVP
 --------------------------

 --
 TD
 --
 Symbolic Z-matrix:
 Charge =  0 Multiplicity = 1

                         Standard orientation:
 ---------------------------------------------------------------------
 Center     Atomic      Atomic             Coordinates (Angstroms)
 Number     Number       Type             X           Y           Z
 ---------------------------------------------------------------------
      1          8           0        5.499200    0.260057   -3.299127
      2          8           0       -2.649361   -3.484554    3.184328
      3          8           0       -3.144292   -1.374297    3.411473
      4          8           0       -2.021832    7.406658    1.488909
      5          8           0       -0.546584    6.957881   -0.272489
      6          8           0       -1.883480   -3.886492   -0.351873
      7          7           0        2.317516    1.001660    0.762260
      8          7           0        4.539753   -0.377374   -1.260485
      9          7           0       -1.841815    0.657426   -0.278378
     10          7           0       -2.853250   -1.777669   -0.569709
     11          6           0        4.913850   -1.087715   -0.092153
     12          6           0        4.529866   -0.339370    1.258428
     13          6           0        3.013381   -0.046568    1.366871
     14          6           0        2.062605   -0.802388    2.099515
     15          6           0        0.789370   -0.220028    1.746495
     16          6           0        1.046940    0.898408    0.995573
     17          6           0        6.336518   -1.232697   -0.302742
     18          6           0       -0.500197   -0.585981    2.458433
     19          6           0        6.740937   -0.743734   -1.438126
     20          6           0        0.227372    1.928240    0.316249
     21          6           0       -1.058554    1.836012   -0.190159
     22          6           0        5.563527   -0.096096   -2.138514
     23          6           0       -1.877826    2.955595   -0.740482
     24          6           0        2.268060   -1.940105    3.144654
     25          6           0        7.224846   -2.040735    0.644294
     26          6           0       -3.050027    2.361925   -1.090046
     27          6           0       -1.008399   -2.035926    2.378622
     28          6           0       -3.093644    0.969568   -0.895824
     29          6           0       -1.489063    4.379447   -0.763013
     30          6           0        8.051237   -0.696325   -2.157416
     31          6           0       -1.866193    5.139585    0.513382
     32          6           0       -4.324131    3.166949   -1.559380
     33          6           0       -4.096745    0.016339   -1.136806
     34          6           0       -2.446174   -2.272002    2.992903
     35          6           0       -3.917364   -1.361111   -1.052619
     36          6           0        9.302081   -0.900022   -1.469412
     37          6           0       -1.340180    6.541257    0.473353
     38          6           0       -4.777694   -2.423604   -1.582713
     39          6           0       -4.123857   -3.592952   -1.340614
     40          6           0       -2.822545   -3.173904   -0.646177
     41          6           0       -6.132116   -2.201932   -2.219371
     42          6           0       -4.482614   -4.967423   -1.598729
     43          6           0       -7.124325   -3.079505   -2.620095
     44          1           0        4.508621   -2.118965   -0.120767
     45          1           0        5.174479    0.489075    1.520141
     46          1           0        4.774652   -1.075922    2.165398
     47          1           0        2.828403    1.988637    0.338836
     48          1           0        3.519407   -0.176685   -1.603074
     49          1           0       -0.452489   -0.229912    3.377596
     50          1           0       -1.297890    0.145184    1.987488
     51          1           0        0.574228    2.863703    0.075336
     52          1           0        3.501464   -2.360791    3.153317
     53          1           0        1.873725   -1.538777    4.019939
     54          1           0        1.497575   -2.780531    2.710533
     55          1           0        6.682987   -2.822373    1.150312
     56          1           0        7.877929   -1.305421    1.373560
     57          1           0        8.012571   -2.808991    0.143988
     58          1           0       -1.135522   -2.356095    1.185263
     59          1           0       -0.325190   -2.898200    2.887243
     60          1           0       -1.672669   -0.408562   -0.259342
     61          1           0       -1.944483    4.739805   -1.760509
     62          1           0       -0.338435    4.348643   -0.848945
     63          1           0        8.019696   -0.619851   -3.286015
     64          1           0       -1.446920    4.436866    1.326491
     65          1           0       -2.824147    5.105207    0.709864
     66          1           0       -3.914919    4.223921   -1.485764
     67          1           0       -5.092251    2.921887   -0.838887
     68          1           0       -4.311018    3.074308   -2.714466
     69          1           0       -5.039972    0.441733   -1.592250
     70          1           0        9.202317   -0.846503   -0.356933
     71          1           0       10.127615   -0.796727   -1.977468
     72          1           0       -3.434132   -3.405158    3.646276
     73          1           0       -6.275631   -0.989754   -2.270396
     74          1           0       -4.792013   -5.252224   -2.549038
     75          1           0       -3.733218   -5.676437   -1.290985
     76          1           0       -5.507226   -5.358130   -0.978985
     77          1           0       -1.659067    8.234079    1.343710
     78          1           0       -8.269676   -2.623300   -2.778276
     79          1           0       -7.107095   -4.245268   -2.395066
 ---------------------------------------------------------------------

 SCF Done:  E(RB3LYP) =  -1947.78691900     A.U. after   16 cycles

 Excitation energies and oscillator strengths:

 Excited State   1:      Singlet-A      2.1002 eV  590.35 nm  f=0.4581  <S**2>=0.000
     155 ->156         0.70069
     155 <-156        -0.10426
 This state for optimization and/or second-order correction.
 Total Energy, E(TD-HF/TD-KS) =  -1947.70973821
 Copying the excited state density for this state as the 1-particle RhoCI density.

 The electronic state is 1-A.
 Alpha  occ. eigenvalues --  -19.18768 -19.16658 -19.16160 -19.11773 -19.10561
 Alpha  occ. eigenvalues --  -19.09923 -14.39511 -14.35972 -14.35519 -14.29208
 Alpha  occ. eigenvalues --  -10.33925 -10.30392 -10.27971 -10.27575 -10.24852
 Alpha  occ. eigenvalues --  -10.24724 -10.24625 -10.23132 -10.22972 -10.22964
 Alpha  occ. eigenvalues --  -10.22855 -10.22724 -10.22701 -10.22344 -10.22118
 Alpha  occ. eigenvalues --  -10.22061 -10.22043 -10.21823 -10.21578 -10.21417
 Alpha  occ. eigenvalues --  -10.21229 -10.20672 -10.20668 -10.20633 -10.20222
 Alpha  occ. eigenvalues --  -10.20182 -10.19548 -10.19468 -10.19464 -10.19287
 Alpha  occ. eigenvalues --  -10.19248 -10.18518 -10.18158  -1.15093  -1.10627
 Alpha  occ. eigenvalues --   -1.02950  -1.02323  -1.01525  -0.99872  -0.99752
 Alpha  occ. eigenvalues --   -0.96588  -0.95115  -0.95066  -0.83871  -0.81443
 Alpha  occ. eigenvalues --   -0.81220  -0.80562  -0.80265  -0.78906  -0.78337
 Alpha  occ. eigenvalues --   -0.76543  -0.75249  -0.74286  -0.73806  -0.72226
 Alpha  occ. eigenvalues --   -0.70867  -0.70148  -0.70031  -0.68819  -0.68584
 Alpha  occ. eigenvalues --   -0.67402  -0.66508  -0.64758  -0.60777  -0.60297
 Alpha  occ. eigenvalues --   -0.59481  -0.59235  -0.58422  -0.57321  -0.56663
 Alpha  occ. eigenvalues --   -0.55819  -0.55358  -0.54163  -0.53433  -0.53286
 Alpha  occ. eigenvalues --   -0.53029  -0.52317  -0.51475  -0.50395  -0.50150
 Alpha  occ. eigenvalues --   -0.49818  -0.49388  -0.48664  -0.48021  -0.47767
 Alpha  occ. eigenvalues --   -0.47485  -0.47124  -0.46950  -0.46247  -0.45938
 Alpha  occ. eigenvalues --   -0.45005  -0.44784  -0.44381  -0.44151  -0.43974
 Alpha  occ. eigenvalues --   -0.43588  -0.43333  -0.42894  -0.42490  -0.42149
 Alpha  occ. eigenvalues --   -0.41905  -0.41841  -0.41417  -0.41312  -0.41235
 Alpha  occ. eigenvalues --   -0.40917  -0.40714  -0.40354  -0.40089  -0.39307
 Alpha  occ. eigenvalues --   -0.39281  -0.39036  -0.38745  -0.38433  -0.38264
 Alpha  occ. eigenvalues --   -0.38077  -0.37843  -0.37492  -0.37213  -0.36929
 Alpha  occ. eigenvalues --   -0.36660  -0.36271  -0.35707  -0.35130  -0.34869
 Alpha  occ. eigenvalues --   -0.33994  -0.33453  -0.33183  -0.31467  -0.31224
 Alpha  occ. eigenvalues --   -0.31065  -0.30746  -0.30459  -0.29323  -0.28705
 Alpha  occ. eigenvalues --   -0.26354  -0.26264  -0.26115  -0.25186  -0.24732
 Alpha  occ. eigenvalues --   -0.24376  -0.24113  -0.23720  -0.23053  -0.19412
 Alpha virt. eigenvalues --   -0.11153  -0.06696  -0.05261  -0.02237  -0.01333
 Alpha virt. eigenvalues --   -0.00673   0.00226   0.01722   0.02381   0.02799
 Alpha virt. eigenvalues --    0.03289   0.04100   0.04380   0.04618   0.04904

 Mulliken charges:
               1
     1  O   -0.225369
     2  O   -0.017754
     3  O   -0.257814
     4  O   -0.256549
     5  O   -0.145508
     6  O   -0.189339
     7  N   -0.104836
     8  N   -0.234542
     9  N   -0.169075
    10  N   -0.217296
    11  C    0.160120
    12  C    0.136953
    13  C   -0.099738
    14  C   -0.123022
    15  C   -0.136617
    16  C    0.109886
    17  C   -0.183414
    18  C    0.130370
    19  C   -0.039033
    20  C   -0.011238
    21  C    0.060544
    22  C    0.145163
    23  C   -0.077061
    24  C    0.031335
    25  C   -0.009209
    26  C   -0.193911
    27  C   -0.152628
    28  C    0.110632
    29  C    0.027340
    30  C   -0.060012
    31  C    0.091954
    32  C    0.111036
    33  C   -0.140622
    34  C    0.089602
    35  C    0.084448
    36  C    0.038512
    37  C    0.171706
    38  C    0.023297
    39  C   -0.176831
    40  C    0.149809
    41  C   -0.014449
    42  C    0.064802
    43  C   -0.114718
    44  H    0.026670
    45  H   -0.006874
    46  H    0.011119
    47  H    0.193241
    48  H    0.152636
    49  H   -0.033987
    50  H    0.023354
    51  H   -0.090567
    52  H    0.046841
    53  H    0.027181
    54  H    0.072752
    55  H    0.007385
    56  H    0.065180
    57  H    0.051282
    58  H    0.102044
    59  H    0.047915
    60  H    0.184407
    61  H    0.045621
    62  H    0.035624
    63  H    0.037308
    64  H    0.059997
    65  H   -0.020600
    66  H   -0.001210
    67  H    0.056849
    68  H    0.047145
    69  H   -0.014156
    70  H    0.027467
    71  H   -0.018360
    72  H    0.124837
    73  H    0.029651
    74  H    0.012058
    75  H    0.018053
    76  H    0.031942
    77  H    0.147320
    78  H    0.059900
    79  H    0.053047
 Sum of Mulliken charges =   0.00000

 Dipole moment (field-independent basis, Debye):
    X=             -0.2861    Y=              1.7367    Z=              2.8079  Tot=              3.3139
 Quadrupole moment (field-independent basis, Debye-Ang):
   XX=           -233.6793   YY=           -241.7408   ZZ=           -268.2581
   XY=             -3.9816   XZ=             31.4895   YZ=             -2.4829

 Normal termination of Gaussian 09 at Wed Jul 10 15:03:51 2019.
