 Gaussian 09, Revision D.01,
 Gaussian 09:  ES64L-G09RevD.01 24-Apr-2013

 --------------------------
 # td=(NStates=1) B3LYP/SVP
 --------------------------

 --
 TD
 --
 Symbolic Z-matrix:
 Charge =  0 Multiplicity = 1

                         Standard orientation:
 ---------------------------------------------------------------------
 Center     Atomic      Atomic             Coordinates (Angstroms)
 Number     Number       Type             X           Y           Z
 ---------------------------------------------------------------------
      1          8           0        5.356208   -0.071227   -3.280650
      2          8           0       -2.885359   -3.053336    3.320800
      3          8           0       -3.197678   -0.778917    3.252409
      4          8           0       -1.730571    7.216948    1.376298
      5          8           0       -0.554136    6.989396   -0.491516
      6          8           0       -1.879378   -4.019479   -0.265784
      7          7           0        2.394737    0.807614    0.492249
      8          7           0        4.426149   -0.726130   -1.182474
      9          7           0       -1.897813    0.669034   -0.426899
     10          7           0       -2.651967   -1.832154   -0.767422
     11          6           0        4.855224   -1.234634    0.014697
     12          6           0        4.445165   -0.317254    1.283635
     13          6           0        2.975215   -0.125280    1.279742
     14          6           0        2.000979   -0.740303    2.085555
     15          6           0        0.768765   -0.183639    1.752344
     16          6           0        1.087922    0.824887    0.746028
     17          6           0        6.353421   -1.409375   -0.191646
     18          6           0       -0.685086   -0.243338    2.435675
     19          6           0        6.745660   -1.007563   -1.435333
     20          6           0        0.249989    1.805246    0.114474
     21          6           0       -1.026819    1.855627   -0.309542
     22          6           0        5.476186   -0.523209   -2.160776
     23          6           0       -1.901543    2.933678   -0.767402
     24          6           0        2.239053   -1.737682    3.250141
     25          6           0        7.207235   -1.823791    0.940925
     26          6           0       -3.117393    2.469825   -1.091654
     27          6           0       -1.046009   -1.685296    2.561673
     28          6           0       -3.094701    0.989385   -0.786509
     29          6           0       -1.391553    4.259307   -0.881417
     30          6           0        8.034260   -0.729434   -2.017664
     31          6           0       -1.643697    5.080480    0.377439
     32          6           0       -4.440436    3.147778   -1.516266
     33          6           0       -4.030433    0.007457   -1.248381
     34          6           0       -2.513928   -1.783103    3.124576
     35          6           0       -3.762104   -1.362504   -1.195497
     36          6           0        9.238596   -0.709990   -1.554495
     37          6           0       -1.256914    6.517706    0.309759
     38          6           0       -4.724065   -2.520301   -1.558171
     39          6           0       -4.146755   -3.645095   -1.112799
     40          6           0       -2.759037   -3.256764   -0.662374
     41          6           0       -6.089192   -2.302961   -2.028424
     42          6           0       -4.623812   -5.125189   -1.302422
     43          6           0       -6.949398   -3.208687   -2.461905
     44          1           0        4.325495   -2.174521    0.156052
     45          1           0        5.155852    0.441302    1.309276
     46          1           0        4.753822   -0.797451    2.303426
     47          1           0        2.697943    1.305534   -0.212305
     48          1           0        3.445110   -0.562799   -1.549740
     49          1           0       -0.589642    0.098655    3.573527
     50          1           0       -1.359860    0.229070    1.804309
     51          1           0        0.862871    2.636657   -0.155256
     52          1           0        3.292436   -1.957706    3.447325
     53          1           0        1.683521   -1.315956    4.051247
     54          1           0        1.816074   -2.772138    2.861701
     55          1           0        6.930777   -2.791540    1.373012
     56          1           0        7.222622   -0.955905    1.632071
     57          1           0        8.412070   -2.044177    0.656308
     58          1           0       -0.960736   -2.260375    1.759201
     59          1           0       -0.294350   -2.295991    3.260444
     60          1           0       -1.517050   -0.360559   -0.332299
     61          1           0       -1.956595    5.026300   -1.547474
     62          1           0       -0.373702    4.485839   -0.960825
     63          1           0        8.027810   -0.651777   -2.999114
     64          1           0       -0.929610    4.642964    1.226794
     65          1           0       -2.723790    5.018088    0.452102
     66          1           0       -4.277997    4.282474   -1.380667
     67          1           0       -5.298450    2.652142   -0.936010
     68          1           0       -4.593306    2.909758   -2.723571
     69          1           0       -4.980834    0.263538   -1.799268
     70          1           0        9.537494   -0.719913   -0.505166
     71          1           0       10.153389   -0.297718   -2.146615
     72          1           0       -3.713097   -3.023076    3.762004
     73          1           0       -6.223531   -1.296067   -2.003129
     74          1           0       -4.745095   -5.290199   -2.404435
     75          1           0       -3.762640   -5.852435   -1.067636
     76          1           0       -5.693804   -5.366010   -0.771784
     77          1           0       -1.266024    8.103906    1.119486
     78          1           0       -7.926833   -2.967362   -2.766416
     79          1           0       -6.749543   -4.334087   -2.551112
 ---------------------------------------------------------------------

 SCF Done:  E(RB3LYP) =  -1947.87049995     A.U. after   16 cycles

 Excitation energies and oscillator strengths:

 Excited State   1:      Singlet-A      2.2674 eV  546.82 nm  f=0.5134  <S**2>=0.000
     155 ->156         0.69988
 This state for optimization and/or second-order correction.
 Total Energy, E(TD-HF/TD-KS) =  -1947.78717530
 Copying the excited state density for this state as the 1-particle RhoCI density.

 The electronic state is 1-A.
 Alpha  occ. eigenvalues --  -19.19025 -19.18118 -19.14271 -19.12005 -19.11205
 Alpha  occ. eigenvalues --  -19.10202 -14.38843 -14.36828 -14.35475 -14.28421
 Alpha  occ. eigenvalues --  -10.32342 -10.31321 -10.29359 -10.26495 -10.24843
 Alpha  occ. eigenvalues --  -10.24714 -10.24540 -10.23548 -10.23142 -10.23075
 Alpha  occ. eigenvalues --  -10.22340 -10.22249 -10.22075 -10.22020 -10.21860
 Alpha  occ. eigenvalues --  -10.21693 -10.21467 -10.21228 -10.20697 -10.20676
 Alpha  occ. eigenvalues --  -10.20465 -10.20377 -10.19973 -10.19969 -10.19933
 Alpha  occ. eigenvalues --  -10.19493 -10.19213 -10.19106 -10.19057 -10.18990
 Alpha  occ. eigenvalues --  -10.18675 -10.18607 -10.18552  -1.11975  -1.09611
 Alpha  occ. eigenvalues --   -1.02847  -1.02515  -1.01844  -1.00352  -1.00228
 Alpha  occ. eigenvalues --   -0.98256  -0.94902  -0.92232  -0.84721  -0.82498
 Alpha  occ. eigenvalues --   -0.82413  -0.81657  -0.80284  -0.78960  -0.78678
 Alpha  occ. eigenvalues --   -0.77702  -0.76776  -0.75683  -0.73933  -0.72209
 Alpha  occ. eigenvalues --   -0.71600  -0.71330  -0.69567  -0.68176  -0.67654
 Alpha  occ. eigenvalues --   -0.67026  -0.66294  -0.64025  -0.61434  -0.61173
 Alpha  occ. eigenvalues --   -0.60466  -0.59052  -0.58861  -0.58039  -0.57338
 Alpha  occ. eigenvalues --   -0.56933  -0.55919  -0.54927  -0.54364  -0.53847
 Alpha  occ. eigenvalues --   -0.52540  -0.52111  -0.51665  -0.51260  -0.50496
 Alpha  occ. eigenvalues --   -0.49802  -0.49402  -0.49011  -0.48253  -0.47779
 Alpha  occ. eigenvalues --   -0.47733  -0.47419  -0.47324  -0.46517  -0.45843
 Alpha  occ. eigenvalues --   -0.45283  -0.44915  -0.44788  -0.44574  -0.44260
 Alpha  occ. eigenvalues --   -0.43798  -0.43583  -0.43348  -0.43042  -0.42840
 Alpha  occ. eigenvalues --   -0.42478  -0.42282  -0.41909  -0.41579  -0.41473
 Alpha  occ. eigenvalues --   -0.40922  -0.40377  -0.40055  -0.39702  -0.39574
 Alpha  occ. eigenvalues --   -0.39419  -0.39179  -0.39007  -0.38710  -0.38454
 Alpha  occ. eigenvalues --   -0.38020  -0.37773  -0.37343  -0.37052  -0.36842
 Alpha  occ. eigenvalues --   -0.36370  -0.35772  -0.35375  -0.34406  -0.34083
 Alpha  occ. eigenvalues --   -0.33817  -0.33653  -0.33551  -0.33421  -0.32383
 Alpha  occ. eigenvalues --   -0.31938  -0.31400  -0.29721  -0.29481  -0.27367
 Alpha  occ. eigenvalues --   -0.26852  -0.26530  -0.26328  -0.26126  -0.25529
 Alpha  occ. eigenvalues --   -0.24852  -0.23763  -0.23315  -0.22322  -0.18960
 Alpha virt. eigenvalues --   -0.09888  -0.06150  -0.05749  -0.00251   0.00096
 Alpha virt. eigenvalues --    0.01178   0.01186   0.01471   0.02351   0.02725
 Alpha virt. eigenvalues --    0.03741   0.04176   0.04301   0.05075   0.05374

 Mulliken charges:
               1
     1  O   -0.205088
     2  O   -0.133115
     3  O   -0.241178
     4  O   -0.214390
     5  O   -0.186698
     6  O   -0.213255
     7  N    0.081873
     8  N   -0.254703
     9  N   -0.124287
    10  N   -0.266351
    11  C    0.125084
    12  C    0.143857
    13  C   -0.074274
    14  C   -0.156139
    15  C   -0.118412
    16  C   -0.030899
    17  C   -0.171986
    18  C    0.199638
    19  C   -0.007749
    20  C   -0.090106
    21  C    0.126733
    22  C    0.160440
    23  C    0.035731
    24  C    0.098052
    25  C    0.019345
    26  C   -0.156759
    27  C   -0.053078
    28  C    0.117592
    29  C    0.054992
    30  C    0.081407
    31  C   -0.041751
    32  C    0.030067
    33  C   -0.137582
    34  C    0.154575
    35  C    0.047772
    36  C   -0.079225
    37  C    0.108261
    38  C    0.019987
    39  C   -0.203405
    40  C    0.167609
    41  C    0.070827
    42  C    0.007523
    43  C   -0.015286
    44  H    0.005825
    45  H   -0.027880
    46  H    0.011577
    47  H    0.054153
    48  H    0.145870
    49  H    0.033929
    50  H   -0.008087
    51  H   -0.030944
    52  H    0.001310
    53  H    0.032227
    54  H    0.057817
    55  H    0.036999
    56  H    0.044778
    57  H    0.047972
    58  H   -0.002933
    59  H    0.024616
    60  H    0.194189
    61  H    0.019469
    62  H   -0.011153
    63  H   -0.041452
    64  H    0.064670
    65  H    0.030467
    66  H    0.035330
    67  H    0.064726
    68  H    0.059147
    69  H   -0.008022
    70  H    0.003356
    71  H    0.036237
    72  H    0.158344
    73  H   -0.070641
    74  H    0.038215
    75  H    0.041009
    76  H    0.054509
    77  H    0.193265
    78  H    0.004427
    79  H    0.031030
 Sum of Mulliken charges =   0.00000

 Dipole moment (field-independent basis, Debye):
    X=              0.9950    Y=              2.4400    Z=              3.7918  Tot=              4.6175
 Quadrupole moment (field-independent basis, Debye-Ang):
   XX=           -222.8417   YY=           -248.3286   ZZ=           -261.7966
   XY=             -5.4719   XZ=             31.1596   YZ=             -3.2190

 Normal termination of Gaussian 09 at Tue Jul  9 09:44:12 2019.
