 Gaussian 09, Revision D.01,
 Gaussian 09:  ES64L-G09RevD.01 24-Apr-2013

 --------------------------
 # td=(NStates=1) B3LYP/SVP
 --------------------------

 --
 TD
 --
 Symbolic Z-matrix:
 Charge =  0 Multiplicity = 1

                         Standard orientation:
 ---------------------------------------------------------------------
 Center     Atomic      Atomic             Coordinates (Angstroms)
 Number     Number       Type             X           Y           Z
 ---------------------------------------------------------------------
      1          8           0        5.497532   -0.225774   -3.214179
      2          8           0       -2.902955   -3.204727    3.272357
      3          8           0       -3.298098   -0.927528    3.130444
      4          8           0       -1.242965    7.215780    1.779596
      5          8           0       -0.257911    6.925229   -0.284116
      6          8           0       -2.404933   -3.948709   -0.176412
      7          7           0        2.448892    0.747468    0.600425
      8          7           0        4.499319   -0.882715   -1.264254
      9          7           0       -1.928366    0.739979   -0.364296
     10          7           0       -2.880620   -1.737273   -0.558766
     11          6           0        4.894732   -1.404497   -0.013669
     12          6           0        4.534992   -0.495189    1.201006
     13          6           0        3.016185   -0.253554    1.239731
     14          6           0        1.988288   -0.935926    1.985856
     15          6           0        0.743543   -0.312275    1.686761
     16          6           0        1.061382    0.741587    0.707711
     17          6           0        6.508782   -1.542774   -0.271058
     18          6           0       -0.605786   -0.504950    2.340884
     19          6           0        6.813458   -1.025037   -1.425386
     20          6           0        0.325356    1.774134    0.018977
     21          6           0       -1.028195    1.811245   -0.305838
     22          6           0        5.497783   -0.560656   -2.118482
     23          6           0       -1.712000    2.963004   -0.727697
     24          6           0        2.120892   -2.112720    2.948862
     25          6           0        7.291198   -2.036415    0.913155
     26          6           0       -2.951334    2.496455   -1.137683
     27          6           0       -1.082806   -1.909077    2.395262
     28          6           0       -3.115608    1.144563   -0.876209
     29          6           0       -1.123523    4.343804   -0.634985
     30          6           0        8.069540   -0.799951   -2.061332
     31          6           0       -1.351070    5.088572    0.674799
     32          6           0       -4.124752    3.323759   -1.831780
     33          6           0       -4.100241    0.264330   -1.242736
     34          6           0       -2.563104   -1.911934    2.965909
     35          6           0       -4.051217   -1.184460   -1.075362
     36          6           0        9.328040   -0.667334   -1.594305
     37          6           0       -0.873009    6.494663    0.728205
     38          6           0       -5.097856   -2.135555   -1.591860
     39          6           0       -4.421722   -3.372685   -1.237693
     40          6           0       -3.132988   -3.108386   -0.671837
     41          6           0       -6.278013   -1.800579   -2.206034
     42          6           0       -4.889496   -4.874831   -1.239103
     43          6           0       -7.381805   -2.662932   -2.297735
     44          1           0        4.461089   -2.427410    0.146014
     45          1           0        5.153689    0.321542    1.344777
     46          1           0        4.780858   -1.135532    2.093813
     47          1           0        2.778943    1.235445   -0.211780
     48          1           0        3.489610   -0.722329   -1.552897
     49          1           0       -0.542179   -0.159682    3.490441
     50          1           0       -1.294260    0.166475    1.812931
     51          1           0        0.865710    2.728341   -0.363185
     52          1           0        3.200140   -2.494750    3.219234
     53          1           0        1.677719   -1.851651    3.959310
     54          1           0        1.623561   -2.824478    2.642214
     55          1           0        6.899251   -2.546043    1.718112
     56          1           0        8.090934   -1.100041    1.244846
     57          1           0        7.951007   -3.043957    0.434878
     58          1           0       -1.246327   -2.352528    1.417896
     59          1           0       -0.306990   -2.451810    2.995276
     60          1           0       -1.809064   -0.225009   -0.316781
     61          1           0       -1.608614    4.977640   -1.459262
     62          1           0       -0.024120    4.156660   -0.917825
     63          1           0        7.820897   -0.525715   -2.981158
     64          1           0       -0.960103    4.478183    1.702238
     65          1           0       -2.564343    5.130514    0.721322
     66          1           0       -3.890992    4.301151   -1.954437
     67          1           0       -5.021748    3.519870   -1.409042
     68          1           0       -4.265459    2.893029   -2.966868
     69          1           0       -4.857296    0.671241   -1.780709
     70          1           0        9.597113   -0.826489   -0.459655
     71          1           0       10.200727   -0.224439   -2.206421
     72          1           0       -3.940771   -3.119278    3.315125
     73          1           0       -6.248892   -0.546742   -2.744994
     74          1           0       -5.340130   -4.913219   -2.343920
     75          1           0       -4.133128   -5.554628   -0.949277
     76          1           0       -5.878038   -5.232556   -0.687556
     77          1           0       -0.837349    8.123780    1.501139
     78          1           0       -8.162710   -2.221424   -2.784335
     79          1           0       -7.616524   -3.956938   -2.100730
 ---------------------------------------------------------------------

 SCF Done:  E(RB3LYP) =  -1947.75862655     A.U. after   25 cycles

 Excitation energies and oscillator strengths:

 Excited State   1:      Singlet-A      1.8698 eV  663.10 nm  f=0.3643  <S**2>=0.000
     154 ->156         0.31718
     155 ->156         0.62793
     155 <-156        -0.11785
 This state for optimization and/or second-order correction.
 Total Energy, E(TD-HF/TD-KS) =  -1947.68991431
 Copying the excited state density for this state as the 1-particle RhoCI density.

 The electronic state is 1-A.
 Alpha  occ. eigenvalues --  -19.21355 -19.17377 -19.13296 -19.11951 -19.11121
 Alpha  occ. eigenvalues --  -19.09327 -14.39724 -14.36329 -14.35330 -14.28648
 Alpha  occ. eigenvalues --  -10.33461 -10.31131 -10.28754 -10.25516 -10.25022
 Alpha  occ. eigenvalues --  -10.24836 -10.24098 -10.24055 -10.23842 -10.23620
 Alpha  occ. eigenvalues --  -10.23399 -10.23289 -10.23050 -10.22972 -10.22271
 Alpha  occ. eigenvalues --  -10.22246 -10.21839 -10.21610 -10.20998 -10.20892
 Alpha  occ. eigenvalues --  -10.20858 -10.20729 -10.20713 -10.20662 -10.20659
 Alpha  occ. eigenvalues --  -10.19985 -10.19643 -10.19607 -10.19443 -10.19091
 Alpha  occ. eigenvalues --  -10.18845 -10.18791 -10.18094  -1.11239  -1.07171
 Alpha  occ. eigenvalues --   -1.06490  -1.00959  -1.00821  -1.00056  -0.98862
 Alpha  occ. eigenvalues --   -0.97980  -0.95738  -0.90191  -0.83235  -0.82490
 Alpha  occ. eigenvalues --   -0.81930  -0.81351  -0.79833  -0.79500  -0.77852
 Alpha  occ. eigenvalues --   -0.76961  -0.76216  -0.75254  -0.73872  -0.72616
 Alpha  occ. eigenvalues --   -0.72045  -0.70829  -0.70039  -0.69153  -0.68702
 Alpha  occ. eigenvalues --   -0.66066  -0.65779  -0.64057  -0.62017  -0.61526
 Alpha  occ. eigenvalues --   -0.60221  -0.59150  -0.59013  -0.58395  -0.57189
 Alpha  occ. eigenvalues --   -0.56688  -0.55641  -0.54883  -0.53606  -0.52631
 Alpha  occ. eigenvalues --   -0.51875  -0.51042  -0.50769  -0.50343  -0.50028
 Alpha  occ. eigenvalues --   -0.49671  -0.48909  -0.48350  -0.48233  -0.47519
 Alpha  occ. eigenvalues --   -0.47009  -0.46765  -0.46272  -0.46050  -0.45626
 Alpha  occ. eigenvalues --   -0.45032  -0.44922  -0.44474  -0.44282  -0.44196
 Alpha  occ. eigenvalues --   -0.43546  -0.43313  -0.43070  -0.42635  -0.42117
 Alpha  occ. eigenvalues --   -0.42027  -0.41795  -0.41506  -0.41468  -0.41382
 Alpha  occ. eigenvalues --   -0.41139  -0.41031  -0.40576  -0.39946  -0.39755
 Alpha  occ. eigenvalues --   -0.39660  -0.39269  -0.38795  -0.38668  -0.38503
 Alpha  occ. eigenvalues --   -0.38025  -0.37246  -0.37080  -0.36653  -0.36578
 Alpha  occ. eigenvalues --   -0.36114  -0.35160  -0.34875  -0.34694  -0.34605
 Alpha  occ. eigenvalues --   -0.33392  -0.33155  -0.32931  -0.32410  -0.32051
 Alpha  occ. eigenvalues --   -0.31066  -0.30716  -0.28647  -0.28556  -0.27851
 Alpha  occ. eigenvalues --   -0.27487  -0.26887  -0.26641  -0.26005  -0.25567
 Alpha  occ. eigenvalues --   -0.24429  -0.24075  -0.23842  -0.21102  -0.18543
 Alpha virt. eigenvalues --   -0.11265  -0.07493  -0.05067  -0.02239  -0.01805
 Alpha virt. eigenvalues --    0.00499   0.01049   0.01355   0.01910   0.02045
 Alpha virt. eigenvalues --    0.02364   0.02579   0.03518   0.03594   0.04334

 Mulliken charges:
               1
     1  O   -0.139007
     2  O   -0.218820
     3  O   -0.253481
     4  O   -0.171118
     5  O   -0.283664
     6  O   -0.210568
     7  N   -0.003210
     8  N   -0.194695
     9  N   -0.036214
    10  N   -0.311589
    11  C    0.048128
    12  C    0.235105
    13  C   -0.119482
    14  C   -0.148965
    15  C   -0.070232
    16  C    0.039707
    17  C   -0.154471
    18  C    0.069587
    19  C   -0.065115
    20  C   -0.119944
    21  C    0.074984
    22  C    0.124533
    23  C   -0.067751
    24  C    0.158909
    25  C   -0.006698
    26  C   -0.145640
    27  C   -0.023459
    28  C    0.104749
    29  C    0.090252
    30  C    0.078818
    31  C   -0.072594
    32  C    0.132202
    33  C   -0.049217
    34  C    0.172681
    35  C    0.082565
    36  C   -0.082097
    37  C    0.168465
    38  C    0.089469
    39  C   -0.157192
    40  C    0.146014
    41  C   -0.143043
    42  C    0.025834
    43  C   -0.050863
    44  H    0.024246
    45  H   -0.019204
    46  H   -0.002609
    47  H    0.113365
    48  H    0.143878
    49  H    0.029164
    50  H    0.014759
    51  H    0.013859
    52  H    0.014127
    53  H    0.025525
    54  H   -0.023514
    55  H    0.007636
    56  H    0.070724
    57  H    0.051394
    58  H    0.062932
    59  H    0.024333
    60  H    0.099273
    61  H    0.031125
    62  H    0.028467
    63  H   -0.051956
    64  H    0.076962
    65  H    0.067075
    66  H   -0.046121
    67  H   -0.000236
    68  H    0.040071
    69  H   -0.096256
    70  H    0.030183
    71  H    0.048777
    72  H    0.203338
    73  H    0.070485
    74  H    0.034307
    75  H    0.033126
    76  H    0.038009
    77  H    0.212389
    78  H    0.003257
    79  H    0.084234
 Sum of Mulliken charges =   0.00000

 Dipole moment (field-independent basis, Debye):
    X=              1.3591    Y=              3.2598    Z=              2.7449  Tot=              4.4730
 Quadrupole moment (field-independent basis, Debye-Ang):
   XX=           -227.3350   YY=           -242.5563   ZZ=           -264.8953
   XY=             -8.2934   XZ=             34.6177   YZ=              1.9301

 Normal termination of Gaussian 09 at Tue Jul  9 20:24:21 2019.
