 Gaussian 09, Revision D.01,
 Gaussian 09:  ES64L-G09RevD.01 24-Apr-2013

 --------------------------
 # td=(NStates=1) B3LYP/SVP
 --------------------------

 --
 TD
 --
 Symbolic Z-matrix:
 Charge =  0 Multiplicity = 1

                         Standard orientation:
 ---------------------------------------------------------------------
 Center     Atomic      Atomic             Coordinates (Angstroms)
 Number     Number       Type             X           Y           Z
 ---------------------------------------------------------------------
      1          8           0        5.439561    0.039842   -3.322795
      2          8           0       -2.782071   -3.285530    3.298802
      3          8           0       -3.209471   -1.115962    3.184234
      4          8           0       -1.564802    7.012732    1.689249
      5          8           0       -0.909353    7.075918   -0.394392
      6          8           0       -1.905662   -3.974931    0.024234
      7          7           0        2.343646    0.953116    0.662874
      8          7           0        4.449219   -0.615798   -1.283958
      9          7           0       -1.865909    0.708876   -0.412569
     10          7           0       -2.619742   -1.793851   -0.614226
     11          6           0        4.926788   -1.092308    0.013286
     12          6           0        4.426379   -0.172282    1.169425
     13          6           0        2.928898    0.007254    1.382946
     14          6           0        1.999252   -0.696986    2.111881
     15          6           0        0.684045   -0.122474    1.712867
     16          6           0        0.919064    0.883637    0.793698
     17          6           0        6.395426   -1.094408   -0.156925
     18          6           0       -0.626356   -0.328728    2.418150
     19          6           0        6.740903   -0.770428   -1.500605
     20          6           0        0.195747    1.878585    0.130862
     21          6           0       -1.112452    1.808444   -0.324421
     22          6           0        5.511090   -0.376578   -2.171267
     23          6           0       -1.851675    2.887450   -0.858762
     24          6           0        2.196727   -1.746177    3.136037
     25          6           0        7.184355   -1.799379    0.996413
     26          6           0       -3.121417    2.437545   -1.272007
     27          6           0       -1.012675   -1.808336    2.577550
     28          6           0       -3.077603    1.033736   -1.038989
     29          6           0       -1.565098    4.358750   -0.819798
     30          6           0        7.984442   -0.755659   -2.143894
     31          6           0       -1.735227    4.974860    0.455603
     32          6           0       -4.340523    3.159201   -1.700563
     33          6           0       -4.007366   -0.000658   -1.352721
     34          6           0       -2.451983   -2.040831    3.029488
     35          6           0       -3.770648   -1.443309   -1.172151
     36          6           0        9.198643   -1.023760   -1.580434
     37          6           0       -1.401834    6.437526    0.487977
     38          6           0       -4.722038   -2.470579   -1.526061
     39          6           0       -4.001741   -3.601227   -1.188036
     40          6           0       -2.713683   -3.194423   -0.503447
     41          6           0       -6.043272   -2.335644   -2.057089
     42          6           0       -4.393780   -5.068827   -1.299950
     43          6           0       -6.787335   -3.335792   -2.650894
     44          1           0        4.544055   -2.199341    0.241730
     45          1           0        5.020171    0.806783    0.952116
     46          1           0        4.767902   -0.597482    2.074190
     47          1           0        2.986051    1.682032    0.253432
     48          1           0        3.519198   -0.456247   -1.380272
     49          1           0       -0.373225    0.224218    3.356354
     50          1           0       -1.388708    0.305992    2.060850
     51          1           0        0.850685    2.788607   -0.151555
     52          1           0        3.228535   -1.624912    3.546835
     53          1           0        1.663532   -1.593714    4.105700
     54          1           0        1.915219   -2.835088    2.645785
     55          1           0        6.631510   -2.582540    1.514412
     56          1           0        7.514433   -1.166085    1.840097
     57          1           0        8.102352   -2.287258    0.598834
     58          1           0       -1.098543   -2.404190    1.572842
     59          1           0       -0.433765   -2.536828    3.384413
     60          1           0       -1.563481   -0.179678   -0.232531
     61          1           0       -2.200588    4.961247   -1.470417
     62          1           0       -0.493269    4.662053   -1.090146
     63          1           0        7.936195   -0.237396   -3.205240
     64          1           0       -1.193682    4.386319    1.206423
     65          1           0       -2.944902    4.913613    0.902360
     66          1           0       -4.271600    4.234506   -1.643352
     67          1           0       -5.206314    2.809930   -1.066525
     68          1           0       -4.819923    2.852808   -2.832263
     69          1           0       -4.815866    0.384055   -1.979467
     70          1           0        9.405199   -1.118506   -0.764782
     71          1           0        9.928167   -1.284282   -2.184157
     72          1           0       -3.723805   -3.240787    3.302634
     73          1           0       -6.371201   -1.283470   -2.214526
     74          1           0       -4.504351   -5.405239   -2.309010
     75          1           0       -3.756782   -5.779209   -0.854868
     76          1           0       -5.314675   -5.017342   -0.726768
     77          1           0       -1.074595    7.835249    1.518612
     78          1           0       -7.928533   -2.882172   -3.039826
     79          1           0       -6.561826   -4.447776   -2.820465
 ---------------------------------------------------------------------

 SCF Done:  E(RB3LYP) =  -1947.84230479     A.U. after   17 cycles

 Excitation energies and oscillator strengths:

 Excited State   1:      Singlet-A      2.0064 eV  617.96 nm  f=0.4804  <S**2>=0.000
     154 ->156         0.17729
     155 ->156         0.68587
     155 <-156        -0.13319
 This state for optimization and/or second-order correction.
 Total Energy, E(TD-HF/TD-KS) =  -1947.76857246
 Copying the excited state density for this state as the 1-particle RhoCI density.

 The electronic state is 1-A.
 Alpha  occ. eigenvalues --  -19.18652 -19.17232 -19.13724 -19.10846 -19.10290
 Alpha  occ. eigenvalues --  -19.10000 -14.38544 -14.35989 -14.34903 -14.28919
 Alpha  occ. eigenvalues --  -10.32672 -10.29946 -10.28733 -10.26635 -10.25666
 Alpha  occ. eigenvalues --  -10.24583 -10.24017 -10.23702 -10.23628 -10.23434
 Alpha  occ. eigenvalues --  -10.23274 -10.22779 -10.22774 -10.22492 -10.22100
 Alpha  occ. eigenvalues --  -10.22029 -10.21600 -10.21480 -10.21192 -10.21148
 Alpha  occ. eigenvalues --  -10.21114 -10.20922 -10.20801 -10.20750 -10.20497
 Alpha  occ. eigenvalues --  -10.20487 -10.20190 -10.19773 -10.19761 -10.19720
 Alpha  occ. eigenvalues --  -10.19397 -10.18061 -10.17024  -1.12059  -1.10375
 Alpha  occ. eigenvalues --   -1.01992  -1.01756  -1.00528  -0.99638  -0.99414
 Alpha  occ. eigenvalues --   -0.99187  -0.94180  -0.92534  -0.84328  -0.82798
 Alpha  occ. eigenvalues --   -0.82423  -0.81239  -0.80628  -0.80241  -0.78891
 Alpha  occ. eigenvalues --   -0.77481  -0.76050  -0.75611  -0.74588  -0.72866
 Alpha  occ. eigenvalues --   -0.72309  -0.71561  -0.70195  -0.69183  -0.68688
 Alpha  occ. eigenvalues --   -0.68106  -0.66654  -0.64606  -0.63544  -0.60735
 Alpha  occ. eigenvalues --   -0.60059  -0.59213  -0.58442  -0.57877  -0.57337
 Alpha  occ. eigenvalues --   -0.56448  -0.55975  -0.55850  -0.55134  -0.53780
 Alpha  occ. eigenvalues --   -0.52654  -0.52142  -0.51387  -0.51070  -0.50534
 Alpha  occ. eigenvalues --   -0.49678  -0.49514  -0.49155  -0.48476  -0.47911
 Alpha  occ. eigenvalues --   -0.47430  -0.46956  -0.46804  -0.46167  -0.45809
 Alpha  occ. eigenvalues --   -0.45301  -0.44834  -0.44346  -0.44156  -0.43996
 Alpha  occ. eigenvalues --   -0.43729  -0.43323  -0.42794  -0.42755  -0.42524
 Alpha  occ. eigenvalues --   -0.42366  -0.42146  -0.42069  -0.41774  -0.41315
 Alpha  occ. eigenvalues --   -0.41229  -0.41064  -0.40642  -0.40478  -0.40172
 Alpha  occ. eigenvalues --   -0.39999  -0.39426  -0.39280  -0.39001  -0.38895
 Alpha  occ. eigenvalues --   -0.38527  -0.38460  -0.38055  -0.37709  -0.37524
 Alpha  occ. eigenvalues --   -0.36532  -0.36046  -0.35828  -0.35107  -0.34519
 Alpha  occ. eigenvalues --   -0.34079  -0.33911  -0.33211  -0.33104  -0.31473
 Alpha  occ. eigenvalues --   -0.31275  -0.30931  -0.29602  -0.29180  -0.28533
 Alpha  occ. eigenvalues --   -0.26316  -0.26009  -0.25833  -0.25805  -0.25129
 Alpha  occ. eigenvalues --   -0.24148  -0.23992  -0.23326  -0.22141  -0.18852
 Alpha virt. eigenvalues --   -0.11294  -0.08122  -0.07112  -0.01566  -0.01090
 Alpha virt. eigenvalues --   -0.00071   0.00477   0.02505   0.02901   0.02987
 Alpha virt. eigenvalues --    0.03619   0.04339   0.04523   0.04917   0.05071

 Mulliken charges:
               1
     1  O   -0.227576
     2  O   -0.127994
     3  O   -0.243108
     4  O   -0.165481
     5  O   -0.221235
     6  O   -0.227167
     7  N   -0.105393
     8  N   -0.178760
     9  N    0.004229
    10  N   -0.266320
    11  C    0.045986
    12  C    0.161794
    13  C   -0.088199
    14  C   -0.125994
    15  C   -0.115194
    16  C    0.112631
    17  C   -0.133777
    18  C    0.151597
    19  C   -0.015974
    20  C   -0.129419
    21  C    0.072330
    22  C    0.174695
    23  C   -0.059609
    24  C    0.044150
    25  C    0.063528
    26  C   -0.076614
    27  C   -0.079811
    28  C    0.066407
    29  C    0.096036
    30  C   -0.093937
    31  C   -0.079625
    32  C    0.038628
    33  C   -0.093922
    34  C    0.086935
    35  C    0.090571
    36  C    0.210097
    37  C    0.134623
    38  C    0.048984
    39  C   -0.225137
    40  C    0.168028
    41  C   -0.006104
    42  C    0.128144
    43  C   -0.107136
    44  H    0.048904
    45  H    0.007490
    46  H   -0.023240
    47  H    0.139677
    48  H    0.086975
    49  H    0.019041
    50  H   -0.005937
    51  H    0.013277
    52  H   -0.000640
    53  H    0.025795
    54  H    0.072949
    55  H    0.019196
    56  H    0.031422
    57  H    0.030120
    58  H    0.092036
    59  H    0.055141
    60  H    0.099072
    61  H    0.010051
    62  H    0.020900
    63  H    0.048786
    64  H    0.037814
    65  H    0.054834
    66  H    0.016225
    67  H    0.039208
    68  H    0.048436
    69  H   -0.031607
    70  H   -0.150393
    71  H   -0.007955
    72  H    0.158019
    73  H    0.006719
    74  H    0.025862
    75  H    0.003969
    76  H    0.027040
    77  H    0.171902
    78  H    0.046467
    79  H    0.056534
 Sum of Mulliken charges =   0.00000

 Dipole moment (field-independent basis, Debye):
    X=              1.5039    Y=              1.9025    Z=              3.6720  Tot=              4.4006
 Quadrupole moment (field-independent basis, Debye-Ang):
   XX=           -220.5830   YY=           -250.2208   ZZ=           -267.6801
   XY=             -5.7843   XZ=             37.5600   YZ=              5.5640

 Normal termination of Gaussian 09 at Tue Jul  9 10:05:22 2019.
