 Gaussian 09, Revision D.01,
 Gaussian 09:  ES64L-G09RevD.01 24-Apr-2013

 --------------------------
 # td=(NStates=1) B3LYP/SVP
 --------------------------

 --
 TD
 --
 Symbolic Z-matrix:
 Charge =  0 Multiplicity = 1

                         Standard orientation:
 ---------------------------------------------------------------------
 Center     Atomic      Atomic             Coordinates (Angstroms)
 Number     Number       Type             X           Y           Z
 ---------------------------------------------------------------------
      1          8           0        5.359063   -0.507131   -3.375901
      2          8           0       -3.055852   -2.880487    3.168478
      3          8           0       -3.234632   -0.676994    3.181763
      4          8           0       -1.072840    7.162710    1.444101
      5          8           0       -0.094270    6.826554   -0.518075
      6          8           0       -2.322017   -4.057112   -0.056152
      7          7           0        2.414610    0.750455    0.464898
      8          7           0        4.378949   -0.911407   -1.326710
      9          7           0       -1.906646    0.657617   -0.209713
     10          7           0       -2.935082   -1.816232   -0.410644
     11          6           0        4.877635   -1.420627   -0.058304
     12          6           0        4.534181   -0.396376    1.173489
     13          6           0        3.093379   -0.142195    1.376754
     14          6           0        2.090181   -0.671743    2.173107
     15          6           0        0.846833   -0.043447    1.949473
     16          6           0        1.083462    0.807495    0.770723
     17          6           0        6.349318   -1.579278   -0.231666
     18          6           0       -0.485709   -0.293458    2.532210
     19          6           0        6.681750   -1.210746   -1.457705
     20          6           0        0.197064    1.762240    0.068295
     21          6           0       -0.997636    1.764474   -0.327440
     22          6           0        5.421773   -0.807191   -2.258190
     23          6           0       -1.839549    2.905393   -0.844794
     24          6           0        2.344887   -1.700297    3.227443
     25          6           0        7.094168   -1.958768    0.899791
     26          6           0       -3.030831    2.420107   -1.145300
     27          6           0       -1.077768   -1.679288    2.455897
     28          6           0       -3.058790    1.017684   -0.841924
     29          6           0       -1.213145    4.364999   -0.859545
     30          6           0        8.070838   -1.006028   -2.054107
     31          6           0       -1.397124    5.075351    0.357901
     32          6           0       -4.206859    3.202273   -1.829297
     33          6           0       -4.157898    0.204129   -1.185858
     34          6           0       -2.543118   -1.658400    2.980978
     35          6           0       -3.921323   -1.273682   -1.122407
     36          6           0        9.255724   -0.897688   -1.518336
     37          6           0       -0.739996    6.402840    0.413611
     38          6           0       -5.074714   -2.291974   -1.430344
     39          6           0       -4.487036   -3.402473   -1.069696
     40          6           0       -3.048605   -3.168926   -0.487464
     41          6           0       -6.234008   -1.928916   -2.067601
     42          6           0       -4.987590   -4.862117   -1.204050
     43          6           0       -7.061020   -2.868471   -2.507956
     44          1           0        4.350404   -2.373868    0.089957
     45          1           0        5.212870    0.576841    1.072778
     46          1           0        5.011245   -0.892385    2.007057
     47          1           0        2.781726    1.445353   -0.207994
     48          1           0        3.545080   -0.710459   -1.327367
     49          1           0       -0.318700   -0.049127    3.593456
     50          1           0       -1.291590    0.593244    2.142056
     51          1           0        0.529944    2.831400   -0.348759
     52          1           0        3.413348   -2.082683    3.279229
     53          1           0        2.129594   -1.419042    4.294936
     54          1           0        1.640816   -2.662495    2.873920
     55          1           0        6.322499   -2.625683    1.439517
     56          1           0        7.383974   -1.095310    1.645431
     57          1           0        8.129943   -2.533584    0.667700
     58          1           0       -1.309993   -1.774408    1.353818
     59          1           0       -0.640956   -2.617503    2.835924
     60          1           0       -1.827330   -0.353058   -0.150087
     61          1           0       -1.537296    5.073466   -1.728781
     62          1           0       -0.089659    4.558246   -0.967808
     63          1           0        7.891824   -0.987502   -3.176888
     64          1           0       -1.032924    4.578905    1.306387
     65          1           0       -2.484569    5.323006    0.805773
     66          1           0       -3.799076    4.308673   -1.746668
     67          1           0       -5.117077    2.938312   -1.249262
     68          1           0       -4.318424    2.887415   -2.857923
     69          1           0       -4.992094    0.664475   -1.794796
     70          1           0        9.251824   -1.061329   -0.498056
     71          1           0        9.998464   -0.485400   -2.219883
     72          1           0       -4.093257   -2.590473    3.234892
     73          1           0       -6.756648   -0.797397   -2.272827
     74          1           0       -5.125589   -5.226816   -2.221344
     75          1           0       -4.045048   -5.505058   -0.869425
     76          1           0       -5.859852   -5.051426   -0.445681
     77          1           0       -0.611488    7.968218    1.224005
     78          1           0       -7.980260   -2.609834   -2.983856
     79          1           0       -6.930982   -3.935427   -2.444088
 ---------------------------------------------------------------------

 SCF Done:  E(RB3LYP) =  -1947.82503320     A.U. after   16 cycles

 Excitation energies and oscillator strengths:

 Excited State   1:      Singlet-A      2.2731 eV  545.45 nm  f=0.3678  <S**2>=0.000
     155 ->156         0.70095
 This state for optimization and/or second-order correction.
 Total Energy, E(TD-HF/TD-KS) =  -1947.74149896
 Copying the excited state density for this state as the 1-particle RhoCI density.

 The electronic state is 1-A.
 Alpha  occ. eigenvalues --  -19.20086 -19.17279 -19.13767 -19.11304 -19.10947
 Alpha  occ. eigenvalues --  -19.10411 -14.38671 -14.36437 -14.33154 -14.30612
 Alpha  occ. eigenvalues --  -10.32978 -10.30333 -10.28646 -10.27484 -10.25240
 Alpha  occ. eigenvalues --  -10.25127 -10.24190 -10.24184 -10.23790 -10.23234
 Alpha  occ. eigenvalues --  -10.23078 -10.22867 -10.22623 -10.22457 -10.22362
 Alpha  occ. eigenvalues --  -10.21992 -10.21688 -10.21387 -10.21142 -10.21107
 Alpha  occ. eigenvalues --  -10.20416 -10.20374 -10.20101 -10.19716 -10.19702
 Alpha  occ. eigenvalues --  -10.19606 -10.19581 -10.19549 -10.19505 -10.19454
 Alpha  occ. eigenvalues --  -10.19414 -10.18831 -10.18404  -1.13103  -1.08064
 Alpha  occ. eigenvalues --   -1.05352  -1.02500  -1.01751  -0.98420  -0.97845
 Alpha  occ. eigenvalues --   -0.97237  -0.94834  -0.93375  -0.84314  -0.83438
 Alpha  occ. eigenvalues --   -0.82453  -0.82267  -0.81421  -0.80525  -0.79084
 Alpha  occ. eigenvalues --   -0.77483  -0.76000  -0.75522  -0.74542  -0.72554
 Alpha  occ. eigenvalues --   -0.71750  -0.70705  -0.69587  -0.69102  -0.68526
 Alpha  occ. eigenvalues --   -0.66153  -0.65411  -0.64081  -0.62486  -0.60676
 Alpha  occ. eigenvalues --   -0.60327  -0.59093  -0.58029  -0.57526  -0.57321
 Alpha  occ. eigenvalues --   -0.56209  -0.55506  -0.54709  -0.53196  -0.53032
 Alpha  occ. eigenvalues --   -0.52203  -0.51961  -0.51320  -0.50638  -0.50355
 Alpha  occ. eigenvalues --   -0.49636  -0.49477  -0.48711  -0.48109  -0.47545
 Alpha  occ. eigenvalues --   -0.47433  -0.47085  -0.46654  -0.46273  -0.45825
 Alpha  occ. eigenvalues --   -0.45533  -0.44764  -0.44139  -0.44042  -0.43755
 Alpha  occ. eigenvalues --   -0.43479  -0.43208  -0.42980  -0.42963  -0.42710
 Alpha  occ. eigenvalues --   -0.42509  -0.42457  -0.41954  -0.41919  -0.41467
 Alpha  occ. eigenvalues --   -0.41055  -0.40910  -0.40377  -0.40269  -0.40082
 Alpha  occ. eigenvalues --   -0.39962  -0.39483  -0.39220  -0.39009  -0.38764
 Alpha  occ. eigenvalues --   -0.37833  -0.37700  -0.37468  -0.37235  -0.36875
 Alpha  occ. eigenvalues --   -0.35636  -0.35354  -0.34671  -0.34310  -0.34167
 Alpha  occ. eigenvalues --   -0.33694  -0.33649  -0.33419  -0.32749  -0.32398
 Alpha  occ. eigenvalues --   -0.30648  -0.30484  -0.30049  -0.29823  -0.28089
 Alpha  occ. eigenvalues --   -0.27790  -0.26482  -0.26377  -0.26201  -0.24928
 Alpha  occ. eigenvalues --   -0.24758  -0.24589  -0.23642  -0.22970  -0.19961
 Alpha virt. eigenvalues --   -0.10515  -0.05794  -0.04727  -0.01516  -0.00986
 Alpha virt. eigenvalues --    0.00240   0.02093   0.02315   0.02615   0.02677
 Alpha virt. eigenvalues --    0.03668   0.03888   0.04316   0.04803   0.05193

 Mulliken charges:
               1
     1  O   -0.142717
     2  O   -0.216857
     3  O   -0.256056
     4  O   -0.133083
     5  O   -0.245246
     6  O   -0.198195
     7  N   -0.124765
     8  N   -0.122015
     9  N   -0.087936
    10  N   -0.272732
    11  C    0.056779
    12  C    0.103516
    13  C   -0.001409
    14  C   -0.103078
    15  C   -0.053751
    16  C    0.036255
    17  C   -0.136201
    18  C    0.015775
    19  C   -0.089874
    20  C   -0.067318
    21  C    0.040268
    22  C    0.165907
    23  C    0.038726
    24  C    0.000625
    25  C   -0.017692
    26  C   -0.173397
    27  C    0.034353
    28  C    0.099319
    29  C    0.027519
    30  C   -0.037935
    31  C   -0.052502
    32  C    0.086574
    33  C   -0.114242
    34  C    0.112153
    35  C    0.051051
    36  C    0.044090
    37  C    0.107075
    38  C    0.139230
    39  C   -0.244520
    40  C    0.182814
    41  C   -0.105820
    42  C    0.015501
    43  C   -0.019073
    44  H    0.021682
    45  H    0.024457
    46  H   -0.017056
    47  H    0.130290
    48  H    0.012723
    49  H   -0.000740
    50  H    0.069842
    51  H   -0.004751
    52  H    0.008041
    53  H    0.039962
    54  H    0.051869
    55  H    0.037865
    56  H    0.062198
    57  H    0.061068
    58  H    0.065893
    59  H    0.040449
    60  H    0.144364
    61  H    0.040578
    62  H    0.047946
    63  H    0.016188
    64  H    0.042506
    65  H    0.052146
    66  H    0.043260
    67  H    0.045007
    68  H    0.040534
    69  H    0.004553
    70  H   -0.024906
    71  H    0.039569
    72  H    0.215453
    73  H    0.043947
    74  H    0.036793
    75  H    0.038666
    76  H    0.048562
    77  H    0.168256
    78  H    0.003019
    79  H    0.008651
 Sum of Mulliken charges =   0.00000

 Dipole moment (field-independent basis, Debye):
    X=             -0.4184    Y=              4.2005    Z=              2.0682  Tot=              4.7007
 Quadrupole moment (field-independent basis, Debye-Ang):
   XX=           -226.6711   YY=           -247.4305   ZZ=           -266.6677
   XY=             -7.8999   XZ=             37.3754   YZ=              1.6295

 Normal termination of Gaussian 09 at Wed Jul 10 21:54:05 2019.
