 Gaussian 09, Revision D.01,
 Gaussian 09:  ES64L-G09RevD.01 24-Apr-2013

 --------------------------
 # td=(NStates=1) B3LYP/SVP
 --------------------------

 --
 TD
 --
 Symbolic Z-matrix:
 Charge =  0 Multiplicity = 1

                         Standard orientation:
 ---------------------------------------------------------------------
 Center     Atomic      Atomic             Coordinates (Angstroms)
 Number     Number       Type             X           Y           Z
 ---------------------------------------------------------------------
      1          8           0        5.482614   -0.061820   -3.385622
      2          8           0       -2.737573   -3.341053    3.274780
      3          8           0       -3.199149   -1.039213    3.158858
      4          8           0       -1.405027    7.224001    1.622831
      5          8           0       -0.894968    7.038357   -0.617160
      6          8           0       -1.904974   -4.031310   -0.112602
      7          7           0        2.361147    1.001180    0.460909
      8          7           0        4.392900   -0.637240   -1.335314
      9          7           0       -1.862952    0.706835   -0.454067
     10          7           0       -2.721559   -1.818411   -0.519022
     11          6           0        4.882088   -1.199546   -0.132990
     12          6           0        4.525481   -0.267026    1.143574
     13          6           0        2.958078   -0.123748    1.267365
     14          6           0        2.030828   -0.576380    2.083474
     15          6           0        0.790056   -0.088664    1.733791
     16          6           0        0.947756    0.849435    0.739813
     17          6           0        6.360323   -1.376549   -0.266037
     18          6           0       -0.544558   -0.342027    2.471142
     19          6           0        6.742624   -0.899275   -1.428237
     20          6           0        0.144986    1.896460    0.188525
     21          6           0       -1.079278    1.817488   -0.313555
     22          6           0        5.471980   -0.427339   -2.249933
     23          6           0       -2.056968    2.916753   -0.715130
     24          6           0        2.319068   -1.587638    3.387577
     25          6           0        7.184776   -2.109491    0.748170
     26          6           0       -3.218803    2.466589   -1.159802
     27          6           0       -1.041640   -1.806092    2.529557
     28          6           0       -3.166608    0.985089   -0.941789
     29          6           0       -1.644619    4.450679   -0.774480
     30          6           0        8.029140   -0.781168   -2.011609
     31          6           0       -1.483819    4.977831    0.715238
     32          6           0       -4.424122    3.003413   -1.735802
     33          6           0       -4.078713   -0.048808   -1.223302
     34          6           0       -2.439234   -2.003789    2.926056
     35          6           0       -3.817539   -1.383458   -1.011630
     36          6           0        9.231138   -0.551419   -1.383106
     37          6           0       -1.176513    6.496904    0.514001
     38          6           0       -4.722843   -2.536243   -1.488224
     39          6           0       -4.102038   -3.701054   -1.087288
     40          6           0       -2.751389   -3.262800   -0.467234
     41          6           0       -6.107504   -2.258175   -2.113786
     42          6           0       -4.461904   -5.035571   -1.119989
     43          6           0       -6.896737   -3.062554   -2.800406
     44          1           0        4.494506   -2.229365   -0.056771
     45          1           0        4.987561    0.684718    0.907398
     46          1           0        4.992636   -0.888618    2.118677
     47          1           0        2.759625    1.393834   -0.364556
     48          1           0        3.458671   -0.535807   -1.521142
     49          1           0       -0.458329   -0.061591    3.580804
     50          1           0       -1.414188    0.222276    2.100602
     51          1           0        0.695098    2.890472    0.036166
     52          1           0        3.427917   -1.669029    3.550661
     53          1           0        1.725020   -1.398436    4.239568
     54          1           0        2.013218   -2.508248    3.142099
     55          1           0        6.352743   -2.892599    1.118199
     56          1           0        7.426276   -1.587968    1.641054
     57          1           0        8.053775   -2.397066    0.370833
     58          1           0       -0.925052   -2.210481    1.392842
     59          1           0       -0.496363   -2.607195    3.148140
     60          1           0       -1.836220   -0.281676   -0.199990
     61          1           0       -2.406253    5.001325   -1.488031
     62          1           0       -0.560818    4.708595   -1.233990
     63          1           0        8.316841   -0.731456   -3.160713
     64          1           0       -0.613235    4.482505    1.295808
     65          1           0       -2.468290    4.944217    1.424579
     66          1           0       -4.266533    4.061052   -1.920933
     67          1           0       -5.365078    2.798204   -0.912147
     68          1           0       -4.891371    2.684590   -2.730041
     69          1           0       -4.938252    0.334290   -1.578993
     70          1           0        9.187826   -0.743770   -0.285299
     71          1           0       10.197267   -0.285451   -1.858549
     72          1           0       -3.665556   -3.137578    3.326073
     73          1           0       -6.475504   -1.236573   -1.928347
     74          1           0       -4.263053   -5.189961   -2.160078
     75          1           0       -3.979942   -5.779709   -0.694569
     76          1           0       -5.609002   -5.133117   -1.039350
     77          1           0       -1.242002    8.374179    1.240726
     78          1           0       -7.849175   -2.717712   -3.089959
     79          1           0       -6.699862   -4.026040   -3.150720
 ---------------------------------------------------------------------

 SCF Done:  E(RB3LYP) =  -1947.80386696     A.U. after   16 cycles

 Excitation energies and oscillator strengths:

 Excited State   1:      Singlet-A      2.3139 eV  535.83 nm  f=0.4306  <S**2>=0.000
     155 ->156         0.69780
 This state for optimization and/or second-order correction.
 Total Energy, E(TD-HF/TD-KS) =  -1947.71883324
 Copying the excited state density for this state as the 1-particle RhoCI density.

 The electronic state is 1-A.
 Alpha  occ. eigenvalues --  -19.20825 -19.17481 -19.13162 -19.12521 -19.12320
 Alpha  occ. eigenvalues --  -19.11092 -14.37060 -14.35676 -14.35169 -14.29596
 Alpha  occ. eigenvalues --  -10.33305 -10.31568 -10.29421 -10.27968 -10.25012
 Alpha  occ. eigenvalues --  -10.24389 -10.24379 -10.24095 -10.23554 -10.23418
 Alpha  occ. eigenvalues --  -10.23203 -10.23188 -10.22956 -10.22086 -10.22014
 Alpha  occ. eigenvalues --  -10.21299 -10.21139 -10.20996 -10.20800 -10.20528
 Alpha  occ. eigenvalues --  -10.20519 -10.20436 -10.20229 -10.20216 -10.20122
 Alpha  occ. eigenvalues --  -10.19846 -10.19744 -10.19631 -10.19555 -10.19457
 Alpha  occ. eigenvalues --  -10.18521 -10.18217 -10.18026  -1.07672  -1.07536
 Alpha  occ. eigenvalues --   -1.03800  -1.03669  -0.98856  -0.97580  -0.97426
 Alpha  occ. eigenvalues --   -0.95429  -0.94595  -0.93175  -0.83082  -0.82536
 Alpha  occ. eigenvalues --   -0.81824  -0.81094  -0.80804  -0.78418  -0.77477
 Alpha  occ. eigenvalues --   -0.76957  -0.76720  -0.76167  -0.74501  -0.72140
 Alpha  occ. eigenvalues --   -0.72023  -0.71274  -0.70316  -0.69319  -0.67249
 Alpha  occ. eigenvalues --   -0.66372  -0.65306  -0.63910  -0.61500  -0.60976
 Alpha  occ. eigenvalues --   -0.59345  -0.58273  -0.57907  -0.57511  -0.55836
 Alpha  occ. eigenvalues --   -0.55397  -0.55126  -0.54343  -0.53779  -0.53244
 Alpha  occ. eigenvalues --   -0.52714  -0.51374  -0.50310  -0.49775  -0.49107
 Alpha  occ. eigenvalues --   -0.48621  -0.48443  -0.48362  -0.47980  -0.47797
 Alpha  occ. eigenvalues --   -0.47139  -0.46937  -0.46727  -0.46177  -0.45675
 Alpha  occ. eigenvalues --   -0.44997  -0.44944  -0.44649  -0.44432  -0.44208
 Alpha  occ. eigenvalues --   -0.44052  -0.43734  -0.43403  -0.42680  -0.42494
 Alpha  occ. eigenvalues --   -0.42406  -0.41868  -0.41762  -0.41292  -0.40937
 Alpha  occ. eigenvalues --   -0.40929  -0.40596  -0.40175  -0.40083  -0.39988
 Alpha  occ. eigenvalues --   -0.39582  -0.39498  -0.39188  -0.38969  -0.38849
 Alpha  occ. eigenvalues --   -0.38491  -0.38261  -0.37455  -0.37338  -0.36902
 Alpha  occ. eigenvalues --   -0.35879  -0.35749  -0.35556  -0.35191  -0.35075
 Alpha  occ. eigenvalues --   -0.34412  -0.34024  -0.32755  -0.31611  -0.31273
 Alpha  occ. eigenvalues --   -0.30834  -0.30712  -0.29259  -0.28562  -0.28472
 Alpha  occ. eigenvalues --   -0.27516  -0.26734  -0.26326  -0.26249  -0.25745
 Alpha  occ. eigenvalues --   -0.24487  -0.24293  -0.23691  -0.22622  -0.19652
 Alpha virt. eigenvalues --   -0.10345  -0.05764  -0.04835  -0.03078  -0.01857
 Alpha virt. eigenvalues --   -0.00947  -0.00528   0.00567   0.00966   0.02873
 Alpha virt. eigenvalues --    0.03030   0.03994   0.04724   0.04997   0.05219

 Mulliken charges:
               1
     1  O   -0.170575
     2  O   -0.195875
     3  O   -0.269110
     4  O   -0.266323
     5  O   -0.307810
     6  O   -0.165970
     7  N   -0.210794
     8  N   -0.200846
     9  N   -0.102917
    10  N   -0.284570
    11  C    0.061242
    12  C    0.141402
    13  C   -0.034261
    14  C   -0.122424
    15  C   -0.059035
    16  C    0.094045
    17  C   -0.182863
    18  C    0.090972
    19  C   -0.003921
    20  C   -0.154435
    21  C    0.177576
    22  C    0.181937
    23  C   -0.074991
    24  C    0.165185
    25  C    0.168010
    26  C   -0.023777
    27  C   -0.093097
    28  C    0.011479
    29  C   -0.016713
    30  C   -0.102805
    31  C   -0.076741
    32  C    0.012060
    33  C   -0.029593
    34  C    0.174682
    35  C    0.133719
    36  C   -0.067440
    37  C    0.197620
    38  C    0.018628
    39  C   -0.212256
    40  C    0.169359
    41  C   -0.009438
    42  C    0.166587
    43  C    0.005336
    44  H    0.017206
    45  H   -0.001061
    46  H    0.034875
    47  H    0.112691
    48  H    0.098446
    49  H    0.017121
    50  H    0.023801
    51  H    0.018679
    52  H    0.009356
    53  H    0.006658
    54  H   -0.011121
    55  H    0.029440
    56  H    0.018343
    57  H   -0.006116
    58  H    0.099213
    59  H    0.043147
    60  H    0.134872
    61  H    0.055301
    62  H    0.062943
    63  H    0.036996
    64  H    0.078335
    65  H    0.075240
    66  H    0.001735
    67  H    0.055569
    68  H    0.053747
    69  H   -0.096827
    70  H    0.001992
    71  H    0.041161
    72  H    0.153627
    73  H    0.002533
    74  H    0.022807
    75  H   -0.025958
    76  H    0.031175
    77  H    0.269683
    78  H    0.006828
    79  H   -0.003696
 Sum of Mulliken charges =   0.00000

 Dipole moment (field-independent basis, Debye):
    X=             -0.8902    Y=              1.6761    Z=              2.3977  Tot=              3.0579
 Quadrupole moment (field-independent basis, Debye-Ang):
   XX=           -223.8763   YY=           -240.1429   ZZ=           -266.9802
   XY=             -8.5130   XZ=             32.9552   YZ=              7.4192

 Normal termination of Gaussian 09 at Mon Jul  8 10:17:07 2019.
