 Gaussian 09, Revision D.01,
 Gaussian 09:  ES64L-G09RevD.01 24-Apr-2013

 --------------------------
 # td=(NStates=1) B3LYP/SVP
 --------------------------

 --
 TD
 --
 Symbolic Z-matrix:
 Charge =  0 Multiplicity = 1

                         Standard orientation:
 ---------------------------------------------------------------------
 Center     Atomic      Atomic             Coordinates (Angstroms)
 Number     Number       Type             X           Y           Z
 ---------------------------------------------------------------------
      1          8           0        5.249755   -0.327068   -3.296278
      2          8           0       -3.072178   -3.052030    3.063227
      3          8           0       -3.227486   -0.801033    3.372917
      4          8           0       -1.791936    7.086587    1.469019
      5          8           0       -0.809375    7.123786   -0.484640
      6          8           0       -1.738477   -3.987563   -0.057314
      7          7           0        2.370094    0.954649    0.537679
      8          7           0        4.388089   -0.599838   -1.218917
      9          7           0       -1.855135    0.602882   -0.416234
     10          7           0       -2.575900   -1.914566   -0.597044
     11          6           0        4.931489   -1.070709    0.026552
     12          6           0        4.496287   -0.199094    1.270207
     13          6           0        2.995417    0.021104    1.345071
     14          6           0        2.070874   -0.580934    2.222649
     15          6           0        0.702119    0.026118    1.873880
     16          6           0        0.961259    0.902335    0.753683
     17          6           0        6.450687   -1.141088   -0.093456
     18          6           0       -0.500976   -0.288685    2.554007
     19          6           0        6.710390   -0.813237   -1.340237
     20          6           0        0.149914    1.913999    0.098651
     21          6           0       -1.176825    1.818345   -0.320163
     22          6           0        5.506010   -0.602752   -2.128472
     23          6           0       -2.005271    2.888863   -0.872567
     24          6           0        2.197816   -1.665496    3.225355
     25          6           0        7.338430   -1.633319    1.042618
     26          6           0       -3.139359    2.339903   -1.363505
     27          6           0       -1.119032   -1.666191    2.519229
     28          6           0       -3.057656    0.893277   -1.077414
     29          6           0       -1.547270    4.304856   -1.067591
     30          6           0        8.016061   -0.812166   -2.084934
     31          6           0       -1.786889    5.039378    0.262973
     32          6           0       -4.351684    3.003801   -1.873283
     33          6           0       -3.992095   -0.064315   -1.329094
     34          6           0       -2.525750   -1.693634    3.049366
     35          6           0       -3.779594   -1.488530   -1.090913
     36          6           0        9.252162   -0.835199   -1.669032
     37          6           0       -1.418912    6.549075    0.363128
     38          6           0       -4.677863   -2.578170   -1.408061
     39          6           0       -3.927604   -3.733592   -1.094405
     40          6           0       -2.614940   -3.309786   -0.516493
     41          6           0       -6.097446   -2.479015   -1.953764
     42          6           0       -4.370829   -5.189621   -1.085630
     43          6           0       -6.735358   -3.421000   -2.462849
     44          1           0        4.768683   -2.062319    0.311583
     45          1           0        4.917763    0.932749    1.201918
     46          1           0        4.863132   -0.559646    2.239425
     47          1           0        2.645633    1.583313   -0.286680
     48          1           0        3.511167   -0.891493   -1.597223
     49          1           0       -0.330465    0.124743    3.673795
     50          1           0       -1.040686    0.507152    1.986177
     51          1           0        0.594700    2.878006   -0.144813
     52          1           0        3.313463   -1.710918    3.300306
     53          1           0        1.712754   -1.659745    4.204218
     54          1           0        1.833809   -2.561866    2.792842
     55          1           0        6.725815   -2.341336    1.604261
     56          1           0        7.832993   -0.935451    1.583850
     57          1           0        8.311345   -2.105189    0.600428
     58          1           0       -1.144001   -2.121405    1.349071
     59          1           0       -0.739349   -2.589710    3.157120
     60          1           0       -1.579604   -0.434418   -0.358276
     61          1           0       -2.135293    4.769530   -1.798852
     62          1           0       -0.439833    4.415944   -1.540332
     63          1           0        7.852730   -0.823987   -3.174599
     64          1           0       -0.991647    4.718923    1.105489
     65          1           0       -2.860325    4.962453    0.661706
     66          1           0       -4.269333    4.000732   -1.864202
     67          1           0       -5.186287    2.768594   -1.187017
     68          1           0       -4.635362    2.698924   -2.856229
     69          1           0       -4.910607    0.221516   -1.882698
     70          1           0        9.531186   -0.911373   -0.556734
     71          1           0       10.293734   -0.617601   -2.031543
     72          1           0       -4.158229   -2.492164    3.379975
     73          1           0       -6.670894   -1.498340   -1.774174
     74          1           0       -4.232880   -5.651161   -2.242047
     75          1           0       -3.466818   -5.837717   -0.536681
     76          1           0       -5.395129   -5.243790   -0.723826
     77          1           0       -1.331738    8.154576    1.595139
     78          1           0       -7.615405   -3.361243   -2.997707
     79          1           0       -6.468850   -4.576734   -2.520543
 ---------------------------------------------------------------------

 SCF Done:  E(RB3LYP) =  -1947.80585961     A.U. after   16 cycles

 Excitation energies and oscillator strengths:

 Excited State   1:      Singlet-A      1.9872 eV  623.91 nm  f=0.3735  <S**2>=0.000
     154 ->156         0.12581
     155 ->156         0.69391
     155 <-156        -0.11705
 This state for optimization and/or second-order correction.
 Total Energy, E(TD-HF/TD-KS) =  -1947.73283144
 Copying the excited state density for this state as the 1-particle RhoCI density.

 The electronic state is 1-A.
 Alpha  occ. eigenvalues --  -19.19974 -19.15440 -19.12941 -19.11711 -19.10846
 Alpha  occ. eigenvalues --  -19.10572 -14.38015 -14.35885 -14.34764 -14.28695
 Alpha  occ. eigenvalues --  -10.31571 -10.30408 -10.28876 -10.26290 -10.24440
 Alpha  occ. eigenvalues --  -10.24181 -10.24135 -10.23775 -10.23424 -10.23048
 Alpha  occ. eigenvalues --  -10.22848 -10.22822 -10.22406 -10.21908 -10.21716
 Alpha  occ. eigenvalues --  -10.21564 -10.21179 -10.21113 -10.20906 -10.20869
 Alpha  occ. eigenvalues --  -10.20769 -10.20670 -10.20526 -10.20503 -10.20250
 Alpha  occ. eigenvalues --  -10.20220 -10.19764 -10.19460 -10.19323 -10.19261
 Alpha  occ. eigenvalues --  -10.19045 -10.19018 -10.18604  -1.10800  -1.07132
 Alpha  occ. eigenvalues --   -1.02615  -1.02542  -1.00626  -0.96908  -0.95928
 Alpha  occ. eigenvalues --   -0.94546  -0.93736  -0.91342  -0.83182  -0.83142
 Alpha  occ. eigenvalues --   -0.81396  -0.80708  -0.80308  -0.79121  -0.77511
 Alpha  occ. eigenvalues --   -0.77090  -0.75528  -0.75146  -0.74531  -0.73270
 Alpha  occ. eigenvalues --   -0.72756  -0.71347  -0.69743  -0.68720  -0.68176
 Alpha  occ. eigenvalues --   -0.66265  -0.65198  -0.63279  -0.60556  -0.59770
 Alpha  occ. eigenvalues --   -0.59184  -0.59009  -0.57898  -0.56441  -0.55859
 Alpha  occ. eigenvalues --   -0.55576  -0.54243  -0.54112  -0.53057  -0.52640
 Alpha  occ. eigenvalues --   -0.51882  -0.51503  -0.50265  -0.49847  -0.49461
 Alpha  occ. eigenvalues --   -0.48536  -0.47876  -0.47566  -0.47262  -0.46926
 Alpha  occ. eigenvalues --   -0.46896  -0.46664  -0.46087  -0.45783  -0.45705
 Alpha  occ. eigenvalues --   -0.45231  -0.45087  -0.44209  -0.44141  -0.43857
 Alpha  occ. eigenvalues --   -0.43800  -0.43242  -0.43028  -0.42888  -0.42511
 Alpha  occ. eigenvalues --   -0.42339  -0.41720  -0.41607  -0.41545  -0.41118
 Alpha  occ. eigenvalues --   -0.40807  -0.40489  -0.40285  -0.40158  -0.40019
 Alpha  occ. eigenvalues --   -0.39840  -0.39479  -0.39308  -0.38767  -0.38551
 Alpha  occ. eigenvalues --   -0.38250  -0.37760  -0.37310  -0.36552  -0.36154
 Alpha  occ. eigenvalues --   -0.36139  -0.35661  -0.35269  -0.34968  -0.33739
 Alpha  occ. eigenvalues --   -0.33192  -0.33058  -0.32515  -0.31779  -0.30579
 Alpha  occ. eigenvalues --   -0.30163  -0.29184  -0.28692  -0.27858  -0.27638
 Alpha  occ. eigenvalues --   -0.27323  -0.26915  -0.26210  -0.25878  -0.25523
 Alpha  occ. eigenvalues --   -0.24252  -0.23872  -0.22827  -0.22114  -0.18711
 Alpha virt. eigenvalues --   -0.10961  -0.06231  -0.05815  -0.02093  -0.00027
 Alpha virt. eigenvalues --    0.00384   0.00713   0.01323   0.01458   0.02364
 Alpha virt. eigenvalues --    0.02921   0.03512   0.04061   0.04242   0.05161

 Mulliken charges:
               1
     1  O   -0.216243
     2  O   -0.369864
     3  O   -0.207833
     4  O   -0.226315
     5  O   -0.221831
     6  O   -0.176187
     7  N   -0.136670
     8  N   -0.187166
     9  N   -0.131585
    10  N   -0.336252
    11  C    0.128486
    12  C    0.117466
    13  C   -0.047078
    14  C   -0.152708
    15  C   -0.112812
    16  C    0.080055
    17  C   -0.181972
    18  C    0.088756
    19  C   -0.052073
    20  C   -0.107822
    21  C    0.090923
    22  C    0.143449
    23  C   -0.083069
    24  C    0.130559
    25  C    0.135383
    26  C   -0.132860
    27  C   -0.081637
    28  C    0.126231
    29  C    0.118687
    30  C    0.059834
    31  C   -0.081645
    32  C    0.199017
    33  C   -0.130968
    34  C    0.185439
    35  C    0.085442
    36  C   -0.093642
    37  C    0.095827
    38  C    0.028178
    39  C   -0.201145
    40  C    0.175266
    41  C    0.029577
    42  C   -0.011603
    43  C   -0.053873
    44  H   -0.007906
    45  H    0.013855
    46  H    0.000848
    47  H    0.153920
    48  H    0.130584
    49  H    0.033003
    50  H    0.018162
    51  H   -0.017253
    52  H   -0.010128
    53  H    0.019524
    54  H    0.021895
    55  H    0.030070
    56  H    0.011404
    57  H    0.040117
    58  H    0.130487
    59  H    0.058041
    60  H    0.180126
    61  H   -0.010561
    62  H    0.055262
    63  H    0.016328
    64  H    0.063631
    65  H    0.056806
    66  H   -0.034805
    67  H    0.027670
    68  H    0.016493
    69  H   -0.024100
    70  H   -0.007781
    71  H    0.039312
    72  H    0.237281
    73  H    0.019458
    74  H    0.049803
    75  H    0.064377
    76  H    0.050913
    77  H    0.263798
    78  H   -0.004788
    79  H    0.030434
 Sum of Mulliken charges =   0.00000

 Dipole moment (field-independent basis, Debye):
    X=              0.8924    Y=              3.3148    Z=              2.5010  Tot=              4.2473
 Quadrupole moment (field-independent basis, Debye-Ang):
   XX=           -206.5911   YY=           -245.9599   ZZ=           -265.8390
   XY=            -13.5212   XZ=             36.7966   YZ=             10.6974

 Normal termination of Gaussian 09 at Mon Jul  8 06:41:22 2019.
