 Gaussian 09, Revision D.01,
 Gaussian 09:  ES64L-G09RevD.01 24-Apr-2013

 --------------------------
 # td=(NStates=1) B3LYP/SVP
 --------------------------

 --
 TD
 --
 Symbolic Z-matrix:
 Charge =  0 Multiplicity = 1

                         Standard orientation:
 ---------------------------------------------------------------------
 Center     Atomic      Atomic             Coordinates (Angstroms)
 Number     Number       Type             X           Y           Z
 ---------------------------------------------------------------------
      1          8           0        5.403249    0.138783   -3.258253
      2          8           0       -3.015296   -3.184182    3.343858
      3          8           0       -3.359836   -0.926155    3.283392
      4          8           0       -1.625684    7.207077    1.580221
      5          8           0       -0.266641    6.944127   -0.058633
      6          8           0       -1.956133   -4.053576   -0.215995
      7          7           0        2.449754    0.796891    0.750611
      8          7           0        4.397430   -0.559910   -1.229725
      9          7           0       -1.882722    0.680856   -0.448021
     10          7           0       -2.762693   -1.846182   -0.621178
     11          6           0        4.827192   -1.397870   -0.084601
     12          6           0        4.360462   -0.774368    1.218935
     13          6           0        2.897829   -0.344481    1.370445
     14          6           0        1.956234   -0.914296    2.121498
     15          6           0        0.637138   -0.262907    1.876273
     16          6           0        1.027807    0.866451    0.969718
     17          6           0        6.365980   -1.420123   -0.207483
     18          6           0       -0.638937   -0.463711    2.604860
     19          6           0        6.684301   -0.815796   -1.407150
     20          6           0        0.294626    1.856047    0.274227
     21          6           0       -1.025566    1.835497   -0.354981
     22          6           0        5.419902   -0.287697   -2.119422
     23          6           0       -1.784784    2.972058   -0.797671
     24          6           0        2.054795   -2.011175    3.126815
     25          6           0        7.280021   -2.065883    0.831498
     26          6           0       -2.927937    2.438300   -1.359944
     27          6           0       -1.172841   -1.851406    2.586019
     28          6           0       -2.968362    1.077963   -1.084200
     29          6           0       -1.364616    4.383981   -0.766270
     30          6           0        8.020137   -0.572590   -2.131456
     31          6           0       -1.622571    5.045781    0.514784
     32          6           0       -4.081601    3.317323   -1.846654
     33          6           0       -4.002324    0.071661   -1.386397
     34          6           0       -2.657652   -1.868098    3.088138
     35          6           0       -3.797576   -1.340070   -1.112914
     36          6           0        9.328781   -0.677317   -1.685204
     37          6           0       -1.075988    6.517962    0.622859
     38          6           0       -4.868193   -2.341439   -1.584068
     39          6           0       -4.182079   -3.563424   -1.291087
     40          6           0       -2.862780   -3.260448   -0.657197
     41          6           0       -6.055978   -2.028807   -2.141041
     42          6           0       -4.676132   -4.956481   -1.413838
     43          6           0       -6.886361   -2.821801   -2.795089
     44          1           0        4.334874   -2.313991   -0.175151
     45          1           0        4.934422    0.161987    1.298000
     46          1           0        4.549277   -1.511026    2.237069
     47          1           0        2.848039    1.038613   -0.203090
     48          1           0        3.360548   -0.690578   -1.558758
     49          1           0       -0.446818   -0.036279    3.604585
     50          1           0       -1.340015    0.408925    2.404598
     51          1           0        0.934068    2.669130    0.169722
     52          1           0        3.206572   -2.227880    3.306873
     53          1           0        1.477249   -1.764796    4.180678
     54          1           0        1.696033   -2.995106    2.687223
     55          1           0        6.711207   -3.122952    1.321412
     56          1           0        7.484120   -1.554397    1.925183
     57          1           0        8.173197   -2.549841    0.369746
     58          1           0       -1.285166   -2.192102    1.506197
     59          1           0       -0.709032   -2.497079    2.983449
     60          1           0       -1.564533   -0.485032   -0.186246
     61          1           0       -1.874480    5.012357   -1.552187
     62          1           0       -0.146312    4.552806   -0.869819
     63          1           0        7.996665   -0.410062   -3.235923
     64          1           0       -1.369196    4.428021    1.536136
     65          1           0       -2.723684    5.234377    0.678368
     66          1           0       -3.902343    4.528241   -1.776159
     67          1           0       -5.029887    3.131131   -1.475813
     68          1           0       -4.253850    3.218858   -3.069177
     69          1           0       -4.957725    0.579964   -1.824798
     70          1           0        9.467117   -0.583340   -0.585012
     71          1           0       10.425544   -0.454320   -2.093331
     72          1           0       -3.913355   -2.933293    3.468468
     73          1           0       -6.496940   -1.021682   -2.263160
     74          1           0       -4.729369   -5.308842   -2.488045
     75          1           0       -3.776378   -5.416267   -0.969603
     76          1           0       -5.653485   -5.116712   -1.135655
     77          1           0       -1.156144    8.171320    1.597639
     78          1           0       -7.753018   -2.464959   -3.146994
     79          1           0       -6.384411   -4.052375   -3.101364
 ---------------------------------------------------------------------

 SCF Done:  E(RB3LYP) =  -1947.73567535     A.U. after   18 cycles

 Excitation energies and oscillator strengths:

 Excited State   1:      Singlet-A      1.9390 eV  639.43 nm  f=0.4820  <S**2>=0.000
     154 ->156         0.13875
     155 ->156         0.69831
     155 <-156        -0.13530
 This state for optimization and/or second-order correction.
 Total Energy, E(TD-HF/TD-KS) =  -1947.66441870
 Copying the excited state density for this state as the 1-particle RhoCI density.

 The electronic state is 1-A.
 Alpha  occ. eigenvalues --  -19.19225 -19.17214 -19.13430 -19.12846 -19.11669
 Alpha  occ. eigenvalues --  -19.10494 -14.38775 -14.37763 -14.36705 -14.29432
 Alpha  occ. eigenvalues --  -10.31706 -10.31673 -10.30284 -10.27088 -10.25881
 Alpha  occ. eigenvalues --  -10.24846 -10.24443 -10.24441 -10.24146 -10.23944
 Alpha  occ. eigenvalues --  -10.23725 -10.23361 -10.22893 -10.22761 -10.22568
 Alpha  occ. eigenvalues --  -10.22223 -10.22169 -10.22013 -10.21959 -10.21888
 Alpha  occ. eigenvalues --  -10.21873 -10.21410 -10.21296 -10.20514 -10.20206
 Alpha  occ. eigenvalues --  -10.20022 -10.19990 -10.19768 -10.19683 -10.19623
 Alpha  occ. eigenvalues --  -10.19129 -10.18284 -10.17468  -1.12812  -1.09920
 Alpha  occ. eigenvalues --   -1.03539  -1.02912  -1.01434  -0.98764  -0.98017
 Alpha  occ. eigenvalues --   -0.97722  -0.94905  -0.92751  -0.83115  -0.82261
 Alpha  occ. eigenvalues --   -0.81614  -0.81416  -0.81116  -0.78767  -0.77871
 Alpha  occ. eigenvalues --   -0.77672  -0.76374  -0.75296  -0.74188  -0.71752
 Alpha  occ. eigenvalues --   -0.70680  -0.70398  -0.69136  -0.68715  -0.67717
 Alpha  occ. eigenvalues --   -0.67342  -0.66019  -0.63276  -0.60899  -0.60819
 Alpha  occ. eigenvalues --   -0.59638  -0.58661  -0.58106  -0.57445  -0.56457
 Alpha  occ. eigenvalues --   -0.55547  -0.55231  -0.54596  -0.53957  -0.53318
 Alpha  occ. eigenvalues --   -0.52330  -0.52144  -0.51009  -0.50765  -0.50146
 Alpha  occ. eigenvalues --   -0.49679  -0.49229  -0.48850  -0.48292  -0.47934
 Alpha  occ. eigenvalues --   -0.47603  -0.47193  -0.46996  -0.46378  -0.45272
 Alpha  occ. eigenvalues --   -0.44943  -0.44802  -0.44384  -0.44235  -0.43965
 Alpha  occ. eigenvalues --   -0.43810  -0.43462  -0.43056  -0.42826  -0.42723
 Alpha  occ. eigenvalues --   -0.42352  -0.42327  -0.41873  -0.41387  -0.41301
 Alpha  occ. eigenvalues --   -0.40767  -0.40275  -0.40255  -0.40186  -0.39576
 Alpha  occ. eigenvalues --   -0.39295  -0.39225  -0.38929  -0.38663  -0.38211
 Alpha  occ. eigenvalues --   -0.37950  -0.37788  -0.37369  -0.37200  -0.36796
 Alpha  occ. eigenvalues --   -0.36394  -0.35549  -0.35178  -0.34008  -0.33733
 Alpha  occ. eigenvalues --   -0.33594  -0.33465  -0.32690  -0.32437  -0.32169
 Alpha  occ. eigenvalues --   -0.31556  -0.31106  -0.29321  -0.28802  -0.28480
 Alpha  occ. eigenvalues --   -0.28328  -0.27186  -0.26755  -0.25802  -0.25554
 Alpha  occ. eigenvalues --   -0.24996  -0.24279  -0.23703  -0.21627  -0.18630
 Alpha virt. eigenvalues --   -0.11228  -0.07465  -0.07028  -0.00937  -0.00597
 Alpha virt. eigenvalues --    0.00506   0.00984   0.01242   0.01434   0.01995
 Alpha virt. eigenvalues --    0.02757   0.02961   0.03285   0.04365   0.04553

 Mulliken charges:
               1
     1  O   -0.203479
     2  O   -0.169434
     3  O   -0.201164
     4  O   -0.197985
     5  O   -0.160364
     6  O   -0.275137
     7  N   -0.115035
     8  N   -0.267315
     9  N   -0.171509
    10  N   -0.228457
    11  C    0.122962
    12  C    0.128134
    13  C   -0.083499
    14  C   -0.126717
    15  C   -0.073706
    16  C    0.023078
    17  C   -0.085070
    18  C    0.063112
    19  C   -0.074041
    20  C   -0.060144
    21  C    0.093938
    22  C    0.184085
    23  C   -0.020590
    24  C    0.009332
    25  C   -0.040533
    26  C   -0.083662
    27  C    0.164618
    28  C    0.070988
    29  C    0.052397
    30  C   -0.007135
    31  C   -0.099218
    32  C    0.002475
    33  C   -0.142380
    34  C    0.117416
    35  C    0.080627
    36  C   -0.096480
    37  C    0.086501
    38  C    0.140421
    39  C   -0.235864
    40  C    0.199304
    41  C   -0.088766
    42  C    0.120781
    43  C   -0.042314
    44  H    0.005338
    45  H   -0.003950
    46  H    0.040310
    47  H    0.144455
    48  H    0.167185
    49  H    0.008628
    50  H    0.022099
    51  H   -0.024225
    52  H    0.007749
    53  H    0.060326
    54  H    0.058173
    55  H    0.025904
    56  H    0.076911
    57  H    0.056423
    58  H    0.070643
    59  H   -0.104840
    60  H    0.259598
    61  H    0.026932
    62  H    0.052076
    63  H    0.040242
    64  H    0.066240
    65  H    0.026867
    66  H    0.035507
    67  H    0.021122
    68  H    0.033045
    69  H    0.000882
    70  H    0.018683
    71  H    0.062495
    72  H    0.139241
    73  H   -0.010007
    74  H    0.020628
    75  H    0.031718
    76  H    0.003427
    77  H    0.224758
    78  H   -0.015512
    79  H    0.040755
 Sum of Mulliken charges =   0.00000

 Dipole moment (field-independent basis, Debye):
    X=              1.6709    Y=              3.1810    Z=              3.2069  Tot=              4.8161
 Quadrupole moment (field-independent basis, Debye-Ang):
   XX=           -223.8936   YY=           -249.1624   ZZ=           -262.9927
   XY=            -22.4216   XZ=             29.9445   YZ=              4.4064

 Normal termination of Gaussian 09 at Wed Jul 10 13:19:54 2019.
