 Gaussian 09, Revision D.01,
 Gaussian 09:  ES64L-G09RevD.01 24-Apr-2013

 --------------------------
 # td=(NStates=1) B3LYP/SVP
 --------------------------

 --
 TD
 --
 Symbolic Z-matrix:
 Charge =  0 Multiplicity = 1

                         Standard orientation:
 ---------------------------------------------------------------------
 Center     Atomic      Atomic             Coordinates (Angstroms)
 Number     Number       Type             X           Y           Z
 ---------------------------------------------------------------------
      1          8           0        5.422959   -0.017153   -3.133283
      2          8           0       -2.954566   -2.921994    3.144910
      3          8           0       -3.253612   -0.670997    3.118243
      4          8           0       -2.063122    7.256506    1.327446
      5          8           0       -0.278523    6.978491   -0.266355
      6          8           0       -1.921003   -4.070206   -0.038589
      7          7           0        2.339842    0.958941    0.482488
      8          7           0        4.460584   -0.667019   -1.234966
      9          7           0       -1.900063    0.755900   -0.277878
     10          7           0       -2.641979   -1.903241   -0.614518
     11          6           0        4.798969   -1.242405    0.025485
     12          6           0        4.431676   -0.312818    1.167428
     13          6           0        2.942366   -0.068361    1.259209
     14          6           0        1.993641   -0.633025    2.037546
     15          6           0        0.738145    0.053385    1.728115
     16          6           0        1.012857    1.004125    0.655991
     17          6           0        6.324063   -1.461139   -0.129884
     18          6           0       -0.527793   -0.108080    2.589149
     19          6           0        6.740477   -0.863757   -1.340140
     20          6           0        0.225977    1.971360   -0.003453
     21          6           0       -1.050406    1.736341   -0.371882
     22          6           0        5.496145   -0.448511   -2.060166
     23          6           0       -1.891255    2.939702   -0.954196
     24          6           0        2.179190   -1.691987    3.074722
     25          6           0        7.134741   -1.963205    0.963942
     26          6           0       -3.135048    2.357963   -1.195429
     27          6           0       -1.091212   -1.589173    2.588410
     28          6           0       -3.089068    0.910144   -0.930269
     29          6           0       -1.502483    4.347601   -1.078773
     30          6           0        8.004224   -0.758851   -2.024262
     31          6           0       -1.890000    5.120716    0.246752
     32          6           0       -4.310897    2.997316   -1.805331
     33          6           0       -3.942616   -0.132057   -1.242421
     34          6           0       -2.497369   -1.659261    2.973921
     35          6           0       -3.779141   -1.510733   -1.047960
     36          6           0        9.183387   -0.772114   -1.347960
     37          6           0       -1.285452    6.549308    0.406325
     38          6           0       -4.642551   -2.628668   -1.387047
     39          6           0       -4.025124   -3.759534   -1.054939
     40          6           0       -2.670757   -3.306048   -0.541057
     41          6           0       -5.950689   -2.484594   -2.024440
     42          6           0       -4.275354   -5.174056   -1.221719
     43          6           0       -6.862090   -3.548862   -2.305804
     44          1           0        4.186015   -2.175496    0.286153
     45          1           0        5.140046    0.600699    1.098476
     46          1           0        4.602324   -0.898104    2.114494
     47          1           0        2.932086    1.594296    0.033685
     48          1           0        3.476278   -0.913182   -1.610048
     49          1           0       -0.482214   -0.019421    3.768937
     50          1           0       -1.216008    0.476746    2.063442
     51          1           0        0.733643    2.850426   -0.566246
     52          1           0        3.349594   -1.736194    3.337818
     53          1           0        1.546340   -1.611136    4.125511
     54          1           0        2.101477   -2.711059    2.499603
     55          1           0        6.488772   -2.623001    1.816798
     56          1           0        7.804503   -1.120007    1.384404
     57          1           0        7.819057   -2.905642    0.724350
     58          1           0       -1.017766   -2.069559    1.498216
     59          1           0       -0.529449   -2.203611    3.228881
     60          1           0       -1.435519   -0.153957   -0.283485
     61          1           0       -1.970990    4.803748   -1.959739
     62          1           0       -0.349111    4.460645   -1.182838
     63          1           0        8.103619   -0.393837   -3.157119
     64          1           0       -1.569295    4.438068    1.081798
     65          1           0       -2.992668    5.222151    0.258282
     66          1           0       -4.104218    4.092735   -1.538159
     67          1           0       -5.349604    2.698900   -1.333149
     68          1           0       -4.350582    2.738184   -2.885535
     69          1           0       -4.778070    0.233869   -1.882163
     70          1           0        9.313193   -1.302563   -0.197811
     71          1           0       10.027490   -0.328264   -1.969371
     72          1           0       -4.011150   -2.888449    3.363682
     73          1           0       -6.335069   -1.312767   -2.150337
     74          1           0       -4.705460   -5.222214   -2.440955
     75          1           0       -3.377842   -5.982489   -1.006347
     76          1           0       -5.178752   -5.677672   -0.512940
     77          1           0       -1.520778    8.123665    1.431087
     78          1           0       -7.822616   -3.076665   -2.872725
     79          1           0       -6.672381   -4.682412   -2.170700
 ---------------------------------------------------------------------

 SCF Done:  E(RB3LYP) =  -1947.82244942     A.U. after   16 cycles

 Excitation energies and oscillator strengths:

 Excited State   1:      Singlet-A      2.0405 eV  607.61 nm  f=0.4002  <S**2>=0.000
     155 ->156         0.70245
     155 <-156        -0.10239
 This state for optimization and/or second-order correction.
 Total Energy, E(TD-HF/TD-KS) =  -1947.74746202
 Copying the excited state density for this state as the 1-particle RhoCI density.

 The electronic state is 1-A.
 Alpha  occ. eigenvalues --  -19.20770 -19.17248 -19.14706 -19.11382 -19.10300
 Alpha  occ. eigenvalues --  -19.09396 -14.37295 -14.36882 -14.34719 -14.28851
 Alpha  occ. eigenvalues --  -10.34520 -10.30206 -10.27262 -10.26504 -10.24970
 Alpha  occ. eigenvalues --  -10.24646 -10.24130 -10.23186 -10.23157 -10.23083
 Alpha  occ. eigenvalues --  -10.22715 -10.22629 -10.22397 -10.22348 -10.22298
 Alpha  occ. eigenvalues --  -10.22257 -10.21979 -10.21932 -10.21777 -10.21677
 Alpha  occ. eigenvalues --  -10.21551 -10.21326 -10.21199 -10.21034 -10.20933
 Alpha  occ. eigenvalues --  -10.20478 -10.19640 -10.19485 -10.19432 -10.19274
 Alpha  occ. eigenvalues --  -10.19152 -10.18958 -10.18773  -1.08018  -1.06045
 Alpha  occ. eigenvalues --   -1.05338  -1.04076  -1.00457  -0.99296  -0.98196
 Alpha  occ. eigenvalues --   -0.96316  -0.94789  -0.94603  -0.82930  -0.82327
 Alpha  occ. eigenvalues --   -0.81653  -0.81026  -0.80571  -0.79424  -0.77521
 Alpha  occ. eigenvalues --   -0.76950  -0.76334  -0.75260  -0.73658  -0.71954
 Alpha  occ. eigenvalues --   -0.70774  -0.70372  -0.69425  -0.68594  -0.68178
 Alpha  occ. eigenvalues --   -0.66794  -0.65869  -0.63497  -0.60406  -0.60218
 Alpha  occ. eigenvalues --   -0.59408  -0.58126  -0.57764  -0.56798  -0.56128
 Alpha  occ. eigenvalues --   -0.55513  -0.55138  -0.54562  -0.53711  -0.52654
 Alpha  occ. eigenvalues --   -0.52035  -0.51670  -0.50799  -0.50062  -0.49813
 Alpha  occ. eigenvalues --   -0.49022  -0.48737  -0.48172  -0.47919  -0.47004
 Alpha  occ. eigenvalues --   -0.46671  -0.46516  -0.46001  -0.45600  -0.44996
 Alpha  occ. eigenvalues --   -0.44885  -0.44855  -0.44349  -0.44248  -0.43406
 Alpha  occ. eigenvalues --   -0.43249  -0.42884  -0.42693  -0.42251  -0.42151
 Alpha  occ. eigenvalues --   -0.42068  -0.42011  -0.41545  -0.40941  -0.40705
 Alpha  occ. eigenvalues --   -0.40311  -0.40262  -0.39708  -0.39313  -0.39022
 Alpha  occ. eigenvalues --   -0.38742  -0.38548  -0.38463  -0.38169  -0.38127
 Alpha  occ. eigenvalues --   -0.37731  -0.37528  -0.37314  -0.37073  -0.36866
 Alpha  occ. eigenvalues --   -0.36403  -0.36094  -0.35831  -0.34666  -0.33792
 Alpha  occ. eigenvalues --   -0.33560  -0.33083  -0.33005  -0.32633  -0.31320
 Alpha  occ. eigenvalues --   -0.30973  -0.29728  -0.29260  -0.29051  -0.28158
 Alpha  occ. eigenvalues --   -0.26547  -0.26128  -0.25760  -0.25521  -0.24570
 Alpha  occ. eigenvalues --   -0.23971  -0.23588  -0.23248  -0.22329  -0.18715
 Alpha virt. eigenvalues --   -0.10628  -0.06430  -0.06128  -0.03206  -0.01276
 Alpha virt. eigenvalues --    0.00728   0.01032   0.01342   0.01661   0.02759
 Alpha virt. eigenvalues --    0.03211   0.03416   0.03674   0.03999   0.04358

 Mulliken charges:
               1
     1  O   -0.154907
     2  O   -0.239593
     3  O   -0.281326
     4  O   -0.223209
     5  O   -0.277588
     6  O   -0.153899
     7  N   -0.039435
     8  N   -0.176111
     9  N    0.018873
    10  N   -0.236428
    11  C    0.032884
    12  C    0.190044
    13  C   -0.113297
    14  C   -0.075501
    15  C   -0.154555
    16  C    0.060839
    17  C   -0.091465
    18  C    0.145686
    19  C   -0.057483
    20  C   -0.120932
    21  C    0.033699
    22  C    0.088140
    23  C   -0.120064
    24  C   -0.008455
    25  C   -0.055008
    26  C   -0.125342
    27  C   -0.048287
    28  C    0.081487
    29  C    0.063349
    30  C   -0.051525
    31  C   -0.025406
    32  C    0.039335
    33  C   -0.099725
    34  C    0.151953
    35  C    0.079566
    36  C   -0.097492
    37  C    0.207509
    38  C    0.084777
    39  C   -0.139082
    40  C    0.129546
    41  C   -0.091538
    42  C   -0.109672
    43  C   -0.085903
    44  H    0.013587
    45  H    0.007092
    46  H   -0.011542
    47  H    0.097653
    48  H    0.154779
    49  H    0.031440
    50  H   -0.010805
    51  H    0.019120
    52  H    0.014753
    53  H    0.068016
    54  H    0.051382
    55  H    0.035936
    56  H    0.071766
    57  H    0.056814
    58  H    0.091830
    59  H    0.007750
    60  H    0.148501
    61  H    0.025870
    62  H    0.035393
    63  H    0.054729
    64  H    0.068469
    65  H    0.044726
    66  H    0.025139
    67  H    0.043050
    68  H    0.048059
    69  H   -0.027471
    70  H    0.061271
    71  H    0.042317
    72  H    0.228661
    73  H    0.038467
    74  H    0.057824
    75  H    0.072438
    76  H    0.057104
    77  H    0.210755
    78  H    0.050937
    79  H    0.059732
 Sum of Mulliken charges =   0.00000

 Dipole moment (field-independent basis, Debye):
    X=              0.3703    Y=              1.4247    Z=              2.0977  Tot=              2.5627
 Quadrupole moment (field-independent basis, Debye-Ang):
   XX=           -228.5218   YY=           -241.9295   ZZ=           -262.1934
   XY=            -11.3367   XZ=             28.9415   YZ=              1.2998

 Normal termination of Gaussian 09 at Tue Jul  9 19:43:00 2019.
