 Gaussian 09, Revision D.01,
 Gaussian 09:  ES64L-G09RevD.01 24-Apr-2013

 --------------------------
 # td=(NStates=1) B3LYP/SVP
 --------------------------

 --
 TD
 --
 Symbolic Z-matrix:
 Charge =  0 Multiplicity = 1

                         Standard orientation:
 ---------------------------------------------------------------------
 Center     Atomic      Atomic             Coordinates (Angstroms)
 Number     Number       Type             X           Y           Z
 ---------------------------------------------------------------------
      1          8           0        5.327087   -0.250037   -3.308307
      2          8           0       -2.659238   -3.118487    3.441084
      3          8           0       -3.198409   -0.928016    3.206364
      4          8           0       -1.854707    7.148771    1.394199
      5          8           0       -0.748954    6.977972   -0.448046
      6          8           0       -1.772652   -3.852754    0.096217
      7          7           0        2.351061    0.865056    0.443271
      8          7           0        4.473496   -0.765405   -1.196466
      9          7           0       -1.933396    0.654423   -0.402632
     10          7           0       -2.718208   -1.819765   -0.525806
     11          6           0        4.901779   -1.164943    0.062307
     12          6           0        4.370016   -0.123893    1.115017
     13          6           0        2.966694    0.127827    1.361866
     14          6           0        2.053986   -0.524524    2.154883
     15          6           0        0.694681   -0.025749    1.761211
     16          6           0        0.982585    0.997717    0.770339
     17          6           0        6.415230   -1.161224   -0.109835
     18          6           0       -0.532425   -0.174645    2.622760
     19          6           0        6.734563   -0.817960   -1.360653
     20          6           0        0.157940    1.972360    0.011584
     21          6           0       -1.181437    1.775514   -0.366847
     22          6           0        5.440704   -0.486788   -2.077820
     23          6           0       -2.030565    2.850703   -0.969005
     24          6           0        2.190960   -1.442465    3.332159
     25          6           0        7.351886   -1.554353    0.960411
     26          6           0       -3.247742    2.359331   -1.389393
     27          6           0       -0.968639   -1.633984    2.597403
     28          6           0       -3.163137    0.842956   -1.006949
     29          6           0       -1.593327    4.318209   -0.950464
     30          6           0        7.969203   -0.834640   -2.120566
     31          6           0       -1.928143    5.018109    0.420999
     32          6           0       -4.445813    2.945636   -1.949268
     33          6           0       -4.124861   -0.085679   -1.434603
     34          6           0       -2.422271   -1.834723    3.070762
     35          6           0       -3.834328   -1.407998   -1.128526
     36          6           0        9.212559   -0.801793   -1.765737
     37          6           0       -1.344997    6.460196    0.412327
     38          6           0       -4.643520   -2.638996   -1.402988
     39          6           0       -3.993974   -3.736497   -0.999431
     40          6           0       -2.667419   -3.173304   -0.453897
     41          6           0       -5.906575   -2.591998   -2.109222
     42          6           0       -4.284703   -5.266541   -0.977000
     43          6           0       -6.533128   -3.666982   -2.674767
     44          1           0        4.529945   -2.233545    0.299282
     45          1           0        4.895690    0.616215    0.907200
     46          1           0        4.811659   -0.372589    2.215316
     47          1           0        2.545884    1.557191   -0.302465
     48          1           0        3.475006   -1.008163   -1.689032
     49          1           0       -0.427492    0.191686    3.606377
     50          1           0       -1.314007    0.342371    2.151392
     51          1           0        0.469729    2.972009   -0.094160
     52          1           0        3.289325   -1.511047    3.395445
     53          1           0        1.711292   -1.083865    4.364974
     54          1           0        2.006826   -2.426839    2.799214
     55          1           0        6.561048   -2.031711    1.665733
     56          1           0        7.632154   -0.572987    1.392175
     57          1           0        8.145225   -2.234374    0.817903
     58          1           0       -0.976974   -2.156126    1.696329
     59          1           0       -0.366427   -2.158163    3.310853
     60          1           0       -1.647736   -0.223059   -0.258587
     61          1           0       -2.218863    4.934178   -1.617215
     62          1           0       -0.654869    4.571702   -1.264021
     63          1           0        7.918265   -1.037904   -3.205444
     64          1           0       -1.477469    4.511690    1.227758
     65          1           0       -2.898202    5.031542    0.933695
     66          1           0       -4.204072    4.106951   -1.896426
     67          1           0       -5.439619    2.777606   -1.581926
     68          1           0       -4.580380    2.616061   -3.023301
     69          1           0       -5.050913    0.012252   -1.978663
     70          1           0        9.703582   -0.785504   -0.697427
     71          1           0       10.146536   -0.610128   -2.395729
     72          1           0       -3.585844   -2.883725    3.781444
     73          1           0       -6.333431   -1.671929   -2.364860
     74          1           0       -3.982729   -5.852180   -1.977336
     75          1           0       -3.723506   -5.783611   -0.198102
     76          1           0       -5.482496   -5.285221   -0.893130
     77          1           0       -1.603821    8.165592    1.440417
     78          1           0       -7.509735   -3.384691   -3.455373
     79          1           0       -5.893959   -4.572717   -2.835327
 ---------------------------------------------------------------------

 SCF Done:  E(RB3LYP) =  -1947.82867949     A.U. after   16 cycles

 Excitation energies and oscillator strengths:

 Excited State   1:      Singlet-A      2.1492 eV  576.87 nm  f=0.4193  <S**2>=0.000
     155 ->156         0.69484
 This state for optimization and/or second-order correction.
 Total Energy, E(TD-HF/TD-KS) =  -1947.74969633
 Copying the excited state density for this state as the 1-particle RhoCI density.

 The electronic state is 1-A.
 Alpha  occ. eigenvalues --  -19.18761 -19.17420 -19.12737 -19.11744 -19.10134
 Alpha  occ. eigenvalues --  -19.09214 -14.37942 -14.37536 -14.36366 -14.28566
 Alpha  occ. eigenvalues --  -10.32045 -10.30235 -10.27943 -10.26629 -10.26262
 Alpha  occ. eigenvalues --  -10.25664 -10.25262 -10.23483 -10.23110 -10.22536
 Alpha  occ. eigenvalues --  -10.22283 -10.22234 -10.22108 -10.21624 -10.21507
 Alpha  occ. eigenvalues --  -10.21152 -10.21047 -10.20944 -10.20855 -10.20738
 Alpha  occ. eigenvalues --  -10.20550 -10.20370 -10.20128 -10.19889 -10.19871
 Alpha  occ. eigenvalues --  -10.19821 -10.19736 -10.19632 -10.19528 -10.19497
 Alpha  occ. eigenvalues --  -10.18880 -10.17880 -10.17195  -1.11697  -1.08831
 Alpha  occ. eigenvalues --   -1.01927  -1.01272  -0.99975  -0.99699  -0.99421
 Alpha  occ. eigenvalues --   -0.98495  -0.94761  -0.92518  -0.83073  -0.82484
 Alpha  occ. eigenvalues --   -0.81823  -0.80849  -0.80507  -0.80162  -0.78172
 Alpha  occ. eigenvalues --   -0.77637  -0.76424  -0.76112  -0.73714  -0.73069
 Alpha  occ. eigenvalues --   -0.71616  -0.70863  -0.70041  -0.69104  -0.68860
 Alpha  occ. eigenvalues --   -0.66911  -0.66346  -0.64040  -0.61845  -0.60919
 Alpha  occ. eigenvalues --   -0.60696  -0.59049  -0.58348  -0.57206  -0.56767
 Alpha  occ. eigenvalues --   -0.56529  -0.55513  -0.55126  -0.54294  -0.53806
 Alpha  occ. eigenvalues --   -0.52484  -0.52442  -0.51292  -0.50915  -0.50077
 Alpha  occ. eigenvalues --   -0.49020  -0.48541  -0.48301  -0.48082  -0.47754
 Alpha  occ. eigenvalues --   -0.47647  -0.47158  -0.46698  -0.46422  -0.45597
 Alpha  occ. eigenvalues --   -0.45531  -0.45271  -0.45119  -0.44231  -0.43889
 Alpha  occ. eigenvalues --   -0.43623  -0.43308  -0.43282  -0.42700  -0.42184
 Alpha  occ. eigenvalues --   -0.42106  -0.41799  -0.41705  -0.41479  -0.41292
 Alpha  occ. eigenvalues --   -0.41074  -0.40876  -0.40418  -0.39976  -0.39872
 Alpha  occ. eigenvalues --   -0.39173  -0.38612  -0.38522  -0.38343  -0.38136
 Alpha  occ. eigenvalues --   -0.37910  -0.37506  -0.37216  -0.37044  -0.36903
 Alpha  occ. eigenvalues --   -0.36259  -0.35055  -0.34751  -0.34726  -0.34266
 Alpha  occ. eigenvalues --   -0.34064  -0.34046  -0.33258  -0.32054  -0.31435
 Alpha  occ. eigenvalues --   -0.31201  -0.30427  -0.29027  -0.28304  -0.26968
 Alpha  occ. eigenvalues --   -0.26663  -0.26413  -0.26174  -0.24882  -0.24548
 Alpha  occ. eigenvalues --   -0.24152  -0.23766  -0.23499  -0.22424  -0.19712
 Alpha virt. eigenvalues --   -0.11124  -0.06458  -0.05039  -0.01534   0.00600
 Alpha virt. eigenvalues --    0.00828   0.01520   0.02247   0.02400   0.02538
 Alpha virt. eigenvalues --    0.03519   0.03779   0.03979   0.04044   0.04851

 Mulliken charges:
               1
     1  O   -0.270703
     2  O   -0.190395
     3  O   -0.236304
     4  O   -0.203643
     5  O   -0.186704
     6  O   -0.239708
     7  N   -0.072457
     8  N   -0.183443
     9  N    0.035008
    10  N   -0.255532
    11  C    0.070740
    12  C    0.259284
    13  C   -0.023764
    14  C   -0.207075
    15  C   -0.122983
    16  C    0.014949
    17  C   -0.215830
    18  C    0.192272
    19  C    0.015888
    20  C   -0.037573
    21  C    0.059551
    22  C    0.122892
    23  C   -0.096622
    24  C    0.120785
    25  C    0.107616
    26  C   -0.094476
    27  C    0.016136
    28  C    0.144677
    29  C    0.130596
    30  C    0.029638
    31  C   -0.006529
    32  C    0.065916
    33  C   -0.087581
    34  C    0.120729
    35  C    0.063287
    36  C   -0.133178
    37  C    0.096125
    38  C    0.065559
    39  C   -0.184914
    40  C    0.137247
    41  C   -0.025325
    42  C    0.015525
    43  C   -0.089650
    44  H    0.035211
    45  H   -0.118327
    46  H    0.006478
    47  H    0.133009
    48  H    0.182641
    49  H   -0.005505
    50  H   -0.023268
    51  H   -0.014097
    52  H   -0.026567
    53  H    0.067991
    54  H    0.046442
    55  H    0.014635
    56  H    0.043109
    57  H    0.038740
    58  H    0.030455
    59  H    0.010786
    60  H    0.081719
    61  H    0.006860
    62  H   -0.001918
    63  H    0.026306
    64  H    0.003231
    65  H    0.028223
    66  H    0.036360
    67  H    0.029292
    68  H    0.034267
    69  H   -0.029161
    70  H    0.011453
    71  H    0.035429
    72  H    0.173337
    73  H   -0.036186
    74  H    0.053714
    75  H    0.040002
    76  H    0.050612
    77  H    0.220968
    78  H    0.050261
    79  H    0.043468
 Sum of Mulliken charges =   0.00000

 Dipole moment (field-independent basis, Debye):
    X=             -0.3999    Y=              3.8400    Z=              2.9332  Tot=              4.8486
 Quadrupole moment (field-independent basis, Debye-Ang):
   XX=           -227.7329   YY=           -241.7168   ZZ=           -261.5555
   XY=            -16.2546   XZ=             33.8765   YZ=              9.7532

 Normal termination of Gaussian 09 at Tue Jul  9 01:10:37 2019.
