 Gaussian 09, Revision D.01,
 Gaussian 09:  ES64L-G09RevD.01 24-Apr-2013

 --------------------------
 # td=(NStates=1) B3LYP/SVP
 --------------------------

 --
 TD
 --
 Symbolic Z-matrix:
 Charge =  0 Multiplicity = 1

                         Standard orientation:
 ---------------------------------------------------------------------
 Center     Atomic      Atomic             Coordinates (Angstroms)
 Number     Number       Type             X           Y           Z
 ---------------------------------------------------------------------
      1          8           0        5.390951   -0.022284   -3.297406
      2          8           0       -2.846495   -3.025176    3.372434
      3          8           0       -3.130356   -0.805465    3.354895
      4          8           0       -1.677419    7.053625    1.545660
      5          8           0       -0.555312    6.873355   -0.408644
      6          8           0       -1.837841   -4.053586   -0.136582
      7          7           0        2.393054    0.860027    0.592246
      8          7           0        4.450258   -0.530755   -1.286346
      9          7           0       -1.900240    0.713250   -0.338990
     10          7           0       -2.668481   -1.858170   -0.524180
     11          6           0        4.797685   -1.242640   -0.112359
     12          6           0        4.456326   -0.408586    1.245609
     13          6           0        2.993635   -0.003709    1.428930
     14          6           0        1.915316   -0.759998    2.094794
     15          6           0        0.724001   -0.082577    1.753224
     16          6           0        0.964510    0.931484    0.878143
     17          6           0        6.262489   -1.401809   -0.188130
     18          6           0       -0.670978   -0.279995    2.558840
     19          6           0        6.740425   -0.805767   -1.377268
     20          6           0        0.166381    1.873078    0.197368
     21          6           0       -1.108473    1.888762   -0.330664
     22          6           0        5.483724   -0.431997   -2.201686
     23          6           0       -1.915628    2.953099   -0.961403
     24          6           0        2.149186   -1.782011    3.145268
     25          6           0        7.103259   -2.058925    0.859021
     26          6           0       -3.216903    2.424372   -1.263353
     27          6           0       -1.147460   -1.705294    2.430265
     28          6           0       -3.075758    0.995789   -0.910516
     29          6           0       -1.483723    4.352861   -0.903635
     30          6           0        7.984393   -0.706039   -2.056983
     31          6           0       -1.762466    5.017851    0.418500
     32          6           0       -4.291162    3.110910   -1.935059
     33          6           0       -4.021037   -0.036077   -1.222426
     34          6           0       -2.518472   -1.829733    3.059037
     35          6           0       -3.757969   -1.355244   -1.076112
     36          6           0        9.188457   -0.494035   -1.440127
     37          6           0       -1.284507    6.402323    0.498647
     38          6           0       -4.692443   -2.551748   -1.511797
     39          6           0       -4.044570   -3.738529   -1.185317
     40          6           0       -2.750354   -3.307691   -0.497376
     41          6           0       -5.996976   -2.293029   -2.075169
     42          6           0       -4.286121   -5.130547   -1.445381
     43          6           0       -6.841976   -3.176390   -2.565663
     44          1           0        4.426028   -2.227331    0.171059
     45          1           0        5.016411    0.623845    1.327604
     46          1           0        4.858807   -1.037671    2.066774
     47          1           0        2.984638    1.686985    0.159522
     48          1           0        3.521484   -0.537558   -1.519324
     49          1           0       -0.408292   -0.067224    3.478199
     50          1           0       -1.364117    0.517125    2.133308
     51          1           0        0.788764    2.852991   -0.018411
     52          1           0        3.219313   -2.289956    3.120447
     53          1           0        1.646493   -1.310450    4.210274
     54          1           0        1.690684   -2.800442    2.838441
     55          1           0        6.689334   -3.141350    1.103139
     56          1           0        7.113167   -1.451914    1.736992
     57          1           0        8.172997   -2.159034    0.213346
     58          1           0       -1.066415   -1.976689    1.443578
     59          1           0       -0.435623   -2.634667    2.698770
     60          1           0       -1.480936   -0.252607   -0.225338
     61          1           0       -1.771861    4.980968   -1.670913
     62          1           0       -0.334171    4.294407   -0.867290
     63          1           0        7.835386   -0.838245   -3.160429
     64          1           0       -1.412806    4.418443    1.456022
     65          1           0       -3.009423    5.073109    0.480635
     66          1           0       -4.296187    4.211629   -2.085160
     67          1           0       -5.206685    3.186626   -1.370445
     68          1           0       -4.327787    2.486919   -2.937571
     69          1           0       -4.805745    0.335842   -1.661961
     70          1           0        9.281190   -0.500406   -0.291154
     71          1           0       10.177611   -0.163682   -1.883931
     72          1           0       -3.862993   -3.224421    3.610153
     73          1           0       -6.183047   -1.274802   -2.231352
     74          1           0       -4.302968   -5.332641   -2.567993
     75          1           0       -3.275229   -5.586730   -0.970574
     76          1           0       -5.181155   -5.504027   -0.898293
     77          1           0       -1.096463    7.937780    1.373838
     78          1           0       -7.797919   -2.714566   -3.064462
     79          1           0       -6.849694   -4.243432   -2.582778
 ---------------------------------------------------------------------

 SCF Done:  E(RB3LYP) =  -1947.83366815     A.U. after   17 cycles

 Excitation energies and oscillator strengths:

 Excited State   1:      Singlet-A      2.0908 eV  592.99 nm  f=0.4791  <S**2>=0.000
     154 ->156         0.14098
     155 ->156         0.68725
     155 <-156        -0.10562
 This state for optimization and/or second-order correction.
 Total Energy, E(TD-HF/TD-KS) =  -1947.75683215
 Copying the excited state density for this state as the 1-particle RhoCI density.

 The electronic state is 1-A.
 Alpha  occ. eigenvalues --  -19.21288 -19.18144 -19.12970 -19.10954 -19.10425
 Alpha  occ. eigenvalues --  -19.09502 -14.39340 -14.36846 -14.34957 -14.28125
 Alpha  occ. eigenvalues --  -10.32828 -10.29950 -10.28759 -10.26282 -10.25033
 Alpha  occ. eigenvalues --  -10.25008 -10.24489 -10.24012 -10.23604 -10.23188
 Alpha  occ. eigenvalues --  -10.23157 -10.22872 -10.22439 -10.22251 -10.22093
 Alpha  occ. eigenvalues --  -10.22077 -10.21961 -10.21936 -10.21410 -10.20998
 Alpha  occ. eigenvalues --  -10.20934 -10.20517 -10.20437 -10.19550 -10.19514
 Alpha  occ. eigenvalues --  -10.19450 -10.19186 -10.18906 -10.18890 -10.18798
 Alpha  occ. eigenvalues --  -10.18471 -10.17741 -10.17048  -1.12234  -1.08951
 Alpha  occ. eigenvalues --   -1.05300  -1.00191  -0.99923  -0.98149  -0.97866
 Alpha  occ. eigenvalues --   -0.97694  -0.95481  -0.90005  -0.83401  -0.82330
 Alpha  occ. eigenvalues --   -0.81930  -0.80438  -0.79805  -0.79326  -0.78255
 Alpha  occ. eigenvalues --   -0.77138  -0.75954  -0.75498  -0.74272  -0.73075
 Alpha  occ. eigenvalues --   -0.71210  -0.70801  -0.68904  -0.68480  -0.67791
 Alpha  occ. eigenvalues --   -0.66459  -0.66246  -0.63291  -0.62083  -0.60387
 Alpha  occ. eigenvalues --   -0.59717  -0.59007  -0.57994  -0.57779  -0.57245
 Alpha  occ. eigenvalues --   -0.55894  -0.55209  -0.54881  -0.54392  -0.53220
 Alpha  occ. eigenvalues --   -0.52253  -0.51415  -0.50782  -0.50327  -0.50188
 Alpha  occ. eigenvalues --   -0.49835  -0.49204  -0.48210  -0.48003  -0.47646
 Alpha  occ. eigenvalues --   -0.47117  -0.46733  -0.46193  -0.46104  -0.45786
 Alpha  occ. eigenvalues --   -0.45150  -0.44920  -0.44784  -0.44026  -0.43845
 Alpha  occ. eigenvalues --   -0.43736  -0.43218  -0.43063  -0.42964  -0.42758
 Alpha  occ. eigenvalues --   -0.42426  -0.41886  -0.41756  -0.41409  -0.41121
 Alpha  occ. eigenvalues --   -0.40854  -0.40427  -0.40159  -0.40009  -0.39566
 Alpha  occ. eigenvalues --   -0.39298  -0.39004  -0.38887  -0.38265  -0.38152
 Alpha  occ. eigenvalues --   -0.37800  -0.37536  -0.37257  -0.36755  -0.36276
 Alpha  occ. eigenvalues --   -0.35467  -0.35181  -0.34262  -0.34077  -0.33450
 Alpha  occ. eigenvalues --   -0.33133  -0.32784  -0.32755  -0.31419  -0.31147
 Alpha  occ. eigenvalues --   -0.31045  -0.29916  -0.29215  -0.28744  -0.27453
 Alpha  occ. eigenvalues --   -0.26311  -0.26108  -0.25868  -0.25554  -0.25357
 Alpha  occ. eigenvalues --   -0.23621  -0.23441  -0.23012  -0.21520  -0.18737
 Alpha virt. eigenvalues --   -0.10434  -0.06451  -0.05963  -0.01781  -0.00980
 Alpha virt. eigenvalues --    0.00555   0.00697   0.01579   0.01918   0.02524
 Alpha virt. eigenvalues --    0.02654   0.03133   0.03293   0.03838   0.04779

 Mulliken charges:
               1
     1  O   -0.161046
     2  O   -0.170116
     3  O   -0.264899
     4  O   -0.161601
     5  O   -0.291436
     6  O   -0.230658
     7  N   -0.144989
     8  N   -0.134746
     9  N   -0.078133
    10  N   -0.310026
    11  C    0.158674
    12  C    0.072412
    13  C   -0.046951
    14  C   -0.130676
    15  C   -0.157503
    16  C    0.082009
    17  C   -0.185192
    18  C    0.216539
    19  C   -0.089103
    20  C   -0.095528
    21  C    0.068300
    22  C    0.123800
    23  C   -0.041804
    24  C    0.003471
    25  C    0.010230
    26  C   -0.114363
    27  C   -0.045136
    28  C    0.064127
    29  C    0.149520
    30  C   -0.007089
    31  C   -0.124092
    32  C    0.066542
    33  C   -0.042084
    34  C    0.155697
    35  C    0.147910
    36  C   -0.084215
    37  C    0.152846
    38  C    0.047865
    39  C   -0.213832
    40  C    0.177886
    41  C    0.031839
    42  C    0.023845
    43  C   -0.045667
    44  H    0.006640
    45  H    0.011015
    46  H    0.008439
    47  H    0.162129
    48  H    0.096673
    49  H   -0.042476
    50  H    0.035742
    51  H    0.006656
    52  H    0.011555
    53  H    0.068240
    54  H    0.036340
    55  H    0.043420
    56  H    0.046099
    57  H    0.068631
    58  H    0.016536
    59  H    0.032696
    60  H    0.179887
    61  H   -0.003190
    62  H    0.015675
    63  H    0.036886
    64  H    0.085201
    65  H    0.054060
    66  H    0.014004
    67  H    0.019479
    68  H    0.068017
    69  H   -0.129264
    70  H    0.036406
    71  H    0.046231
    72  H    0.232761
    73  H   -0.036886
    74  H    0.046173
    75  H    0.051099
    76  H    0.034663
    77  H    0.222640
    78  H    0.025266
    79  H    0.009925
 Sum of Mulliken charges =   0.00000

 Dipole moment (field-independent basis, Debye):
    X=              0.5246    Y=              2.7546    Z=              3.0329  Tot=              4.1305
 Quadrupole moment (field-independent basis, Debye-Ang):
   XX=           -223.7789   YY=           -240.7276   ZZ=           -265.2126
   XY=            -10.7506   XZ=             29.1042   YZ=              1.8172

 Normal termination of Gaussian 09 at Tue Jul  9 17:54:44 2019.
