 Gaussian 09, Revision D.01,
 Gaussian 09:  ES64L-G09RevD.01 24-Apr-2013

 --------------------------
 # td=(NStates=1) B3LYP/SVP
 --------------------------

 --
 TD
 --
 Symbolic Z-matrix:
 Charge =  0 Multiplicity = 1

                         Standard orientation:
 ---------------------------------------------------------------------
 Center     Atomic      Atomic             Coordinates (Angstroms)
 Number     Number       Type             X           Y           Z
 ---------------------------------------------------------------------
      1          8           0        5.288233   -0.239494   -3.328202
      2          8           0       -2.812919   -3.062784    3.570708
      3          8           0       -3.180022   -0.876981    3.385789
      4          8           0       -1.239231    7.164047    1.542613
      5          8           0       -0.297293    7.100004   -0.390213
      6          8           0       -1.920075   -3.969990   -0.227122
      7          7           0        2.408610    0.815858    0.647912
      8          7           0        4.367234   -0.789418   -1.207119
      9          7           0       -1.887685    0.761311   -0.311240
     10          7           0       -2.731668   -1.817783   -0.603183
     11          6           0        4.798798   -1.338318    0.076184
     12          6           0        4.451261   -0.438708    1.284347
     13          6           0        2.987426   -0.161269    1.358286
     14          6           0        2.009313   -0.761194    2.075028
     15          6           0        0.711808   -0.090803    1.773408
     16          6           0        1.082766    0.939176    0.810951
     17          6           0        6.267991   -1.457681   -0.206201
     18          6           0       -0.565691   -0.359481    2.597344
     19          6           0        6.605242   -0.965417   -1.460119
     20          6           0        0.122763    1.831253    0.085416
     21          6           0       -1.116935    1.890528   -0.250889
     22          6           0        5.434982   -0.572180   -2.180540
     23          6           0       -1.804216    3.007342   -0.818446
     24          6           0        2.187435   -1.745854    3.112715
     25          6           0        7.174460   -1.998889    0.810748
     26          6           0       -3.105882    2.522027   -1.250544
     27          6           0       -1.028708   -1.733763    2.635422
     28          6           0       -3.076049    1.072765   -0.954673
     29          6           0       -1.414380    4.412938   -1.014697
     30          6           0        7.908992   -0.975672   -2.218455
     31          6           0       -1.555768    5.242200    0.389771
     32          6           0       -4.303058    3.140882   -1.817154
     33          6           0       -4.031413    0.050219   -1.375229
     34          6           0       -2.467432   -1.830897    3.130754
     35          6           0       -3.871064   -1.322584   -1.136439
     36          6           0        9.120911   -0.805729   -1.701345
     37          6           0       -0.934051    6.628742    0.423870
     38          6           0       -4.855747   -2.417262   -1.486862
     39          6           0       -4.176274   -3.573846   -1.188437
     40          6           0       -2.828481   -3.201402   -0.585180
     41          6           0       -6.171323   -2.232558   -2.157075
     42          6           0       -4.756417   -4.997645   -1.258123
     43          6           0       -6.908600   -3.283354   -2.624974
     44          1           0        4.179695   -2.279793    0.078179
     45          1           0        4.987165    0.405031    1.206428
     46          1           0        4.772068   -0.964103    2.323961
     47          1           0        2.914562    1.347823   -0.051244
     48          1           0        3.450552   -0.697917   -1.588501
     49          1           0       -0.442718   -0.022692    3.515695
     50          1           0       -1.306982    0.286477    2.166233
     51          1           0        0.588056    2.935942    0.296612
     52          1           0        3.170034   -1.845784    3.689164
     53          1           0        1.340847   -1.686837    3.979041
     54          1           0        2.059035   -2.975769    2.666708
     55          1           0        6.709954   -2.937083    1.305373
     56          1           0        7.445575   -1.205085    1.603426
     57          1           0        8.177429   -2.465952    0.548929
     58          1           0       -1.248054   -2.034090    1.722687
     59          1           0       -0.180073   -2.426300    3.054968
     60          1           0       -1.562496   -0.176016   -0.246242
     61          1           0       -1.851316    5.096192   -1.715118
     62          1           0       -0.439996    4.621583   -1.381159
     63          1           0        7.737157   -1.022541   -3.341988
     64          1           0       -0.919417    4.511537    1.159930
     65          1           0       -2.668849    5.390271    0.801862
     66          1           0       -4.125424    4.287045   -2.027260
     67          1           0       -5.255148    3.293737   -1.183986
     68          1           0       -4.543628    2.678446   -2.835456
     69          1           0       -4.866986    0.543404   -1.847839
     70          1           0        9.355071   -0.604043   -0.613934
     71          1           0       10.022795   -1.016313   -2.397565
     72          1           0       -3.790169   -2.780545    3.677553
     73          1           0       -6.484933   -1.186040   -1.902086
     74          1           0       -5.178976   -5.453554   -2.289386
     75          1           0       -3.925893   -5.732871   -0.888565
     76          1           0       -5.658161   -5.163173   -0.421369
     77          1           0       -1.018790    8.103989    1.436758
     78          1           0       -8.040592   -3.084221   -3.097649
     79          1           0       -6.562314   -4.290338   -2.790494
 ---------------------------------------------------------------------

 SCF Done:  E(RB3LYP) =  -1947.83370449     A.U. after   16 cycles

 Excitation energies and oscillator strengths:

 Excited State   1:      Singlet-A      2.1271 eV  582.88 nm  f=0.3501  <S**2>=0.000
     153 ->156        -0.13878
     154 ->156         0.13350
     155 ->156         0.67752
 This state for optimization and/or second-order correction.
 Total Energy, E(TD-HF/TD-KS) =  -1947.75553448
 Copying the excited state density for this state as the 1-particle RhoCI density.

 The electronic state is 1-A.
 Alpha  occ. eigenvalues --  -19.19532 -19.17097 -19.13494 -19.11619 -19.10826
 Alpha  occ. eigenvalues --  -19.09898 -14.38928 -14.36843 -14.34035 -14.28795
 Alpha  occ. eigenvalues --  -10.32028 -10.30727 -10.28308 -10.26362 -10.25919
 Alpha  occ. eigenvalues --  -10.25489 -10.24561 -10.24107 -10.23697 -10.23451
 Alpha  occ. eigenvalues --  -10.23222 -10.22867 -10.22817 -10.22758 -10.22444
 Alpha  occ. eigenvalues --  -10.22360 -10.22233 -10.21946 -10.21893 -10.21424
 Alpha  occ. eigenvalues --  -10.21208 -10.21177 -10.20966 -10.20763 -10.20620
 Alpha  occ. eigenvalues --  -10.20420 -10.19961 -10.19859 -10.19705 -10.19681
 Alpha  occ. eigenvalues --  -10.18420 -10.17632 -10.17207  -1.15072  -1.08814
 Alpha  occ. eigenvalues --   -1.05282  -1.03139  -1.00392  -0.99665  -0.99100
 Alpha  occ. eigenvalues --   -0.98607  -0.93462  -0.91187  -0.83150  -0.82413
 Alpha  occ. eigenvalues --   -0.81586  -0.81522  -0.80410  -0.79413  -0.77723
 Alpha  occ. eigenvalues --   -0.77578  -0.76486  -0.75510  -0.73574  -0.72763
 Alpha  occ. eigenvalues --   -0.72066  -0.71136  -0.69803  -0.69112  -0.68046
 Alpha  occ. eigenvalues --   -0.67051  -0.66168  -0.64066  -0.60977  -0.60082
 Alpha  occ. eigenvalues --   -0.60011  -0.58643  -0.57774  -0.57617  -0.57356
 Alpha  occ. eigenvalues --   -0.57096  -0.55763  -0.55514  -0.54638  -0.52964
 Alpha  occ. eigenvalues --   -0.52314  -0.51359  -0.51053  -0.50906  -0.50736
 Alpha  occ. eigenvalues --   -0.49866  -0.49567  -0.48912  -0.48267  -0.47985
 Alpha  occ. eigenvalues --   -0.47422  -0.47099  -0.46672  -0.46446  -0.45593
 Alpha  occ. eigenvalues --   -0.45294  -0.45031  -0.44479  -0.44229  -0.43868
 Alpha  occ. eigenvalues --   -0.43268  -0.43010  -0.42882  -0.42631  -0.42549
 Alpha  occ. eigenvalues --   -0.42244  -0.42205  -0.41798  -0.41680  -0.41443
 Alpha  occ. eigenvalues --   -0.40725  -0.40487  -0.39818  -0.39682  -0.39322
 Alpha  occ. eigenvalues --   -0.39012  -0.38930  -0.38799  -0.38734  -0.38524
 Alpha  occ. eigenvalues --   -0.38080  -0.37669  -0.37556  -0.37262  -0.36457
 Alpha  occ. eigenvalues --   -0.35753  -0.35378  -0.34969  -0.34912  -0.34525
 Alpha  occ. eigenvalues --   -0.33961  -0.33779  -0.33208  -0.32207  -0.31007
 Alpha  occ. eigenvalues --   -0.30925  -0.30740  -0.29620  -0.28653  -0.27103
 Alpha  occ. eigenvalues --   -0.26897  -0.26335  -0.26246  -0.25899  -0.24626
 Alpha  occ. eigenvalues --   -0.23821  -0.23731  -0.23499  -0.22290  -0.19938
 Alpha virt. eigenvalues --   -0.11320  -0.06832  -0.06395  -0.01310   0.00362
 Alpha virt. eigenvalues --    0.00613   0.01060   0.01613   0.02150   0.02473
 Alpha virt. eigenvalues --    0.03736   0.03759   0.04330   0.04782   0.05166

 Mulliken charges:
               1
     1  O   -0.198101
     2  O   -0.194560
     3  O   -0.253837
     4  O   -0.116003
     5  O   -0.151396
     6  O   -0.225975
     7  N    0.022565
     8  N   -0.300789
     9  N   -0.052186
    10  N   -0.278016
    11  C    0.121031
    12  C    0.274463
    13  C   -0.130618
    14  C   -0.049507
    15  C   -0.142732
    16  C   -0.055851
    17  C   -0.138378
    18  C    0.176120
    19  C   -0.048982
    20  C   -0.053167
    21  C    0.099718
    22  C    0.152904
    23  C   -0.000536
    24  C   -0.094068
    25  C    0.007663
    26  C   -0.091266
    27  C    0.110050
    28  C    0.047289
    29  C    0.123650
    30  C   -0.008491
    31  C   -0.162645
    32  C   -0.000102
    33  C   -0.092507
    34  C    0.117640
    35  C    0.130032
    36  C   -0.061222
    37  C    0.074632
    38  C    0.000579
    39  C   -0.175385
    40  C    0.168281
    41  C    0.031104
    42  C   -0.060937
    43  C   -0.051020
    44  H    0.037135
    45  H   -0.063017
    46  H    0.030312
    47  H    0.104558
    48  H    0.113095
    49  H   -0.032058
    50  H   -0.019140
    51  H    0.029848
    52  H    0.025378
    53  H    0.051067
    54  H    0.044974
    55  H    0.032246
    56  H    0.052232
    57  H    0.037730
    58  H   -0.029534
    59  H    0.046495
    60  H    0.130354
    61  H    0.000888
    62  H   -0.001673
    63  H    0.042013
    64  H    0.069255
    65  H    0.063255
    66  H    0.019647
    67  H    0.060203
    68  H    0.056929
    69  H   -0.036683
    70  H    0.034301
    71  H    0.042247
    72  H    0.179664
    73  H    0.014364
    74  H    0.060272
    75  H    0.044046
    76  H    0.052544
    77  H    0.170335
    78  H    0.045736
    79  H    0.021529
 Sum of Mulliken charges =   0.00000

 Dipole moment (field-independent basis, Debye):
    X=              0.7677    Y=              4.8832    Z=              2.4158  Tot=              5.5019
 Quadrupole moment (field-independent basis, Debye-Ang):
   XX=           -215.9475   YY=           -239.0940   ZZ=           -267.8887
   XY=            -18.7787   XZ=             33.6719   YZ=              4.6498

 Normal termination of Gaussian 09 at Mon Jul  8 03:05:03 2019.
