 Gaussian 09, Revision D.01,
 Gaussian 09:  ES64L-G09RevD.01 24-Apr-2013

 --------------------------
 # td=(NStates=1) B3LYP/SVP
 --------------------------

 --
 TD
 --
 Symbolic Z-matrix:
 Charge =  0 Multiplicity = 1

                         Standard orientation:
 ---------------------------------------------------------------------
 Center     Atomic      Atomic             Coordinates (Angstroms)
 Number     Number       Type             X           Y           Z
 ---------------------------------------------------------------------
      1          8           0        5.291871    0.067741   -3.291194
      2          8           0       -2.858243   -3.026292    3.204705
      3          8           0       -3.342465   -0.848095    3.109207
      4          8           0       -1.695726    7.126478    1.617282
      5          8           0       -0.700593    6.978253   -0.460465
      6          8           0       -1.830640   -4.000049   -0.067576
      7          7           0        2.437975    0.869500    0.551609
      8          7           0        4.421877   -0.579902   -1.244993
      9          7           0       -1.913458    0.629993   -0.375079
     10          7           0       -2.681983   -1.842078   -0.471728
     11          6           0        4.908604   -1.178150    0.001872
     12          6           0        4.539859   -0.294099    1.205707
     13          6           0        3.051032   -0.037496    1.385686
     14          6           0        2.045275   -0.640588    2.105667
     15          6           0        0.782438   -0.093483    1.826311
     16          6           0        1.066564    0.891506    0.773447
     17          6           0        6.401411   -1.310325   -0.313468
     18          6           0       -0.441295   -0.238469    2.567728
     19          6           0        6.691422   -0.737092   -1.447181
     20          6           0        0.207106    1.803807    0.127159
     21          6           0       -1.065285    1.762534   -0.357286
     22          6           0        5.416355   -0.313712   -2.124878
     23          6           0       -1.887236    2.802769   -0.987074
     24          6           0        2.317400   -1.593949    3.280765
     25          6           0        7.237756   -1.906689    0.792826
     26          6           0       -3.123646    2.301810   -1.399386
     27          6           0       -1.095716   -1.697243    2.512473
     28          6           0       -3.126236    0.874682   -0.976377
     29          6           0       -1.514897    4.327222   -0.957700
     30          6           0        8.092414   -0.595032   -2.093885
     31          6           0       -2.008203    5.067926    0.416919
     32          6           0       -4.267619    2.962423   -1.938274
     33          6           0       -3.999567   -0.058379   -1.194120
     34          6           0       -2.560205   -1.738488    2.945906
     35          6           0       -3.814034   -1.390394   -1.027284
     36          6           0        9.309821   -0.953490   -1.465507
     37          6           0       -1.461029    6.471004    0.443233
     38          6           0       -4.758324   -2.640680   -1.479850
     39          6           0       -3.976277   -3.727674   -1.073570
     40          6           0       -2.705410   -3.252557   -0.436112
     41          6           0       -6.154133   -2.361224   -1.922063
     42          6           0       -4.299776   -5.242328   -1.224730
     43          6           0       -6.932922   -3.241154   -2.544901
     44          1           0        4.482506   -2.201631    0.236514
     45          1           0        5.140081    0.637369    1.409214
     46          1           0        4.803349   -0.871781    1.999825
     47          1           0        2.888386    1.559045   -0.140608
     48          1           0        3.453751   -0.565305   -1.384297
     49          1           0       -0.236359   -0.176744    3.667205
     50          1           0       -1.297545    0.705382    2.415481
     51          1           0        0.624968    2.869046    0.127126
     52          1           0        3.324590   -1.451846    3.669489
     53          1           0        1.641927   -1.362953    4.224447
     54          1           0        2.180175   -2.728128    3.203556
     55          1           0        6.408645   -2.516366    1.427000
     56          1           0        7.642368   -1.057105    1.391229
     57          1           0        7.947908   -2.737698    0.512138
     58          1           0       -1.058881   -1.915655    1.372997
     59          1           0       -0.490077   -2.436086    3.103367
     60          1           0       -1.526816   -0.219249   -0.137015
     61          1           0       -1.971738    5.133552   -1.658538
     62          1           0       -0.663922    4.368252   -1.019765
     63          1           0        8.118327   -0.125524   -3.227831
     64          1           0       -1.464843    4.629776    1.194928
     65          1           0       -2.991791    5.268093    0.430870
     66          1           0       -4.317152    4.098871   -2.110401
     67          1           0       -5.126460    2.715870   -1.237803
     68          1           0       -4.649321    2.637049   -3.143484
     69          1           0       -4.839624    0.314912   -1.805803
     70          1           0        9.251494   -1.344042   -0.606195
     71          1           0       10.183274   -0.992100   -2.053487
     72          1           0       -3.944815   -2.785217    3.421451
     73          1           0       -6.518789   -1.416740   -1.736295
     74          1           0       -4.231092   -5.560299   -2.386498
     75          1           0       -3.493889   -5.875137   -0.668473
     76          1           0       -5.375406   -5.697266   -0.953637
     77          1           0       -1.118732    8.065437    1.662787
     78          1           0       -7.966269   -2.829359   -3.011829
     79          1           0       -6.826614   -4.201219   -2.834339
 ---------------------------------------------------------------------

 SCF Done:  E(RB3LYP) =  -1947.76566026     A.U. after   16 cycles

 Excitation energies and oscillator strengths:

 Excited State   1:      Singlet-A      2.1959 eV  564.62 nm  f=0.4142  <S**2>=0.000
     155 ->156         0.69039
 This state for optimization and/or second-order correction.
 Total Energy, E(TD-HF/TD-KS) =  -1947.68496353
 Copying the excited state density for this state as the 1-particle RhoCI density.

 The electronic state is 1-A.
 Alpha  occ. eigenvalues --  -19.20163 -19.17553 -19.12966 -19.12119 -19.10839
 Alpha  occ. eigenvalues --  -19.09497 -14.39446 -14.35860 -14.35330 -14.29216
 Alpha  occ. eigenvalues --  -10.33253 -10.30646 -10.28649 -10.26822 -10.25528
 Alpha  occ. eigenvalues --  -10.24776 -10.24509 -10.23760 -10.23511 -10.23414
 Alpha  occ. eigenvalues --  -10.22754 -10.22588 -10.22567 -10.22343 -10.22143
 Alpha  occ. eigenvalues --  -10.21702 -10.21692 -10.21598 -10.21561 -10.21366
 Alpha  occ. eigenvalues --  -10.20972 -10.20673 -10.20619 -10.20580 -10.20540
 Alpha  occ. eigenvalues --  -10.20536 -10.20171 -10.19935 -10.19799 -10.19724
 Alpha  occ. eigenvalues --  -10.19559 -10.18659 -10.17968  -1.08459  -1.07567
 Alpha  occ. eigenvalues --   -1.02134  -1.01720  -0.98978  -0.98578  -0.97885
 Alpha  occ. eigenvalues --   -0.97616  -0.94428  -0.91198  -0.82755  -0.82620
 Alpha  occ. eigenvalues --   -0.82491  -0.81343  -0.80550  -0.79681  -0.78951
 Alpha  occ. eigenvalues --   -0.77503  -0.75699  -0.74843  -0.74423  -0.73139
 Alpha  occ. eigenvalues --   -0.72122  -0.70758  -0.69369  -0.69077  -0.67787
 Alpha  occ. eigenvalues --   -0.66437  -0.66106  -0.64419  -0.62045  -0.60743
 Alpha  occ. eigenvalues --   -0.59471  -0.59441  -0.58162  -0.57857  -0.56838
 Alpha  occ. eigenvalues --   -0.56169  -0.55786  -0.55238  -0.53765  -0.53393
 Alpha  occ. eigenvalues --   -0.52620  -0.52053  -0.51361  -0.51096  -0.49115
 Alpha  occ. eigenvalues --   -0.48635  -0.48459  -0.48176  -0.48013  -0.47849
 Alpha  occ. eigenvalues --   -0.47653  -0.47178  -0.46950  -0.46652  -0.46184
 Alpha  occ. eigenvalues --   -0.45554  -0.45158  -0.44570  -0.44341  -0.44219
 Alpha  occ. eigenvalues --   -0.43685  -0.43239  -0.42689  -0.42412  -0.42208
 Alpha  occ. eigenvalues --   -0.41937  -0.41802  -0.41673  -0.41400  -0.41165
 Alpha  occ. eigenvalues --   -0.40566  -0.40411  -0.39872  -0.39578  -0.39202
 Alpha  occ. eigenvalues --   -0.38963  -0.38842  -0.38700  -0.38459  -0.38169
 Alpha  occ. eigenvalues --   -0.37780  -0.37467  -0.37149  -0.36950  -0.36757
 Alpha  occ. eigenvalues --   -0.36273  -0.35613  -0.35187  -0.34819  -0.34654
 Alpha  occ. eigenvalues --   -0.34360  -0.34054  -0.32496  -0.31855  -0.31585
 Alpha  occ. eigenvalues --   -0.31447  -0.31232  -0.28983  -0.27865  -0.27723
 Alpha  occ. eigenvalues --   -0.27338  -0.26541  -0.25783  -0.25320  -0.24962
 Alpha  occ. eigenvalues --   -0.24620  -0.24311  -0.24008  -0.22585  -0.19626
 Alpha virt. eigenvalues --   -0.10781  -0.06648  -0.05542  -0.01926  -0.01189
 Alpha virt. eigenvalues --   -0.00029   0.00453   0.00890   0.01847   0.02599
 Alpha virt. eigenvalues --    0.02890   0.03077   0.03588   0.03783   0.04132

 Mulliken charges:
               1
     1  O   -0.236809
     2  O   -0.244613
     3  O   -0.225477
     4  O   -0.259622
     5  O   -0.298426
     6  O   -0.184942
     7  N   -0.109500
     8  N   -0.158974
     9  N   -0.059541
    10  N   -0.303671
    11  C    0.055486
    12  C    0.281089
    13  C   -0.111487
    14  C   -0.081819
    15  C   -0.004573
    16  C    0.040804
    17  C   -0.185747
    18  C   -0.044400
    19  C   -0.029218
    20  C   -0.112105
    21  C    0.069071
    22  C    0.150203
    23  C   -0.090547
    24  C    0.010403
    25  C    0.039658
    26  C   -0.015926
    27  C   -0.056699
    28  C    0.121038
    29  C    0.238909
    30  C   -0.087249
    31  C    0.105726
    32  C   -0.051024
    33  C   -0.096079
    34  C    0.153919
    35  C    0.054798
    36  C    0.092618
    37  C    0.132665
    38  C    0.071337
    39  C   -0.167970
    40  C    0.173911
    41  C    0.034397
    42  C   -0.034968
    43  C   -0.017255
    44  H    0.033080
    45  H    0.010002
    46  H   -0.073293
    47  H    0.150259
    48  H    0.109835
    49  H    0.008563
    50  H    0.063955
    51  H    0.012371
    52  H    0.006193
    53  H    0.021160
    54  H    0.041062
    55  H    0.026108
    56  H    0.060045
    57  H    0.063310
    58  H    0.100927
    59  H    0.044151
    60  H    0.108666
    61  H    0.036851
    62  H   -0.141856
    63  H    0.056207
    64  H    0.030160
    65  H    0.012337
    66  H    0.035358
    67  H    0.049581
    68  H    0.051371
    69  H   -0.028338
    70  H   -0.074810
    71  H    0.024982
    72  H    0.217087
    73  H   -0.021777
    74  H    0.042782
    75  H    0.052401
    76  H    0.044198
    77  H    0.251025
    78  H    0.030509
    79  H   -0.011849
 Sum of Mulliken charges =   0.00000

 Dipole moment (field-independent basis, Debye):
    X=             -0.0612    Y=              2.6659    Z=              3.8120  Tot=              4.6521
 Quadrupole moment (field-independent basis, Debye-Ang):
   XX=           -218.9700   YY=           -245.3589   ZZ=           -265.1752
   XY=            -13.6767   XZ=             36.1030   YZ=              9.4852

 Normal termination of Gaussian 09 at Wed Jul 10 22:00:24 2019.
