 Gaussian 09, Revision D.01,
 Gaussian 09:  ES64L-G09RevD.01 24-Apr-2013

 --------------------------
 # td=(NStates=1) B3LYP/SVP
 --------------------------

 --
 TD
 --
 Symbolic Z-matrix:
 Charge =  0 Multiplicity = 1

                         Standard orientation:
 ---------------------------------------------------------------------
 Center     Atomic      Atomic             Coordinates (Angstroms)
 Number     Number       Type             X           Y           Z
 ---------------------------------------------------------------------
      1          8           0        5.452955   -0.266743   -3.454017
      2          8           0       -2.592051   -3.266822    3.625205
      3          8           0       -2.920171   -1.054708    3.551290
      4          8           0       -1.575653    7.103765    1.755217
      5          8           0       -0.802324    7.119080   -0.406924
      6          8           0       -1.936034   -3.896486   -0.057024
      7          7           0        2.257580    0.940224    0.451181
      8          7           0        4.522895   -0.599953   -1.413138
      9          7           0       -2.030801    0.746080   -0.358199
     10          7           0       -2.658140   -1.877301   -0.595007
     11          6           0        4.838928   -1.050830   -0.148480
     12          6           0        4.444426   -0.090736    0.989084
     13          6           0        3.015002    0.066826    1.146373
     14          6           0        2.070767   -0.549977    2.030030
     15          6           0        0.696743   -0.114328    1.742566
     16          6           0        0.925988    0.807184    0.637793
     17          6           0        6.355477   -1.247565   -0.162857
     18          6           0       -0.510238   -0.378275    2.480159
     19          6           0        6.809715   -0.811438   -1.387034
     20          6           0        0.045429    1.885066    0.028674
     21          6           0       -1.318982    1.874769   -0.308648
     22          6           0        5.625730   -0.607032   -2.275760
     23          6           0       -2.068955    2.921877   -0.848690
     24          6           0        2.443210   -1.574109    3.063708
     25          6           0        7.075588   -1.783356    1.013411
     26          6           0       -3.267196    2.377695   -1.264327
     27          6           0       -0.879191   -1.898324    2.537241
     28          6           0       -3.209086    0.940382   -1.052232
     29          6           0       -1.638806    4.373419   -0.894422
     30          6           0        8.137775   -0.721183   -2.079101
     31          6           0       -1.886233    5.102240    0.460692
     32          6           0       -4.455374    2.984914   -2.018391
     33          6           0       -4.213898   -0.116844   -1.258599
     34          6           0       -2.279079   -2.002350    3.295011
     35          6           0       -3.837501   -1.400268   -1.084648
     36          6           0        9.297599   -0.624500   -1.381020
     37          6           0       -1.403323    6.543890    0.491914
     38          6           0       -4.741533   -2.493918   -1.403947
     39          6           0       -4.073177   -3.748068   -1.199543
     40          6           0       -2.720553   -3.273692   -0.574081
     41          6           0       -6.085929   -2.344905   -1.949723
     42          6           0       -4.441194   -5.157686   -1.383368
     43          6           0       -6.843555   -3.297417   -2.624316
     44          1           0        4.505337   -2.170988    0.225712
     45          1           0        4.916720    0.864267    0.816187
     46          1           0        4.873096   -0.636746    1.868867
     47          1           0        2.693669    1.373535   -0.255978
     48          1           0        3.576238   -0.665562   -1.832859
     49          1           0       -0.275725   -0.090384    3.549202
     50          1           0       -1.203189    0.256039    2.052591
     51          1           0        0.645124    2.740202   -0.100260
     52          1           0        3.580982   -1.688680    3.340621
     53          1           0        1.949117   -1.344905    4.118165
     54          1           0        2.022536   -2.618123    2.873674
     55          1           0        6.514869   -2.527524    1.681620
     56          1           0        7.263643   -0.981462    1.795821
     57          1           0        8.139757   -2.072091    0.765633
     58          1           0       -1.276714   -2.084062    1.751743
     59          1           0       -0.029370   -2.632039    2.887455
     60          1           0       -1.568389   -0.198025   -0.132816
     61          1           0       -2.151684    4.818648   -1.702666
     62          1           0       -0.533751    4.479187   -1.139642
     63          1           0        8.286418   -0.834208   -3.170502
     64          1           0       -1.348371    4.722877    1.201620
     65          1           0       -3.169002    5.102806    0.658575
     66          1           0       -4.271300    4.202362   -2.126360
     67          1           0       -5.411483    2.822398   -1.453821
     68          1           0       -4.651891    2.359611   -2.873057
     69          1           0       -5.114601    0.615456   -1.461087
     70          1           0        9.378009   -0.579435   -0.197814
     71          1           0       10.248097   -0.634346   -1.875913
     72          1           0       -3.417031   -3.221475    3.971303
     73          1           0       -6.473544   -1.359344   -1.711580
     74          1           0       -4.418864   -5.240517   -2.314277
     75          1           0       -3.878757   -5.876948   -0.511262
     76          1           0       -5.491118   -5.373754   -1.286298
     77          1           0       -0.849445    7.929049    1.848002
     78          1           0       -7.704176   -3.091641   -2.882960
     79          1           0       -6.461172   -4.280974   -2.786313
 ---------------------------------------------------------------------

 SCF Done:  E(RB3LYP) =  -1947.76505795     A.U. after   17 cycles

 Excitation energies and oscillator strengths:

 Excited State   1:      Singlet-A      2.0010 eV  619.62 nm  f=0.2043  <S**2>=0.000
     154 ->156         0.37278
     155 ->156         0.59856
 This state for optimization and/or second-order correction.
 Total Energy, E(TD-HF/TD-KS) =  -1947.69152378
 Copying the excited state density for this state as the 1-particle RhoCI density.

 The electronic state is 1-A.
 Alpha  occ. eigenvalues --  -19.19107 -19.16894 -19.13884 -19.11920 -19.10495
 Alpha  occ. eigenvalues --  -19.09442 -14.38603 -14.36703 -14.35663 -14.27151
 Alpha  occ. eigenvalues --  -10.33120 -10.30755 -10.29035 -10.25823 -10.24849
 Alpha  occ. eigenvalues --  -10.24791 -10.24172 -10.23826 -10.23583 -10.23331
 Alpha  occ. eigenvalues --  -10.22958 -10.22895 -10.22766 -10.22218 -10.22127
 Alpha  occ. eigenvalues --  -10.22022 -10.21930 -10.21589 -10.21473 -10.21314
 Alpha  occ. eigenvalues --  -10.21272 -10.21088 -10.20810 -10.20339 -10.19845
 Alpha  occ. eigenvalues --  -10.19643 -10.19437 -10.19266 -10.18934 -10.18799
 Alpha  occ. eigenvalues --  -10.18175 -10.18091 -10.17168  -1.10658  -1.07790
 Alpha  occ. eigenvalues --   -1.05578  -1.02407  -1.02019  -1.00835  -0.99580
 Alpha  occ. eigenvalues --   -0.99413  -0.95113  -0.90103  -0.82776  -0.82608
 Alpha  occ. eigenvalues --   -0.82372  -0.81656  -0.80291  -0.78944  -0.77860
 Alpha  occ. eigenvalues --   -0.77354  -0.76656  -0.75866  -0.74580  -0.72862
 Alpha  occ. eigenvalues --   -0.72304  -0.71318  -0.69789  -0.69156  -0.68805
 Alpha  occ. eigenvalues --   -0.68360  -0.66301  -0.63883  -0.61294  -0.60760
 Alpha  occ. eigenvalues --   -0.60637  -0.59062  -0.58343  -0.58121  -0.57264
 Alpha  occ. eigenvalues --   -0.56756  -0.55757  -0.55665  -0.54662  -0.52975
 Alpha  occ. eigenvalues --   -0.52605  -0.51902  -0.51295  -0.50254  -0.49539
 Alpha  occ. eigenvalues --   -0.49150  -0.48634  -0.48293  -0.48111  -0.47961
 Alpha  occ. eigenvalues --   -0.47621  -0.47473  -0.47010  -0.46259  -0.45886
 Alpha  occ. eigenvalues --   -0.45523  -0.45106  -0.44836  -0.44462  -0.44184
 Alpha  occ. eigenvalues --   -0.43621  -0.43458  -0.43033  -0.42460  -0.42359
 Alpha  occ. eigenvalues --   -0.42119  -0.41979  -0.41851  -0.41827  -0.41388
 Alpha  occ. eigenvalues --   -0.41134  -0.40834  -0.40524  -0.40494  -0.40004
 Alpha  occ. eigenvalues --   -0.39974  -0.39651  -0.39425  -0.38931  -0.38742
 Alpha  occ. eigenvalues --   -0.38417  -0.38267  -0.38034  -0.37874  -0.37448
 Alpha  occ. eigenvalues --   -0.37012  -0.36213  -0.35871  -0.35677  -0.35154
 Alpha  occ. eigenvalues --   -0.34851  -0.33929  -0.33323  -0.32768  -0.32353
 Alpha  occ. eigenvalues --   -0.31809  -0.29913  -0.28844  -0.27761  -0.27012
 Alpha  occ. eigenvalues --   -0.26631  -0.26455  -0.26134  -0.26026  -0.24850
 Alpha  occ. eigenvalues --   -0.24189  -0.23282  -0.22798  -0.20616  -0.18941
 Alpha virt. eigenvalues --   -0.10795  -0.06783  -0.05799  -0.02088  -0.00286
 Alpha virt. eigenvalues --   -0.00254   0.00902   0.01213   0.02149   0.02725
 Alpha virt. eigenvalues --    0.03027   0.03384   0.04632   0.04965   0.05485

 Mulliken charges:
               1
     1  O   -0.238679
     2  O   -0.122403
     3  O   -0.190157
     4  O   -0.284432
     5  O   -0.229759
     6  O   -0.102467
     7  N    0.032413
     8  N   -0.161832
     9  N   -0.071706
    10  N   -0.309199
    11  C    0.006233
    12  C    0.233461
    13  C   -0.098946
    14  C   -0.113561
    15  C   -0.085707
    16  C   -0.007100
    17  C   -0.139681
    18  C    0.139533
    19  C   -0.049329
    20  C   -0.070039
    21  C    0.084465
    22  C    0.149304
    23  C   -0.095791
    24  C   -0.024550
    25  C    0.042679
    26  C   -0.126578
    27  C    0.150829
    28  C   -0.003085
    29  C    0.123499
    30  C   -0.001663
    31  C    0.019690
    32  C    0.059525
    33  C   -0.180445
    34  C    0.074199
    35  C    0.249105
    36  C   -0.064176
    37  C    0.162679
    38  C   -0.009855
    39  C   -0.255621
    40  C    0.092207
    41  C   -0.037499
    42  C    0.182834
    43  C    0.105981
    44  H    0.034344
    45  H   -0.014267
    46  H   -0.015034
    47  H    0.068287
    48  H    0.140131
    49  H    0.019244
    50  H   -0.022777
    51  H   -0.025168
    52  H    0.018312
    53  H    0.023372
    54  H    0.049411
    55  H    0.039516
    56  H    0.039541
    57  H    0.043619
    58  H   -0.092196
    59  H    0.055598
    60  H    0.181289
    61  H   -0.000698
    62  H    0.021642
    63  H    0.034252
    64  H   -0.000682
    65  H    0.078496
    66  H    0.051824
    67  H    0.032758
    68  H    0.033074
    69  H    0.007225
    70  H    0.035138
    71  H    0.022101
    72  H    0.127541
    73  H   -0.017031
    74  H   -0.037356
    75  H    0.068761
    76  H   -0.004144
    77  H    0.241180
    78  H   -0.062751
    79  H   -0.008930
 Sum of Mulliken charges =   0.00000

 Dipole moment (field-independent basis, Debye):
    X=              2.6911    Y=              2.2969    Z=              3.8944  Tot=              5.2615
 Quadrupole moment (field-independent basis, Debye-Ang):
   XX=           -217.4568   YY=           -251.1001   ZZ=           -265.2233
   XY=             -7.7676   XZ=             29.8849   YZ=              3.4255

 Normal termination of Gaussian 09 at Wed Jul 10 01:20:24 2019.
