 Gaussian 09, Revision D.01,
 Gaussian 09:  ES64L-G09RevD.01 24-Apr-2013

 --------------------------
 # td=(NStates=1) B3LYP/SVP
 --------------------------

 --
 TD
 --
 Symbolic Z-matrix:
 Charge =  0 Multiplicity = 1

                         Standard orientation:
 ---------------------------------------------------------------------
 Center     Atomic      Atomic             Coordinates (Angstroms)
 Number     Number       Type             X           Y           Z
 ---------------------------------------------------------------------
      1          8           0        5.447880    0.033471   -3.363801
      2          8           0       -2.803686   -3.278669    3.298732
      3          8           0       -3.393894   -1.065193    2.993318
      4          8           0       -1.564976    6.982655    1.792771
      5          8           0       -0.560904    6.962703   -0.360806
      6          8           0       -2.062989   -4.049035   -0.127009
      7          7           0        2.346218    0.851707    0.532755
      8          7           0        4.487817   -0.539741   -1.315640
      9          7           0       -1.903722    0.699606   -0.260182
     10          7           0       -2.676841   -1.886853   -0.577317
     11          6           0        4.858915   -1.218902   -0.030930
     12          6           0        4.481357   -0.374799    1.240190
     13          6           0        3.024202   -0.102969    1.335396
     14          6           0        2.007065   -0.690033    2.054653
     15          6           0        0.773104   -0.069569    1.691510
     16          6           0        1.051733    0.922787    0.768911
     17          6           0        6.416557   -1.367195   -0.238455
     18          6           0       -0.525988   -0.376011    2.546520
     19          6           0        6.747372   -0.809632   -1.415752
     20          6           0        0.151535    1.847593    0.093244
     21          6           0       -1.075471    1.856622   -0.321352
     22          6           0        5.560758   -0.311508   -2.142396
     23          6           0       -1.935103    2.883032   -0.830814
     24          6           0        2.303936   -1.671675    3.105852
     25          6           0        7.130384   -2.113361    0.914541
     26          6           0       -3.125425    2.419238   -1.221320
     27          6           0       -1.048151   -1.828439    2.437546
     28          6           0       -3.094119    0.982030   -0.903985
     29          6           0       -1.480612    4.393167   -0.823672
     30          6           0        8.094248   -0.733612   -2.062704
     31          6           0       -1.702155    5.055540    0.537321
     32          6           0       -4.289191    3.183596   -1.788705
     33          6           0       -4.017831   -0.024524   -1.232125
     34          6           0       -2.502476   -1.962451    2.984448
     35          6           0       -3.754808   -1.369485   -1.066094
     36          6           0        9.271569   -0.755105   -1.440305
     37          6           0       -1.182320    6.430202    0.594687
     38          6           0       -4.782234   -2.442982   -1.507667
     39          6           0       -4.174730   -3.621517   -1.197597
     40          6           0       -2.826859   -3.222066   -0.558536
     41          6           0       -6.077502   -2.037871   -2.041757
     42          6           0       -4.534355   -5.084806   -1.276908
     43          6           0       -7.009328   -2.855682   -2.690452
     44          1           0        4.323606   -2.217045   -0.052253
     45          1           0        4.798217    0.625774    0.989030
     46          1           0        4.797940   -0.896257    2.230716
     47          1           0        2.687352    1.190051   -0.246945
     48          1           0        3.564140   -0.305958   -1.623009
     49          1           0       -0.185011   -0.280937    3.748072
     50          1           0       -1.462001    0.367795    2.423767
     51          1           0        0.755896    2.749484   -0.255709
     52          1           0        3.403694   -1.803331    3.515292
     53          1           0        1.620925   -1.562824    4.028977
     54          1           0        2.014899   -2.843008    2.820137
     55          1           0        6.311262   -2.807448    1.293931
     56          1           0        7.480559   -1.454278    1.583110
     57          1           0        7.934946   -2.509086    0.553458
     58          1           0       -1.249210   -2.071719    1.266468
     59          1           0       -0.432967   -2.532887    2.852791
     60          1           0       -1.657398   -0.337679   -0.325519
     61          1           0       -2.065742    4.985009   -1.681748
     62          1           0       -0.436546    4.695620   -1.227633
     63          1           0        8.093780   -0.426403   -3.141832
     64          1           0       -1.229113    4.440580    1.389827
     65          1           0       -2.861740    5.135136    0.791776
     66          1           0       -3.945141    4.199326   -2.191480
     67          1           0       -5.289196    3.169875   -0.940649
     68          1           0       -4.770501    2.590574   -2.797573
     69          1           0       -4.889434    0.356418   -1.619160
     70          1           0        9.495040   -0.898499   -0.266645
     71          1           0       10.104722   -0.521381   -2.154516
     72          1           0       -3.744748   -3.315363    3.462899
     73          1           0       -6.239860   -0.871024   -1.896646
     74          1           0       -4.771049   -5.720704   -2.169253
     75          1           0       -3.713218   -5.714720   -0.775456
     76          1           0       -5.496481   -5.268062   -0.615646
     77          1           0       -1.270818    7.910764    1.827189
     78          1           0       -7.765157   -2.423559   -3.494749
     79          1           0       -6.581863   -3.772419   -2.903717
 ---------------------------------------------------------------------

 SCF Done:  E(RB3LYP) =  -1947.86251604     A.U. after   16 cycles

 Excitation energies and oscillator strengths:

 Excited State   1:      Singlet-A      2.3485 eV  527.92 nm  f=0.4632  <S**2>=0.000
     154 ->156         0.13344
     155 ->156         0.68862
 This state for optimization and/or second-order correction.
 Total Energy, E(TD-HF/TD-KS) =  -1947.77620895
 Copying the excited state density for this state as the 1-particle RhoCI density.

 The electronic state is 1-A.
 Alpha  occ. eigenvalues --  -19.20201 -19.16834 -19.14346 -19.11484 -19.10205
 Alpha  occ. eigenvalues --  -19.09870 -14.37890 -14.36444 -14.36035 -14.29728
 Alpha  occ. eigenvalues --  -10.33805 -10.31430 -10.28954 -10.26393 -10.26369
 Alpha  occ. eigenvalues --  -10.25438 -10.24624 -10.24321 -10.23667 -10.23408
 Alpha  occ. eigenvalues --  -10.23153 -10.23108 -10.22934 -10.22822 -10.22807
 Alpha  occ. eigenvalues --  -10.22327 -10.22252 -10.22023 -10.21850 -10.21663
 Alpha  occ. eigenvalues --  -10.21573 -10.20993 -10.20844 -10.20571 -10.20269
 Alpha  occ. eigenvalues --  -10.20144 -10.20036 -10.19763 -10.19736 -10.19666
 Alpha  occ. eigenvalues --  -10.19510 -10.19255 -10.18358  -1.09476  -1.06467
 Alpha  occ. eigenvalues --   -1.02479  -1.00812  -1.00777  -1.00199  -0.98118
 Alpha  occ. eigenvalues --   -0.96990  -0.94138  -0.92875  -0.83159  -0.82703
 Alpha  occ. eigenvalues --   -0.82394  -0.81873  -0.80205  -0.79923  -0.78751
 Alpha  occ. eigenvalues --   -0.77527  -0.76553  -0.75725  -0.74068  -0.73260
 Alpha  occ. eigenvalues --   -0.72891  -0.71119  -0.69517  -0.68720  -0.68520
 Alpha  occ. eigenvalues --   -0.66503  -0.66063  -0.64728  -0.60632  -0.60482
 Alpha  occ. eigenvalues --   -0.60349  -0.59520  -0.59069  -0.58827  -0.56750
 Alpha  occ. eigenvalues --   -0.56582  -0.55718  -0.55061  -0.53959  -0.52887
 Alpha  occ. eigenvalues --   -0.52463  -0.51994  -0.50882  -0.50844  -0.49488
 Alpha  occ. eigenvalues --   -0.49123  -0.49063  -0.48823  -0.48233  -0.47734
 Alpha  occ. eigenvalues --   -0.47330  -0.46714  -0.46073  -0.45875  -0.45552
 Alpha  occ. eigenvalues --   -0.45431  -0.45175  -0.44592  -0.44175  -0.43741
 Alpha  occ. eigenvalues --   -0.43394  -0.43322  -0.42565  -0.42348  -0.42316
 Alpha  occ. eigenvalues --   -0.41767  -0.41592  -0.41508  -0.40934  -0.40729
 Alpha  occ. eigenvalues --   -0.40569  -0.40517  -0.39791  -0.39650  -0.39346
 Alpha  occ. eigenvalues --   -0.39246  -0.38990  -0.38634  -0.38520  -0.38360
 Alpha  occ. eigenvalues --   -0.37876  -0.37619  -0.37367  -0.37058  -0.36904
 Alpha  occ. eigenvalues --   -0.36305  -0.36034  -0.35047  -0.34620  -0.34349
 Alpha  occ. eigenvalues --   -0.34069  -0.33472  -0.33434  -0.32525  -0.32187
 Alpha  occ. eigenvalues --   -0.31504  -0.30221  -0.29479  -0.29416  -0.27962
 Alpha  occ. eigenvalues --   -0.27373  -0.26463  -0.26340  -0.25397  -0.25120
 Alpha  occ. eigenvalues --   -0.25007  -0.24409  -0.24116  -0.22570  -0.20242
 Alpha virt. eigenvalues --   -0.10761  -0.06592  -0.05829  -0.02507  -0.01951
 Alpha virt. eigenvalues --    0.00075   0.00533   0.00830   0.01933   0.02377
 Alpha virt. eigenvalues --    0.03404   0.03878   0.03901   0.04158   0.05298

 Mulliken charges:
               1
     1  O   -0.281864
     2  O   -0.189607
     3  O   -0.281723
     4  O   -0.194768
     5  O   -0.261568
     6  O   -0.189075
     7  N    0.012247
     8  N   -0.214988
     9  N   -0.135605
    10  N   -0.207884
    11  C    0.046183
    12  C    0.248271
    13  C   -0.136522
    14  C   -0.049036
    15  C   -0.054897
    16  C    0.003983
    17  C   -0.203838
    18  C   -0.050605
    19  C   -0.044186
    20  C   -0.082554
    21  C    0.121308
    22  C    0.172125
    23  C   -0.008276
    24  C   -0.043174
    25  C    0.241616
    26  C   -0.067591
    27  C    0.012293
    28  C    0.056340
    29  C   -0.005662
    30  C   -0.012370
    31  C   -0.039834
    32  C   -0.043512
    33  C   -0.075581
    34  C    0.156853
    35  C    0.118318
    36  C   -0.069439
    37  C    0.180874
    38  C    0.043173
    39  C   -0.164803
    40  C    0.114588
    41  C   -0.075201
    42  C   -0.004055
    43  C   -0.023305
    44  H    0.045092
    45  H   -0.012146
    46  H    0.029888
    47  H    0.045358
    48  H    0.117709
    49  H    0.025513
    50  H    0.060403
    51  H   -0.002952
    52  H    0.029854
    53  H    0.026684
    54  H    0.046009
    55  H    0.038762
    56  H    0.002277
    57  H   -0.027036
    58  H    0.111077
    59  H   -0.008364
    60  H    0.177392
    61  H    0.025544
    62  H    0.049028
    63  H    0.032008
    64  H    0.068644
    65  H    0.067618
    66  H    0.047571
    67  H    0.074238
    68  H    0.057595
    69  H   -0.087694
    70  H    0.043342
    71  H    0.037963
    72  H    0.170669
    73  H    0.028979
    74  H    0.040669
    75  H    0.039985
    76  H    0.032399
    77  H    0.188311
    78  H    0.054170
    79  H    0.006793
 Sum of Mulliken charges =   0.00000

 Dipole moment (field-independent basis, Debye):
    X=              1.2321    Y=              3.3039    Z=              3.3006  Tot=              4.8299
 Quadrupole moment (field-independent basis, Debye-Ang):
   XX=           -230.0572   YY=           -244.4792   ZZ=           -264.7418
   XY=            -18.2394   XZ=             35.9205   YZ=              5.1830

 Normal termination of Gaussian 09 at Mon Jul  8 03:39:25 2019.
