 Gaussian 09, Revision D.01,
 Gaussian 09:  ES64L-G09RevD.01 24-Apr-2013

 --------------------------
 # td=(NStates=1) B3LYP/SVP
 --------------------------

 --
 TD
 --
 Symbolic Z-matrix:
 Charge =  0 Multiplicity = 1

                         Standard orientation:
 ---------------------------------------------------------------------
 Center     Atomic      Atomic             Coordinates (Angstroms)
 Number     Number       Type             X           Y           Z
 ---------------------------------------------------------------------
      1          8           0        5.204713   -0.266538   -3.320055
      2          8           0       -2.597898   -3.170910    3.400107
      3          8           0       -3.119790   -0.905982    3.204690
      4          8           0       -1.863830    7.408066    1.236791
      5          8           0       -0.006611    6.816655   -0.238220
      6          8           0       -1.903608   -4.000539   -0.058543
      7          7           0        2.357568    0.914327    0.646317
      8          7           0        4.285107   -0.565048   -1.208584
      9          7           0       -1.857249    0.627910   -0.353120
     10          7           0       -2.691134   -1.869048   -0.526917
     11          6           0        4.815865   -1.157767    0.075276
     12          6           0        4.494209   -0.299721    1.317461
     13          6           0        2.969805   -0.000506    1.492636
     14          6           0        1.933195   -0.651593    2.173602
     15          6           0        0.770709   -0.038718    1.816969
     16          6           0        1.019476    0.952399    0.740013
     17          6           0        6.319704   -1.337816   -0.209867
     18          6           0       -0.489414   -0.231932    2.600427
     19          6           0        6.543134   -0.941163   -1.564749
     20          6           0        0.230680    1.960688    0.106216
     21          6           0       -1.183345    1.808384   -0.308882
     22          6           0        5.339072   -0.542800   -2.211795
     23          6           0       -1.957146    2.886822   -0.847206
     24          6           0        2.197000   -1.636652    3.294057
     25          6           0        7.244669   -1.854617    0.815745
     26          6           0       -3.153849    2.355145   -1.199777
     27          6           0       -1.041441   -1.668020    2.560307
     28          6           0       -3.106876    0.954289   -0.914886
     29          6           0       -1.438549    4.253639   -0.936573
     30          6           0        7.806777   -0.922749   -2.281556
     31          6           0       -1.869310    5.146092    0.286320
     32          6           0       -4.265705    3.114288   -1.817752
     33          6           0       -4.105880   -0.054022   -1.300862
     34          6           0       -2.370014   -1.807743    3.118638
     35          6           0       -3.874327   -1.461129   -1.093961
     36          6           0        9.073657   -0.833985   -1.667737
     37          6           0       -1.095801    6.471699    0.411150
     38          6           0       -4.700522   -2.541118   -1.570903
     39          6           0       -4.076147   -3.625009   -1.037541
     40          6           0       -2.708061   -3.183770   -0.559010
     41          6           0       -6.087810   -2.392861   -2.122235
     42          6           0       -4.380849   -5.061959   -1.159503
     43          6           0       -6.865089   -3.262907   -2.613860
     44          1           0        4.474957   -2.259848    0.224929
     45          1           0        4.872059    0.638071    1.070642
     46          1           0        5.040742   -0.702699    2.364493
     47          1           0        2.687657    1.458033   -0.244583
     48          1           0        3.151355   -0.873173   -1.587598
     49          1           0       -0.450138    0.084163    3.700312
     50          1           0       -1.343732    0.515727    2.199536
     51          1           0        0.588833    2.941784   -0.077979
     52          1           0        3.358083   -1.685993    3.486491
     53          1           0        1.588059   -1.231649    3.993214
     54          1           0        2.032217   -2.624397    2.982941
     55          1           0        6.690147   -2.784919    1.369192
     56          1           0        7.618109   -0.940272    1.394866
     57          1           0        8.344325   -2.327955    0.412719
     58          1           0       -1.133410   -2.216089    1.462924
     59          1           0       -0.379831   -2.487381    3.131408
     60          1           0       -1.485825   -0.276698   -0.136393
     61          1           0       -1.787796    4.827143   -1.833940
     62          1           0       -0.381077    4.395585   -1.135959
     63          1           0        7.626579   -0.821641   -3.323262
     64          1           0       -1.456449    4.631090    1.329142
     65          1           0       -3.043679    5.520698    0.520453
     66          1           0       -3.860716    4.061981   -2.328557
     67          1           0       -5.147229    3.148332   -0.912053
     68          1           0       -4.844843    2.505950   -2.564679
     69          1           0       -4.955106    0.151570   -1.864239
     70          1           0        9.301069   -0.703856   -0.564686
     71          1           0       10.054892   -0.484369   -2.432978
     72          1           0       -3.615011   -3.041399    3.589436
     73          1           0       -6.545733   -1.374035   -2.012341
     74          1           0       -4.165330   -5.578219   -2.118007
     75          1           0       -3.647732   -5.590925   -0.525697
     76          1           0       -5.387333   -5.289196   -0.951277
     77          1           0       -1.590272    8.375596    1.145683
     78          1           0       -7.775781   -2.783934   -2.993674
     79          1           0       -6.722813   -4.349398   -2.813466
 ---------------------------------------------------------------------

 SCF Done:  E(RB3LYP) =  -1947.78982104     A.U. after   23 cycles

 Excitation energies and oscillator strengths:

 Excited State   1:      Singlet-A      2.0005 eV  619.75 nm  f=0.4757  <S**2>=0.000
     154 ->156         0.15051
     155 ->156         0.69585
     155 <-156        -0.15286
 This state for optimization and/or second-order correction.
 Total Energy, E(TD-HF/TD-KS) =  -1947.71630254
 Copying the excited state density for this state as the 1-particle RhoCI density.

 The electronic state is 1-A.
 Alpha  occ. eigenvalues --  -19.18735 -19.16361 -19.14642 -19.11940 -19.11527
 Alpha  occ. eigenvalues --  -19.08522 -14.39371 -14.37467 -14.36242 -14.27496
 Alpha  occ. eigenvalues --  -10.34914 -10.29648 -10.28624 -10.26268 -10.25755
 Alpha  occ. eigenvalues --  -10.25401 -10.24742 -10.24347 -10.24302 -10.24093
 Alpha  occ. eigenvalues --  -10.23736 -10.23722 -10.23500 -10.22901 -10.22776
 Alpha  occ. eigenvalues --  -10.22687 -10.22577 -10.22528 -10.21270 -10.21109
 Alpha  occ. eigenvalues --  -10.21012 -10.20702 -10.20250 -10.19749 -10.19452
 Alpha  occ. eigenvalues --  -10.19409 -10.19340 -10.19221 -10.19101 -10.18658
 Alpha  occ. eigenvalues --  -10.18556 -10.18104 -10.16830  -1.07483  -1.06932
 Alpha  occ. eigenvalues --   -1.04556  -0.99407  -0.99388  -0.99002  -0.98626
 Alpha  occ. eigenvalues --   -0.97485  -0.91952  -0.91508  -0.84019  -0.82162
 Alpha  occ. eigenvalues --   -0.81314  -0.80856  -0.80183  -0.79371  -0.77625
 Alpha  occ. eigenvalues --   -0.76837  -0.75687  -0.75363  -0.74524  -0.72594
 Alpha  occ. eigenvalues --   -0.71637  -0.70604  -0.70017  -0.69503  -0.68806
 Alpha  occ. eigenvalues --   -0.66057  -0.65405  -0.63058  -0.60200  -0.59683
 Alpha  occ. eigenvalues --   -0.59254  -0.58076  -0.57625  -0.57005  -0.56320
 Alpha  occ. eigenvalues --   -0.55997  -0.55483  -0.53680  -0.52983  -0.52562
 Alpha  occ. eigenvalues --   -0.51787  -0.51433  -0.50536  -0.50025  -0.49408
 Alpha  occ. eigenvalues --   -0.47948  -0.47935  -0.47514  -0.47236  -0.47091
 Alpha  occ. eigenvalues --   -0.46845  -0.46559  -0.46435  -0.45943  -0.45569
 Alpha  occ. eigenvalues --   -0.44734  -0.44586  -0.44374  -0.44138  -0.43941
 Alpha  occ. eigenvalues --   -0.43661  -0.43354  -0.42944  -0.42680  -0.42322
 Alpha  occ. eigenvalues --   -0.42252  -0.41431  -0.41401  -0.41161  -0.41079
 Alpha  occ. eigenvalues --   -0.40849  -0.40677  -0.40577  -0.39978  -0.39670
 Alpha  occ. eigenvalues --   -0.39452  -0.38887  -0.38669  -0.38630  -0.38264
 Alpha  occ. eigenvalues --   -0.38114  -0.37718  -0.37607  -0.37144  -0.36869
 Alpha  occ. eigenvalues --   -0.36268  -0.35114  -0.34805  -0.34502  -0.34317
 Alpha  occ. eigenvalues --   -0.33384  -0.32481  -0.32107  -0.31632  -0.31328
 Alpha  occ. eigenvalues --   -0.31088  -0.30456  -0.28726  -0.28237  -0.27838
 Alpha  occ. eigenvalues --   -0.27163  -0.26750  -0.26630  -0.26524  -0.25504
 Alpha  occ. eigenvalues --   -0.24124  -0.23576  -0.22608  -0.21933  -0.18695
 Alpha virt. eigenvalues --   -0.11428  -0.07357  -0.06021  -0.04360  -0.01480
 Alpha virt. eigenvalues --    0.00123   0.00967   0.01260   0.02134   0.02281
 Alpha virt. eigenvalues --    0.02404   0.03298   0.03599   0.04400   0.04758

 Mulliken charges:
               1
     1  O   -0.130284
     2  O   -0.250581
     3  O   -0.194164
     4  O   -0.291777
     5  O   -0.295401
     6  O   -0.263995
     7  N   -0.085170
     8  N   -0.360577
     9  N   -0.030927
    10  N   -0.242031
    11  C    0.069725
    12  C    0.187063
    13  C   -0.068416
    14  C   -0.159740
    15  C   -0.058950
    16  C    0.065316
    17  C   -0.134229
    18  C    0.004524
    19  C   -0.080313
    20  C   -0.064388
    21  C   -0.003343
    22  C    0.156488
    23  C   -0.030557
    24  C    0.180673
    25  C   -0.045509
    26  C   -0.118475
    27  C   -0.113581
    28  C    0.154472
    29  C    0.083738
    30  C    0.037936
    31  C   -0.097951
    32  C    0.033996
    33  C   -0.067006
    34  C    0.145033
    35  C    0.045938
    36  C   -0.110925
    37  C    0.227543
    38  C    0.044473
    39  C   -0.189146
    40  C    0.125881
    41  C   -0.016444
    42  C    0.097984
    43  C   -0.039342
    44  H    0.039783
    45  H   -0.030269
    46  H    0.050773
    47  H    0.159329
    48  H    0.194061
    49  H    0.024706
    50  H    0.039665
    51  H   -0.017286
    52  H    0.001576
    53  H    0.012709
    54  H    0.021737
    55  H    0.062029
    56  H    0.069290
    57  H    0.067440
    58  H    0.117617
    59  H    0.039230
    60  H    0.142166
    61  H    0.015946
    62  H    0.026583
    63  H    0.003124
    64  H    0.078723
    65  H    0.097839
    66  H    0.047205
    67  H    0.055962
    68  H    0.029823
    69  H   -0.062402
    70  H    0.045350
    71  H    0.058390
    72  H    0.189085
    73  H    0.003215
    74  H    0.022670
    75  H    0.022054
    76  H    0.003218
    77  H    0.213263
    78  H    0.014933
    79  H    0.022905
 Sum of Mulliken charges =   0.00000

 Dipole moment (field-independent basis, Debye):
    X=              1.5324    Y=              3.9298    Z=              1.8920  Tot=              4.6229
 Quadrupole moment (field-independent basis, Debye-Ang):
   XX=           -219.1033   YY=           -249.3541   ZZ=           -262.2804
   XY=            -19.6784   XZ=             31.4925   YZ=              0.0142

 Normal termination of Gaussian 09 at Tue Jul  9 17:37:23 2019.
