 Gaussian 09, Revision D.01,
 Gaussian 09:  ES64L-G09RevD.01 24-Apr-2013

 --------------------------
 # td=(NStates=1) B3LYP/SVP
 --------------------------

 --
 TD
 --
 Symbolic Z-matrix:
 Charge =  0 Multiplicity = 1

                         Standard orientation:
 ---------------------------------------------------------------------
 Center     Atomic      Atomic             Coordinates (Angstroms)
 Number     Number       Type             X           Y           Z
 ---------------------------------------------------------------------
      1          8           0        5.439411   -0.062518   -3.311757
      2          8           0       -2.855210   -3.254346    3.191942
      3          8           0       -3.053466   -1.052034    3.588510
      4          8           0       -1.111644    7.009838    1.862961
      5          8           0       -0.128538    6.974700   -0.153408
      6          8           0       -2.367444   -3.918743   -0.049938
      7          7           0        2.344776    0.801634    0.555799
      8          7           0        4.486055   -0.447367   -1.319419
      9          7           0       -1.850661    0.792557   -0.267073
     10          7           0       -2.911953   -1.722220   -0.562303
     11          6           0        4.818556   -1.281942   -0.094945
     12          6           0        4.463088   -0.441473    1.181114
     13          6           0        2.966658   -0.200164    1.288127
     14          6           0        2.020933   -0.882713    2.072148
     15          6           0        0.748248   -0.187257    1.767257
     16          6           0        0.991786    0.873326    0.821607
     17          6           0        6.313033   -1.569321   -0.386123
     18          6           0       -0.537604   -0.397205    2.479296
     19          6           0        6.675398   -1.032773   -1.495256
     20          6           0        0.180846    1.912759    0.236154
     21          6           0       -1.072362    1.851480   -0.186461
     22          6           0        5.613971   -0.466960   -2.251386
     23          6           0       -1.737331    2.969435   -0.883169
     24          6           0        2.170291   -2.071892    2.873359
     25          6           0        7.106634   -2.101307    0.807730
     26          6           0       -3.021122    2.473494   -1.234031
     27          6           0       -1.067195   -1.919760    2.551224
     28          6           0       -3.061024    1.073440   -0.975094
     29          6           0       -1.237284    4.353567   -0.818024
     30          6           0        8.102873   -0.960389   -2.206044
     31          6           0       -1.556078    5.031503    0.543699
     32          6           0       -4.071068    3.236158   -2.018313
     33          6           0       -4.060032    0.209268   -1.309426
     34          6           0       -2.398532   -2.008262    3.129651
     35          6           0       -3.961465   -1.184807   -1.062846
     36          6           0        9.204997   -1.097943   -1.405307
     37          6           0       -0.928618    6.468617    0.680889
     38          6           0       -5.000065   -2.160977   -1.561207
     39          6           0       -4.468617   -3.384035   -1.238347
     40          6           0       -3.124714   -3.136993   -0.583956
     41          6           0       -6.270450   -1.886171   -2.145074
     42          6           0       -4.964460   -4.730502   -1.214531
     43          6           0       -7.069542   -2.760761   -2.814434
     44          1           0        4.287885   -2.320439   -0.099161
     45          1           0        4.800070    0.587121    1.026474
     46          1           0        5.061416   -0.972179    2.133396
     47          1           0        2.795449    1.273060   -0.072099
     48          1           0        3.593409   -0.445312   -1.649461
     49          1           0       -0.487422   -0.167801    3.421143
     50          1           0       -1.501371    0.044637    2.047390
     51          1           0        0.621959    2.842870    0.032995
     52          1           0        3.178547   -2.340596    2.947790
     53          1           0        1.778749   -1.942710    3.837168
     54          1           0        1.781472   -3.014423    2.339215
     55          1           0        6.726637   -2.761168    1.457342
     56          1           0        7.447458   -1.285565    1.492071
     57          1           0        8.060596   -2.776985    0.383564
     58          1           0       -1.190362   -2.277909    1.559597
     59          1           0       -0.378065   -2.533884    3.100873
     60          1           0       -1.520486   -0.208862   -0.175992
     61          1           0       -1.514236    4.992251   -1.519178
     62          1           0       -0.102446    4.417378   -0.870709
     63          1           0        7.955479   -0.402408   -3.419054
     64          1           0       -0.859993    4.434486    1.271585
     65          1           0       -2.819779    5.045528    0.780144
     66          1           0       -3.711020    4.340494   -2.286307
     67          1           0       -4.965598    3.244287   -1.249395
     68          1           0       -4.312399    2.807378   -2.967906
     69          1           0       -4.923582    0.541473   -2.009193
     70          1           0        9.230835   -1.664266   -0.329107
     71          1           0       10.149744   -0.867089   -1.737400
     72          1           0       -3.917396   -2.885255    3.461947
     73          1           0       -6.564181   -0.920395   -2.232390
     74          1           0       -4.894997   -5.241846   -2.284440
     75          1           0       -4.397416   -5.300387   -0.289377
     76          1           0       -6.035945   -4.757967   -0.903450
     77          1           0       -0.869453    7.882997    1.842333
     78          1           0       -8.107370   -2.523898   -3.182555
     79          1           0       -6.877074   -3.926662   -3.023048
 ---------------------------------------------------------------------

 SCF Done:  E(RB3LYP) =  -1947.79468699     A.U. after   16 cycles

 Excitation energies and oscillator strengths:

 Excited State   1:      Singlet-A      2.0413 eV  607.36 nm  f=0.4270  <S**2>=0.000
     155 ->156         0.70100
     155 <-156        -0.10290
 This state for optimization and/or second-order correction.
 Total Energy, E(TD-HF/TD-KS) =  -1947.71966884
 Copying the excited state density for this state as the 1-particle RhoCI density.

 The electronic state is 1-A.
 Alpha  occ. eigenvalues --  -19.19623 -19.17703 -19.12983 -19.11532 -19.11530
 Alpha  occ. eigenvalues --  -19.10866 -14.37062 -14.36295 -14.32774 -14.29131
 Alpha  occ. eigenvalues --  -10.33522 -10.30017 -10.28434 -10.26974 -10.25194
 Alpha  occ. eigenvalues --  -10.24545 -10.24120 -10.23448 -10.23159 -10.22918
 Alpha  occ. eigenvalues --  -10.22915 -10.22860 -10.22793 -10.22308 -10.21838
 Alpha  occ. eigenvalues --  -10.21591 -10.21414 -10.21290 -10.20996 -10.20695
 Alpha  occ. eigenvalues --  -10.20500 -10.20304 -10.20252 -10.20212 -10.20150
 Alpha  occ. eigenvalues --  -10.20144 -10.19686 -10.19446 -10.19216 -10.18771
 Alpha  occ. eigenvalues --  -10.18575 -10.17650 -10.17365  -1.12427  -1.07549
 Alpha  occ. eigenvalues --   -1.07020  -1.02511  -0.99484  -0.98524  -0.98033
 Alpha  occ. eigenvalues --   -0.96901  -0.93194  -0.92395  -0.82630  -0.82236
 Alpha  occ. eigenvalues --   -0.81963  -0.81293  -0.81119  -0.79133  -0.77177
 Alpha  occ. eigenvalues --   -0.76812  -0.76614  -0.75376  -0.74519  -0.72953
 Alpha  occ. eigenvalues --   -0.72435  -0.71513  -0.69664  -0.69073  -0.68749
 Alpha  occ. eigenvalues --   -0.67252  -0.65714  -0.63660  -0.61800  -0.60617
 Alpha  occ. eigenvalues --   -0.59708  -0.59111  -0.58412  -0.57375  -0.56445
 Alpha  occ. eigenvalues --   -0.56031  -0.55676  -0.54397  -0.53521  -0.52520
 Alpha  occ. eigenvalues --   -0.52374  -0.51495  -0.50528  -0.50057  -0.49311
 Alpha  occ. eigenvalues --   -0.49169  -0.48635  -0.48199  -0.47784  -0.47474
 Alpha  occ. eigenvalues --   -0.47081  -0.46802  -0.46540  -0.46137  -0.45620
 Alpha  occ. eigenvalues --   -0.45445  -0.44602  -0.44396  -0.44216  -0.44038
 Alpha  occ. eigenvalues --   -0.43822  -0.43535  -0.43325  -0.43150  -0.42929
 Alpha  occ. eigenvalues --   -0.42360  -0.42091  -0.42059  -0.41651  -0.41391
 Alpha  occ. eigenvalues --   -0.41068  -0.40262  -0.40106  -0.39966  -0.39803
 Alpha  occ. eigenvalues --   -0.39382  -0.39179  -0.38781  -0.38545  -0.38249
 Alpha  occ. eigenvalues --   -0.37695  -0.37599  -0.37275  -0.36986  -0.36663
 Alpha  occ. eigenvalues --   -0.36385  -0.35752  -0.35426  -0.34971  -0.34914
 Alpha  occ. eigenvalues --   -0.34038  -0.32695  -0.32549  -0.31810  -0.31737
 Alpha  occ. eigenvalues --   -0.31371  -0.30024  -0.29239  -0.28228  -0.28143
 Alpha  occ. eigenvalues --   -0.27303  -0.26540  -0.25951  -0.25522  -0.25272
 Alpha  occ. eigenvalues --   -0.24718  -0.23872  -0.23556  -0.22517  -0.18833
 Alpha virt. eigenvalues --   -0.10790  -0.06530  -0.05674  -0.01763  -0.00852
 Alpha virt. eigenvalues --   -0.00110   0.01061   0.01395   0.02485   0.02765
 Alpha virt. eigenvalues --    0.03124   0.03905   0.04680   0.05225   0.05389

 Mulliken charges:
               1
     1  O   -0.123347
     2  O   -0.234614
     3  O   -0.297335
     4  O   -0.094995
     5  O   -0.278645
     6  O   -0.174274
     7  N    0.002358
     8  N   -0.267444
     9  N   -0.077973
    10  N   -0.233580
    11  C    0.059814
    12  C    0.149266
    13  C   -0.092539
    14  C   -0.143362
    15  C   -0.092753
    16  C    0.085671
    17  C   -0.147441
    18  C    0.095427
    19  C   -0.068131
    20  C   -0.053409
    21  C    0.056179
    22  C    0.138074
    23  C   -0.053480
    24  C    0.164806
    25  C    0.053087
    26  C   -0.140921
    27  C    0.011073
    28  C    0.186416
    29  C    0.135366
    30  C   -0.029704
    31  C   -0.096563
    32  C    0.046310
    33  C   -0.188279
    34  C    0.143870
    35  C    0.061101
    36  C   -0.050234
    37  C    0.136147
    38  C    0.063386
    39  C   -0.195465
    40  C    0.149783
    41  C    0.032257
    42  C    0.002859
    43  C   -0.092186
    44  H    0.040134
    45  H   -0.005402
    46  H    0.040509
    47  H    0.041036
    48  H    0.090741
    49  H   -0.042357
    50  H    0.034540
    51  H   -0.052421
    52  H   -0.044352
    53  H    0.013515
    54  H    0.045529
    55  H   -0.018836
    56  H    0.054245
    57  H    0.052863
    58  H    0.043146
    59  H    0.020236
    60  H    0.172075
    61  H   -0.035908
    62  H    0.022564
    63  H    0.089286
    64  H    0.067300
    65  H    0.078943
    66  H    0.034442
    67  H    0.048465
    68  H    0.035361
    69  H    0.010647
    70  H    0.055063
    71  H    0.008161
    72  H    0.230952
    73  H   -0.052169
    74  H    0.057446
    75  H    0.060424
    76  H    0.025567
    77  H    0.151915
    78  H    0.035627
    79  H    0.044136
 Sum of Mulliken charges =   0.00000

 Dipole moment (field-independent basis, Debye):
    X=              0.5423    Y=              1.7196    Z=              1.3813  Tot=              2.2714
 Quadrupole moment (field-independent basis, Debye-Ang):
   XX=           -212.2650   YY=           -245.1257   ZZ=           -263.9067
   XY=            -18.3561   XZ=             34.7564   YZ=              5.5998

 Normal termination of Gaussian 09 at Wed Jul 10 04:01:20 2019.
