 Gaussian 09, Revision D.01,
 Gaussian 09:  ES64L-G09RevD.01 24-Apr-2013

 --------------------------
 # td=(NStates=1) B3LYP/SVP
 --------------------------

 --
 TD
 --
 Symbolic Z-matrix:
 Charge =  0 Multiplicity = 1

                         Standard orientation:
 ---------------------------------------------------------------------
 Center     Atomic      Atomic             Coordinates (Angstroms)
 Number     Number       Type             X           Y           Z
 ---------------------------------------------------------------------
      1          8           0        5.634553   -0.085120   -3.311305
      2          8           0       -2.851181   -3.272554    3.077659
      3          8           0       -3.364129   -1.059017    3.310604
      4          8           0       -1.228726    7.187807    1.631873
      5          8           0       -0.203097    6.916791   -0.269828
      6          8           0       -2.104503   -3.986277   -0.205749
      7          7           0        2.335933    0.690410    0.468054
      8          7           0        4.509991   -0.604284   -1.313561
      9          7           0       -1.940672    0.796939   -0.387353
     10          7           0       -2.802465   -1.767342   -0.595001
     11          6           0        4.867049   -1.232901   -0.077982
     12          6           0        4.380413   -0.526827    1.153103
     13          6           0        2.938785   -0.213360    1.251854
     14          6           0        1.985282   -0.800137    1.992932
     15          6           0        0.743447   -0.116749    1.737908
     16          6           0        0.957437    0.787238    0.771979
     17          6           0        6.298464   -1.507191   -0.238344
     18          6           0       -0.586788   -0.403933    2.575045
     19          6           0        6.792968   -0.855384   -1.319313
     20          6           0        0.224921    1.843657    0.168704
     21          6           0       -1.094344    1.857434   -0.362785
     22          6           0        5.613555   -0.450923   -2.088926
     23          6           0       -1.841229    3.065369   -0.872485
     24          6           0        2.084771   -1.986846    3.024159
     25          6           0        7.043646   -2.236052    0.829777
     26          6           0       -3.090858    2.555490   -1.169564
     27          6           0       -1.098188   -1.777541    2.457372
     28          6           0       -3.086644    1.106645   -0.846353
     29          6           0       -1.338365    4.420524   -0.793813
     30          6           0        8.175343   -0.762137   -1.918057
     31          6           0       -1.507303    5.140330    0.583063
     32          6           0       -4.290722    3.234270   -1.672338
     33          6           0       -4.069479    0.166485   -1.246970
     34          6           0       -2.549989   -1.956295    3.029048
     35          6           0       -3.846859   -1.235650   -1.131458
     36          6           0        9.339119   -0.871351   -1.301193
     37          6           0       -0.938532    6.497670    0.568258
     38          6           0       -4.876266   -2.334087   -1.619809
     39          6           0       -4.370562   -3.522914   -1.209920
     40          6           0       -2.951534   -3.149909   -0.561629
     41          6           0       -6.155011   -1.958851   -2.070783
     42          6           0       -4.763132   -4.927647   -1.559361
     43          6           0       -7.140406   -2.898625   -2.373180
     44          1           0        4.259182   -2.194384   -0.197217
     45          1           0        4.907320    0.481275    1.267568
     46          1           0        4.597845   -1.243515    1.984915
     47          1           0        2.756672    1.186406   -0.195214
     48          1           0        3.561425   -0.696360   -2.021498
     49          1           0       -0.391081    0.129931    3.610378
     50          1           0       -1.366078    0.259337    2.127533
     51          1           0        1.126642    2.496850   -0.015852
     52          1           0        2.935862   -2.058726    3.501954
     53          1           0        1.283633   -1.810795    3.814838
     54          1           0        1.937603   -3.066691    2.618398
     55          1           0        6.434439   -2.988336    1.504420
     56          1           0        7.490162   -1.496780    1.502955
     57          1           0        7.757215   -2.970014    0.289741
     58          1           0       -0.813459   -2.175421    1.445326
     59          1           0       -0.582293   -2.456113    3.039125
     60          1           0       -1.733072   -0.261869   -0.134468
     61          1           0       -1.918147    5.134469   -1.565990
     62          1           0       -0.348252    4.448426   -1.074197
     63          1           0        8.027138   -0.547773   -3.037156
     64          1           0       -0.964200    4.534940    1.273246
     65          1           0       -2.604012    5.049260    0.800130
     66          1           0       -4.093318    4.334655   -1.574429
     67          1           0       -5.233113    2.950056   -1.156910
     68          1           0       -4.257822    3.066697   -2.873913
     69          1           0       -5.023495    0.549029   -1.513386
     70          1           0        9.192767   -0.887364   -0.160448
     71          1           0       10.267112   -0.665581   -1.816993
     72          1           0       -3.699199   -3.413460    3.522267
     73          1           0       -6.305014   -0.777788   -2.367697
     74          1           0       -4.958089   -5.138994   -2.583848
     75          1           0       -3.832481   -5.440893   -1.103815
     76          1           0       -5.662519   -5.019557   -0.593704
     77          1           0       -0.753251    8.078736    1.613953
     78          1           0       -7.791429   -2.435945   -3.007179
     79          1           0       -7.081477   -4.075597   -2.247474
 ---------------------------------------------------------------------

 SCF Done:  E(RB3LYP) =  -1947.85679634     A.U. after   16 cycles

 Excitation energies and oscillator strengths:

 Excited State   1:      Singlet-A      2.2662 eV  547.11 nm  f=0.4925  <S**2>=0.000
     154 ->156         0.18560
     155 ->156         0.67767
     155 <-156        -0.10260
 This state for optimization and/or second-order correction.
 Total Energy, E(TD-HF/TD-KS) =  -1947.77351564
 Copying the excited state density for this state as the 1-particle RhoCI density.

 The electronic state is 1-A.
 Alpha  occ. eigenvalues --  -19.19315 -19.17675 -19.12550 -19.11961 -19.10747
 Alpha  occ. eigenvalues --  -19.09139 -14.37702 -14.36954 -14.36641 -14.29854
 Alpha  occ. eigenvalues --  -10.32141 -10.31834 -10.27954 -10.27385 -10.25477
 Alpha  occ. eigenvalues --  -10.25340 -10.24420 -10.23401 -10.22507 -10.22505
 Alpha  occ. eigenvalues --  -10.22453 -10.22407 -10.22278 -10.22218 -10.21514
 Alpha  occ. eigenvalues --  -10.21494 -10.21265 -10.21060 -10.21008 -10.20876
 Alpha  occ. eigenvalues --  -10.20858 -10.20756 -10.20608 -10.20245 -10.19958
 Alpha  occ. eigenvalues --  -10.19718 -10.19559 -10.19346 -10.18984 -10.18978
 Alpha  occ. eigenvalues --  -10.18903 -10.18615 -10.18577  -1.12104  -1.08125
 Alpha  occ. eigenvalues --   -1.01713  -1.01388  -1.00752  -1.00282  -0.99738
 Alpha  occ. eigenvalues --   -0.98482  -0.94066  -0.92602  -0.83547  -0.82394
 Alpha  occ. eigenvalues --   -0.82256  -0.81385  -0.80409  -0.80072  -0.78680
 Alpha  occ. eigenvalues --   -0.77547  -0.77031  -0.75790  -0.74374  -0.72701
 Alpha  occ. eigenvalues --   -0.71900  -0.71466  -0.69980  -0.68924  -0.68419
 Alpha  occ. eigenvalues --   -0.67151  -0.66894  -0.63700  -0.61856  -0.61134
 Alpha  occ. eigenvalues --   -0.60404  -0.59520  -0.58729  -0.57853  -0.56843
 Alpha  occ. eigenvalues --   -0.56616  -0.56298  -0.55281  -0.54484  -0.52943
 Alpha  occ. eigenvalues --   -0.52223  -0.51811  -0.50981  -0.50597  -0.50421
 Alpha  occ. eigenvalues --   -0.49738  -0.48679  -0.48540  -0.48175  -0.47365
 Alpha  occ. eigenvalues --   -0.47283  -0.46896  -0.46771  -0.46280  -0.45992
 Alpha  occ. eigenvalues --   -0.45711  -0.44930  -0.44418  -0.44183  -0.43869
 Alpha  occ. eigenvalues --   -0.43650  -0.43428  -0.43015  -0.42569  -0.42043
 Alpha  occ. eigenvalues --   -0.41963  -0.41773  -0.41545  -0.41465  -0.40809
 Alpha  occ. eigenvalues --   -0.40532  -0.40275  -0.40063  -0.39821  -0.39705
 Alpha  occ. eigenvalues --   -0.39200  -0.38960  -0.38854  -0.38527  -0.38359
 Alpha  occ. eigenvalues --   -0.38183  -0.38144  -0.37601  -0.37505  -0.37143
 Alpha  occ. eigenvalues --   -0.36585  -0.35017  -0.34897  -0.34496  -0.34146
 Alpha  occ. eigenvalues --   -0.33840  -0.33639  -0.33178  -0.32498  -0.31677
 Alpha  occ. eigenvalues --   -0.31196  -0.30996  -0.29246  -0.28818  -0.27344
 Alpha  occ. eigenvalues --   -0.27178  -0.26137  -0.26054  -0.25225  -0.24991
 Alpha  occ. eigenvalues --   -0.24693  -0.24412  -0.23821  -0.21631  -0.19258
 Alpha virt. eigenvalues --   -0.10417  -0.06299  -0.05807  -0.00882   0.00081
 Alpha virt. eigenvalues --    0.00253   0.00463   0.01219   0.01738   0.02784
 Alpha virt. eigenvalues --    0.03169   0.03789   0.04455   0.04556   0.05151

 Mulliken charges:
               1
     1  O   -0.299304
     2  O   -0.171020
     3  O   -0.254446
     4  O   -0.161050
     5  O   -0.216390
     6  O   -0.230983
     7  N   -0.021022
     8  N   -0.252726
     9  N   -0.001771
    10  N   -0.238423
    11  C    0.103265
    12  C    0.245196
    13  C   -0.122443
    14  C   -0.128367
    15  C   -0.129776
    16  C   -0.000056
    17  C   -0.182826
    18  C    0.065816
    19  C   -0.048426
    20  C   -0.112743
    21  C    0.108142
    22  C    0.132495
    23  C   -0.049298
    24  C    0.110965
    25  C    0.018665
    26  C   -0.164046
    27  C    0.031428
    28  C    0.051276
    29  C    0.077208
    30  C   -0.020078
    31  C    0.020284
    32  C    0.060769
    33  C   -0.103834
    34  C    0.165720
    35  C    0.068033
    36  C   -0.016358
    37  C    0.106496
    38  C    0.068597
    39  C   -0.239028
    40  C    0.176971
    41  C   -0.109369
    42  C    0.014839
    43  C   -0.018859
    44  H    0.018173
    45  H    0.006500
    46  H   -0.006555
    47  H    0.056193
    48  H    0.200039
    49  H    0.033562
    50  H    0.002154
    51  H    0.012495
    52  H   -0.045168
    53  H    0.027612
    54  H    0.037268
    55  H    0.032542
    56  H    0.056314
    57  H    0.060613
    58  H    0.075676
    59  H   -0.012291
    60  H    0.199724
    61  H    0.027328
    62  H   -0.010091
    63  H    0.038029
    64  H    0.031225
    65  H    0.041906
    66  H    0.012723
    67  H    0.051507
    68  H    0.055319
    69  H   -0.040780
    70  H    0.030071
    71  H    0.033550
    72  H    0.178836
    73  H    0.038963
    74  H    0.051728
    75  H    0.052595
    76  H    0.057358
    77  H    0.203395
    78  H   -0.000567
    79  H    0.058530
 Sum of Mulliken charges =   0.00000

 Dipole moment (field-independent basis, Debye):
    X=              0.7254    Y=              2.0912    Z=              3.9052  Tot=              4.4889
 Quadrupole moment (field-independent basis, Debye-Ang):
   XX=           -235.3859   YY=           -240.6521   ZZ=           -263.0623
   XY=            -15.0404   XZ=             33.7098   YZ=              2.8301

 Normal termination of Gaussian 09 at Tue Jul  9 00:46:46 2019.
