 Gaussian 09, Revision D.01,
 Gaussian 09:  ES64L-G09RevD.01 24-Apr-2013

 --------------------------
 # td=(NStates=1) B3LYP/SVP
 --------------------------

 --
 TD
 --
 Symbolic Z-matrix:
 Charge =  0 Multiplicity = 1

                         Standard orientation:
 ---------------------------------------------------------------------
 Center     Atomic      Atomic             Coordinates (Angstroms)
 Number     Number       Type             X           Y           Z
 ---------------------------------------------------------------------
      1          8           0        5.451769   -0.278631   -3.337277
      2          8           0       -2.837634   -2.966510    3.234052
      3          8           0       -3.141657   -0.761092    3.185549
      4          8           0       -1.787227    7.148106    1.428349
      5          8           0       -0.618687    7.034346   -0.501319
      6          8           0       -1.898951   -4.004252    0.023405
      7          7           0        2.403887    0.837286    0.431108
      8          7           0        4.456474   -0.663923   -1.273110
      9          7           0       -1.849497    0.583308   -0.534337
     10          7           0       -2.765479   -1.925568   -0.454025
     11          6           0        4.891295   -1.143094    0.029347
     12          6           0        4.523514   -0.170068    1.189330
     13          6           0        3.146172    0.004898    1.320409
     14          6           0        2.144138   -0.586470    2.002413
     15          6           0        0.729084    0.012107    1.716230
     16          6           0        1.034168    0.926249    0.708613
     17          6           0        6.426831   -1.240699   -0.104823
     18          6           0       -0.488243   -0.240232    2.373703
     19          6           0        6.747232   -0.896248   -1.389568
     20          6           0        0.176450    1.928491    0.049197
     21          6           0       -1.099655    1.762050   -0.389843
     22          6           0        5.535173   -0.532300   -2.108669
     23          6           0       -2.009090    2.830077   -0.797934
     24          6           0        2.253694   -1.579483    3.251620
     25          6           0        7.404757   -1.740138    0.965522
     26          6           0       -3.189280    2.327152   -1.192889
     27          6           0       -1.072239   -1.693175    2.422542
     28          6           0       -3.137420    0.910855   -1.036438
     29          6           0       -1.588904    4.209009   -0.904523
     30          6           0        8.077627   -0.923888   -2.066327
     31          6           0       -1.885412    5.144748    0.382803
     32          6           0       -4.373369    2.960558   -1.764942
     33          6           0       -4.028994   -0.073510   -1.239794
     34          6           0       -2.426065   -1.677160    3.013352
     35          6           0       -3.839560   -1.452896   -1.009585
     36          6           0        9.309346   -0.796833   -1.472967
     37          6           0       -1.372548    6.497560    0.346321
     38          6           0       -4.787683   -2.612351   -1.318273
     39          6           0       -4.242539   -3.699131   -0.904028
     40          6           0       -2.877339   -3.299516   -0.398218
     41          6           0       -6.079742   -2.394422   -2.013893
     42          6           0       -4.567061   -5.180859   -1.027009
     43          6           0       -6.889452   -3.294594   -2.583433
     44          1           0        4.400025   -2.077921    0.136505
     45          1           0        4.999857    0.746476    1.058307
     46          1           0        5.063764   -0.444387    2.368007
     47          1           0        3.030411    1.359675   -0.346210
     48          1           0        3.552580   -0.737568   -1.718314
     49          1           0       -0.508830    0.279151    3.355463
     50          1           0       -1.223882    0.372977    2.181433
     51          1           0        0.703639    3.038864   -0.192866
     52          1           0        3.389143   -1.565735    3.531282
     53          1           0        1.735502   -1.224165    3.978452
     54          1           0        2.010790   -2.412528    2.594934
     55          1           0        7.009271   -2.468013    1.814976
     56          1           0        7.909924   -0.843308    1.529242
     57          1           0        8.299723   -2.150019    0.567997
     58          1           0       -1.145475   -1.982374    1.520430
     59          1           0       -0.560541   -2.441798    2.958732
     60          1           0       -1.574427   -0.438271   -0.220264
     61          1           0       -2.086417    4.835675   -1.793601
     62          1           0       -0.377818    4.387299   -1.063621
     63          1           0        7.895432   -1.039120   -3.166714
     64          1           0       -1.458540    4.683295    1.196782
     65          1           0       -3.018843    4.997667    0.627693
     66          1           0       -4.307617    4.085079   -1.990969
     67          1           0       -5.236750    2.933744   -0.972075
     68          1           0       -4.680537    2.438995   -2.822304
     69          1           0       -4.995454    0.175494   -1.665390
     70          1           0        9.501422   -0.377754   -0.324355
     71          1           0       10.347192   -0.902571   -2.150549
     72          1           0       -3.793602   -2.997926    3.185836
     73          1           0       -6.557002   -1.269747   -1.933028
     74          1           0       -4.166464   -5.431496   -2.121115
     75          1           0       -3.910719   -5.836160   -0.291476
     76          1           0       -5.650396   -5.531211   -1.013296
     77          1           0       -1.652221    8.090956    1.208537
     78          1           0       -7.879353   -2.792536   -3.038922
     79          1           0       -6.791702   -4.374326   -2.728548
 ---------------------------------------------------------------------

 SCF Done:  E(RB3LYP) =  -1947.80029498     A.U. after   17 cycles

 Excitation energies and oscillator strengths:

 Excited State   1:      Singlet-A      2.1665 eV  572.28 nm  f=0.4002  <S**2>=0.000
     154 ->156        -0.10127
     155 ->156         0.69299
 This state for optimization and/or second-order correction.
 Total Energy, E(TD-HF/TD-KS) =  -1947.72067775
 Copying the excited state density for this state as the 1-particle RhoCI density.

 The electronic state is 1-A.
 Alpha  occ. eigenvalues --  -19.19490 -19.15644 -19.13333 -19.11853 -19.10939
 Alpha  occ. eigenvalues --  -19.09445 -14.37133 -14.36419 -14.35962 -14.29784
 Alpha  occ. eigenvalues --  -10.33127 -10.30220 -10.28285 -10.27322 -10.25662
 Alpha  occ. eigenvalues --  -10.24802 -10.24344 -10.23973 -10.23265 -10.23164
 Alpha  occ. eigenvalues --  -10.22894 -10.22866 -10.22744 -10.22615 -10.22608
 Alpha  occ. eigenvalues --  -10.22302 -10.22030 -10.21757 -10.21568 -10.21500
 Alpha  occ. eigenvalues --  -10.21401 -10.21343 -10.21037 -10.20982 -10.20740
 Alpha  occ. eigenvalues --  -10.20490 -10.20224 -10.19061 -10.19035 -10.18802
 Alpha  occ. eigenvalues --  -10.18216 -10.17531 -10.17087  -1.11126  -1.08770
 Alpha  occ. eigenvalues --   -1.01177  -1.00157  -0.99886  -0.99659  -0.97022
 Alpha  occ. eigenvalues --   -0.95640  -0.93799  -0.93328  -0.83270  -0.82505
 Alpha  occ. eigenvalues --   -0.82186  -0.81487  -0.80854  -0.80355  -0.78716
 Alpha  occ. eigenvalues --   -0.76634  -0.76033  -0.75530  -0.74604  -0.73184
 Alpha  occ. eigenvalues --   -0.71673  -0.71538  -0.69657  -0.69147  -0.68549
 Alpha  occ. eigenvalues --   -0.67444  -0.66428  -0.64682  -0.60987  -0.60610
 Alpha  occ. eigenvalues --   -0.60192  -0.59079  -0.58738  -0.58549  -0.57000
 Alpha  occ. eigenvalues --   -0.55877  -0.55173  -0.54118  -0.53521  -0.52612
 Alpha  occ. eigenvalues --   -0.52035  -0.51720  -0.51593  -0.50751  -0.49762
 Alpha  occ. eigenvalues --   -0.49221  -0.48873  -0.48783  -0.48336  -0.47948
 Alpha  occ. eigenvalues --   -0.47825  -0.47072  -0.46770  -0.46399  -0.45769
 Alpha  occ. eigenvalues --   -0.45512  -0.45132  -0.44442  -0.44010  -0.43917
 Alpha  occ. eigenvalues --   -0.43588  -0.43081  -0.42721  -0.42492  -0.42331
 Alpha  occ. eigenvalues --   -0.42180  -0.41747  -0.41640  -0.41318  -0.40869
 Alpha  occ. eigenvalues --   -0.40806  -0.40017  -0.39820  -0.39662  -0.39366
 Alpha  occ. eigenvalues --   -0.39340  -0.39056  -0.38830  -0.38625  -0.38199
 Alpha  occ. eigenvalues --   -0.38042  -0.37778  -0.37632  -0.36839  -0.36709
 Alpha  occ. eigenvalues --   -0.36640  -0.35598  -0.34689  -0.34425  -0.34074
 Alpha  occ. eigenvalues --   -0.33764  -0.33634  -0.32695  -0.31812  -0.31405
 Alpha  occ. eigenvalues --   -0.30990  -0.30939  -0.28996  -0.28897  -0.27571
 Alpha  occ. eigenvalues --   -0.27399  -0.26553  -0.26278  -0.25215  -0.25042
 Alpha  occ. eigenvalues --   -0.24817  -0.24558  -0.23590  -0.22146  -0.19777
 Alpha virt. eigenvalues --   -0.11179  -0.06408  -0.06067  -0.01947  -0.00913
 Alpha virt. eigenvalues --   -0.00439   0.01160   0.02013   0.02284   0.02499
 Alpha virt. eigenvalues --    0.03503   0.03973   0.04205   0.04469   0.04587

 Mulliken charges:
               1
     1  O   -0.269370
     2  O   -0.206371
     3  O   -0.188979
     4  O   -0.161162
     5  O   -0.266478
     6  O   -0.245961
     7  N   -0.197506
     8  N   -0.197881
     9  N   -0.185970
    10  N   -0.221018
    11  C    0.143293
    12  C    0.140775
    13  C    0.003246
    14  C   -0.234353
    15  C   -0.066009
    16  C    0.085357
    17  C   -0.142124
    18  C    0.118018
    19  C   -0.054792
    20  C   -0.156953
    21  C    0.153977
    22  C    0.132377
    23  C    0.002528
    24  C    0.146463
    25  C    0.039941
    26  C   -0.060644
    27  C    0.190782
    28  C    0.163225
    29  C   -0.087635
    30  C    0.026602
    31  C    0.015379
    32  C    0.004356
    33  C   -0.115934
    34  C    0.083627
    35  C    0.052644
    36  C   -0.130378
    37  C    0.154182
    38  C    0.090995
    39  C   -0.198016
    40  C    0.145975
    41  C   -0.053215
    42  C    0.000768
    43  C   -0.070638
    44  H    0.010554
    45  H   -0.035461
    46  H    0.045603
    47  H    0.148391
    48  H    0.137494
    49  H   -0.011844
    50  H   -0.083920
    51  H    0.044097
    52  H   -0.001175
    53  H   -0.011425
    54  H    0.051683
    55  H    0.046599
    56  H    0.040591
    57  H    0.020671
    58  H   -0.034336
    59  H    0.008486
    60  H    0.201007
    61  H    0.046394
    62  H    0.053969
    63  H    0.038155
    64  H    0.016001
    65  H    0.054154
    66  H    0.024636
    67  H    0.049432
    68  H    0.061569
    69  H   -0.046711
    70  H    0.060119
    71  H    0.062914
    72  H    0.169009
    73  H    0.041641
    74  H    0.052678
    75  H    0.061098
    76  H    0.040447
    77  H    0.185109
    78  H    0.041405
    79  H    0.027845
 Sum of Mulliken charges =   0.00000

 Dipole moment (field-independent basis, Debye):
    X=             -1.5726    Y=              2.2394    Z=              2.3359  Tot=              3.5978
 Quadrupole moment (field-independent basis, Debye-Ang):
   XX=           -210.5221   YY=           -246.5362   ZZ=           -270.0266
   XY=            -10.6758   XZ=             35.9551   YZ=              8.6713

 Normal termination of Gaussian 09 at Wed Jul 10 22:04:40 2019.
