 Gaussian 09, Revision D.01,
 Gaussian 09:  ES64L-G09RevD.01 24-Apr-2013

 --------------------------
 # td=(NStates=1) B3LYP/SVP
 --------------------------

 --
 TD
 --
 Symbolic Z-matrix:
 Charge =  0 Multiplicity = 1

                         Standard orientation:
 ---------------------------------------------------------------------
 Center     Atomic      Atomic             Coordinates (Angstroms)
 Number     Number       Type             X           Y           Z
 ---------------------------------------------------------------------
      1          8           0        5.223748   -0.517533   -3.359694
      2          8           0       -2.980207   -2.855406    3.180629
      3          8           0       -3.374490   -0.668526    3.029332
      4          8           0       -1.453478    7.382589    1.282035
      5          8           0       -0.382513    6.765415   -0.631401
      6          8           0       -1.921554   -4.082301   -0.076094
      7          7           0        2.404594    0.855616    0.470277
      8          7           0        4.406625   -0.677190   -1.258792
      9          7           0       -1.896009    0.688958   -0.272596
     10          7           0       -2.649943   -1.921203   -0.354654
     11          6           0        4.875949   -1.202179    0.098154
     12          6           0        4.519474   -0.215123    1.244686
     13          6           0        3.069873    0.051354    1.384016
     14          6           0        2.066105   -0.542025    2.203578
     15          6           0        0.815876    0.005743    1.860696
     16          6           0        1.028824    0.882354    0.717443
     17          6           0        6.479298   -1.288466   -0.126380
     18          6           0       -0.537690   -0.252214    2.569932
     19          6           0        6.729381   -0.953425   -1.407732
     20          6           0        0.294307    1.825436    0.140694
     21          6           0       -1.061094    1.769155   -0.289703
     22          6           0        5.381628   -0.664831   -2.166113
     23          6           0       -1.916757    2.916199   -0.966119
     24          6           0        2.269313   -1.480898    3.389961
     25          6           0        7.199147   -1.746575    1.010641
     26          6           0       -3.171066    2.390452   -1.262141
     27          6           0       -1.137117   -1.545560    2.572497
     28          6           0       -3.131049    0.892386   -0.949452
     29          6           0       -1.472124    4.326889   -1.022967
     30          6           0        7.931121   -0.898706   -2.227418
     31          6           0       -1.848551    5.143461    0.254807
     32          6           0       -4.372518    2.936949   -1.784772
     33          6           0       -4.057056   -0.074035   -1.152374
     34          6           0       -2.566010   -1.565876    2.978046
     35          6           0       -3.802277   -1.427425   -0.868413
     36          6           0        9.150944   -0.929189   -1.606610
     37          6           0       -1.179030    6.479852    0.302013
     38          6           0       -4.798291   -2.593707   -1.297497
     39          6           0       -4.123279   -3.678811   -1.046932
     40          6           0       -2.754407   -3.277865   -0.431465
     41          6           0       -5.990301   -2.386918   -2.047687
     42          6           0       -4.457988   -5.151052   -1.242370
     43          6           0       -6.790308   -3.212138   -2.586473
     44          1           0        4.377154   -1.982693    0.391453
     45          1           0        4.958250    0.749241    1.085244
     46          1           0        4.957323   -0.504591    2.122044
     47          1           0        2.826785    1.190170   -0.338327
     48          1           0        3.477812   -0.843989   -1.527053
     49          1           0       -0.211487    0.011918    3.628567
     50          1           0       -1.359437    0.501992    2.088086
     51          1           0        0.835156    2.822007   -0.270725
     52          1           0        3.321601   -1.463665    3.820043
     53          1           0        1.551626   -1.280894    4.384212
     54          1           0        2.066592   -2.519344    3.041099
     55          1           0        6.726649   -2.313198    1.795143
     56          1           0        7.827531   -0.919586    1.606105
     57          1           0        8.007132   -2.317187    0.940308
     58          1           0       -1.026179   -2.189116    1.615126
     59          1           0       -0.708996   -2.244530    3.285827
     60          1           0       -1.846532   -0.366701   -0.210262
     61          1           0       -1.826321    4.777997   -1.966399
     62          1           0       -0.411480    4.298736   -1.216619
     63          1           0        7.795616   -0.870012   -3.390753
     64          1           0       -1.516432    4.551373    1.089245
     65          1           0       -2.882220    5.252926    0.572857
     66          1           0       -4.240815    3.956535   -2.472444
     67          1           0       -5.502943    2.943858   -1.278168
     68          1           0       -4.817010    2.323859   -2.651209
     69          1           0       -5.078577    0.203696   -1.542005
     70          1           0        9.268187   -1.237482   -0.680190
     71          1           0        9.956559   -0.863584   -2.311717
     72          1           0       -3.877556   -2.961009    3.531421
     73          1           0       -6.456940   -1.324948   -1.879192
     74          1           0       -4.224052   -5.345990   -2.400398
     75          1           0       -3.694383   -5.745080   -0.745807
     76          1           0       -5.574347   -5.332216   -0.897176
     77          1           0       -0.927809    8.183108    1.181348
     78          1           0       -7.815978   -2.967680   -2.805744
     79          1           0       -6.569364   -4.190373   -2.549333
 ---------------------------------------------------------------------

 SCF Done:  E(RB3LYP) =  -1947.85805721     A.U. after   16 cycles

 Excitation energies and oscillator strengths:

 Excited State   1:      Singlet-A      2.1580 eV  574.54 nm  f=0.5679  <S**2>=0.000
     155 ->156         0.70961
     155 <-156        -0.12843
 This state for optimization and/or second-order correction.
 Total Energy, E(TD-HF/TD-KS) =  -1947.77875260
 Copying the excited state density for this state as the 1-particle RhoCI density.

 The electronic state is 1-A.
 Alpha  occ. eigenvalues --  -19.19195 -19.15557 -19.12150 -19.11062 -19.10280
 Alpha  occ. eigenvalues --  -19.09943 -14.38094 -14.36164 -14.35893 -14.29969
 Alpha  occ. eigenvalues --  -10.32905 -10.30419 -10.28703 -10.26278 -10.25172
 Alpha  occ. eigenvalues --  -10.25050 -10.24613 -10.24173 -10.23753 -10.22991
 Alpha  occ. eigenvalues --  -10.22633 -10.22232 -10.21981 -10.21978 -10.21695
 Alpha  occ. eigenvalues --  -10.21630 -10.21304 -10.21061 -10.21012 -10.20987
 Alpha  occ. eigenvalues --  -10.20807 -10.20703 -10.20215 -10.20105 -10.20083
 Alpha  occ. eigenvalues --  -10.19884 -10.19372 -10.19149 -10.19125 -10.18872
 Alpha  occ. eigenvalues --  -10.18783 -10.18661 -10.17235  -1.09129  -1.07157
 Alpha  occ. eigenvalues --   -1.03224  -1.01608  -0.98848  -0.98409  -0.98296
 Alpha  occ. eigenvalues --   -0.96321  -0.93760  -0.91930  -0.83349  -0.82283
 Alpha  occ. eigenvalues --   -0.82192  -0.81621  -0.81587  -0.80204  -0.78190
 Alpha  occ. eigenvalues --   -0.77902  -0.77497  -0.76389  -0.75581  -0.72742
 Alpha  occ. eigenvalues --   -0.72507  -0.70740  -0.69490  -0.68894  -0.67475
 Alpha  occ. eigenvalues --   -0.67380  -0.66433  -0.63603  -0.61965  -0.61771
 Alpha  occ. eigenvalues --   -0.60821  -0.60283  -0.59716  -0.58752  -0.56867
 Alpha  occ. eigenvalues --   -0.55635  -0.55155  -0.54777  -0.54255  -0.53426
 Alpha  occ. eigenvalues --   -0.52378  -0.52110  -0.51286  -0.50736  -0.49673
 Alpha  occ. eigenvalues --   -0.48998  -0.48785  -0.48287  -0.47869  -0.47651
 Alpha  occ. eigenvalues --   -0.47324  -0.46874  -0.46366  -0.46020  -0.45873
 Alpha  occ. eigenvalues --   -0.45515  -0.45168  -0.44370  -0.44333  -0.43847
 Alpha  occ. eigenvalues --   -0.43764  -0.43334  -0.42886  -0.42601  -0.42477
 Alpha  occ. eigenvalues --   -0.41775  -0.41724  -0.41556  -0.41084  -0.40898
 Alpha  occ. eigenvalues --   -0.40675  -0.40637  -0.40074  -0.39844  -0.39442
 Alpha  occ. eigenvalues --   -0.39285  -0.38986  -0.38870  -0.38209  -0.38090
 Alpha  occ. eigenvalues --   -0.37996  -0.37644  -0.37567  -0.37218  -0.36539
 Alpha  occ. eigenvalues --   -0.35718  -0.35442  -0.34984  -0.34618  -0.33954
 Alpha  occ. eigenvalues --   -0.33597  -0.33151  -0.32325  -0.32086  -0.31857
 Alpha  occ. eigenvalues --   -0.31703  -0.30542  -0.28879  -0.27995  -0.27577
 Alpha  occ. eigenvalues --   -0.27482  -0.26575  -0.25883  -0.25245  -0.25228
 Alpha  occ. eigenvalues --   -0.24677  -0.24168  -0.24054  -0.23280  -0.18326
 Alpha virt. eigenvalues --   -0.10238  -0.06330  -0.05533  -0.01144  -0.00719
 Alpha virt. eigenvalues --    0.00269   0.01100   0.01589   0.02744   0.03461
 Alpha virt. eigenvalues --    0.03617   0.04477   0.04506   0.04840   0.05294

 Mulliken charges:
               1
     1  O   -0.217470
     2  O   -0.213022
     3  O   -0.220668
     4  O   -0.179926
     5  O   -0.281981
     6  O   -0.201472
     7  N   -0.072737
     8  N   -0.159374
     9  N   -0.113741
    10  N   -0.268597
    11  C    0.134916
    12  C    0.265344
    13  C   -0.122996
    14  C   -0.105426
    15  C   -0.077948
    16  C    0.112574
    17  C   -0.073215
    18  C    0.055022
    19  C   -0.057691
    20  C   -0.146608
    21  C    0.074631
    22  C    0.124243
    23  C   -0.151479
    24  C    0.007000
    25  C    0.099132
    26  C    0.014268
    27  C    0.014573
    28  C    0.086493
    29  C    0.153800
    30  C   -0.071512
    31  C    0.053154
    32  C   -0.070602
    33  C   -0.103680
    34  C    0.119619
    35  C    0.075551
    36  C    0.067410
    37  C    0.151571
    38  C    0.080472
    39  C   -0.247152
    40  C    0.141792
    41  C   -0.036539
    42  C    0.055345
    43  C    0.017899
    44  H   -0.039537
    45  H   -0.022641
    46  H   -0.037364
    47  H    0.094073
    48  H    0.116326
    49  H    0.014086
    50  H    0.060295
    51  H    0.031233
    52  H    0.017614
    53  H    0.044181
    54  H    0.042072
    55  H    0.010937
    56  H    0.033425
    57  H   -0.023301
    58  H    0.088284
    59  H    0.003329
    60  H    0.161909
    61  H    0.013081
    62  H    0.002548
    63  H    0.053040
    64  H    0.026436
    65  H    0.029994
    66  H    0.034661
    67  H    0.056418
    68  H    0.024140
    69  H   -0.009706
    70  H   -0.038395
    71  H    0.020829
    72  H    0.178936
    73  H    0.004072
    74  H    0.046518
    75  H    0.026763
    76  H    0.056896
    77  H    0.189594
    78  H    0.015854
    79  H   -0.037575
 Sum of Mulliken charges =   0.00000

 Dipole moment (field-independent basis, Debye):
    X=              1.5060    Y=              1.5302    Z=              3.9597  Tot=              4.5043
 Quadrupole moment (field-independent basis, Debye-Ang):
   XX=           -211.6868   YY=           -247.8279   ZZ=           -260.9802
   XY=            -11.0726   XZ=             31.9625   YZ=             -0.4400

 Normal termination of Gaussian 09 at Mon Jul  8 15:52:19 2019.
