 Gaussian 09, Revision D.01,
 Gaussian 09:  ES64L-G09RevD.01 24-Apr-2013

 --------------------------
 # td=(NStates=1) B3LYP/SVP
 --------------------------

 --
 TD
 --
 Symbolic Z-matrix:
 Charge =  0 Multiplicity = 1

                         Standard orientation:
 ---------------------------------------------------------------------
 Center     Atomic      Atomic             Coordinates (Angstroms)
 Number     Number       Type             X           Y           Z
 ---------------------------------------------------------------------
      1          8           0        5.540508   -0.222027   -3.285120
      2          8           0       -2.802295   -2.912763    3.509689
      3          8           0       -3.255718   -0.773702    3.144610
      4          8           0       -1.673264    7.092580    1.696078
      5          8           0       -0.695987    6.953741   -0.432612
      6          8           0       -1.967734   -4.075854   -0.107905
      7          7           0        2.441722    0.967843    0.638061
      8          7           0        4.444970   -0.628971   -1.288829
      9          7           0       -1.823759    0.667815   -0.495667
     10          7           0       -2.699196   -1.909715   -0.513576
     11          6           0        4.931992   -1.206423   -0.001429
     12          6           0        4.357934   -0.326097    1.258511
     13          6           0        2.989684   -0.074456    1.277081
     14          6           0        1.981723   -0.733196    1.992326
     15          6           0        0.768025   -0.071947    1.683206
     16          6           0        0.996073    0.920892    0.800412
     17          6           0        6.411236   -1.354188   -0.123211
     18          6           0       -0.535014   -0.285872    2.457801
     19          6           0        6.674573   -0.855472   -1.333710
     20          6           0        0.243629    1.944144    0.070142
     21          6           0       -1.018059    1.810435   -0.381889
     22          6           0        5.497399   -0.520239   -2.112735
     23          6           0       -1.856826    2.890238   -0.881340
     24          6           0        2.293817   -1.951255    2.974090
     25          6           0        7.320857   -1.890681    0.974104
     26          6           0       -3.055825    2.387597   -1.275382
     27          6           0       -1.085852   -1.723599    2.439717
     28          6           0       -3.007667    1.009442   -1.113178
     29          6           0       -1.664217    4.333847   -0.889565
     30          6           0        7.980173   -0.742108   -2.076040
     31          6           0       -1.830326    4.999078    0.489870
     32          6           0       -4.231385    3.073907   -1.918644
     33          6           0       -3.921268   -0.036569   -1.367886
     34          6           0       -2.471934   -1.700249    3.096370
     35          6           0       -3.815060   -1.371913   -1.007639
     36          6           0        9.284516   -0.530461   -1.559376
     37          6           0       -1.354871    6.500735    0.485116
     38          6           0       -4.875002   -2.549906   -1.380236
     39          6           0       -4.186180   -3.628618   -1.154051
     40          6           0       -2.863414   -3.320800   -0.507409
     41          6           0       -6.165456   -2.253373   -2.041445
     42          6           0       -4.435900   -5.178928   -1.293714
     43          6           0       -7.083163   -3.223015   -2.395966
     44          1           0        4.571518   -2.395502    0.220742
     45          1           0        5.243528    0.538929    1.271776
     46          1           0        4.873696   -0.954488    1.981583
     47          1           0        2.918308    1.634856    0.008518
     48          1           0        3.455767   -0.653126   -1.712769
     49          1           0       -0.581090    0.058284    3.411157
     50          1           0       -1.280433    0.273266    2.015850
     51          1           0        0.937408    2.963341   -0.363434
     52          1           0        3.308477   -1.779458    3.334647
     53          1           0        1.601654   -1.727496    3.737962
     54          1           0        2.213040   -2.884740    2.714809
     55          1           0        6.820426   -2.603872    1.668576
     56          1           0        7.552421   -1.051219    1.727609
     57          1           0        8.304856   -2.398374    0.632300
     58          1           0       -1.120867   -2.179197    1.465443
     59          1           0       -0.544705   -2.453413    3.117291
     60          1           0       -1.705777   -0.255304   -0.144868
     61          1           0       -2.199518    4.804762   -1.741856
     62          1           0       -0.554853    4.686011   -0.849986
     63          1           0        7.719977   -0.829677   -3.129691
     64          1           0       -1.256766    4.487419    1.100682
     65          1           0       -2.974948    4.979148    0.623763
     66          1           0       -4.007133    4.065442   -1.943767
     67          1           0       -5.179538    2.966740   -1.514324
     68          1           0       -4.029470    2.661221   -3.041370
     69          1           0       -4.996060    0.128647   -1.854556
     70          1           0        9.598970   -0.421772   -0.507951
     71          1           0        9.941548   -0.420172   -2.181096
     72          1           0       -3.837099   -3.081403    3.789882
     73          1           0       -6.592633   -1.254948   -2.043210
     74          1           0       -4.427140   -5.348057   -2.208630
     75          1           0       -3.765879   -5.663013   -0.623378
     76          1           0       -5.322857   -5.143215   -0.933781
     77          1           0       -1.196125    7.956523    1.574900
     78          1           0       -8.113772   -2.793466   -2.603943
     79          1           0       -6.730449   -4.133000   -2.680159
 ---------------------------------------------------------------------

 SCF Done:  E(RB3LYP) =  -1947.76327106     A.U. after   17 cycles

 Excitation energies and oscillator strengths:

 Excited State   1:      Singlet-A      2.1871 eV  566.89 nm  f=0.5790  <S**2>=0.000
     155 ->156         0.70175
     155 <-156        -0.11310
 This state for optimization and/or second-order correction.
 Total Energy, E(TD-HF/TD-KS) =  -1947.68289653
 Copying the excited state density for this state as the 1-particle RhoCI density.

 The electronic state is 1-A.
 Alpha  occ. eigenvalues --  -19.20603 -19.17132 -19.15392 -19.10550 -19.10152
 Alpha  occ. eigenvalues --  -19.09472 -14.38397 -14.36361 -14.36150 -14.28610
 Alpha  occ. eigenvalues --  -10.34132 -10.30146 -10.27454 -10.26833 -10.26121
 Alpha  occ. eigenvalues --  -10.24495 -10.24398 -10.23964 -10.23321 -10.23007
 Alpha  occ. eigenvalues --  -10.22968 -10.22671 -10.22620 -10.22127 -10.21432
 Alpha  occ. eigenvalues --  -10.20981 -10.20954 -10.20846 -10.20339 -10.20332
 Alpha  occ. eigenvalues --  -10.20191 -10.20131 -10.19647 -10.19472 -10.19444
 Alpha  occ. eigenvalues --  -10.19385 -10.19349 -10.19005 -10.18557 -10.18511
 Alpha  occ. eigenvalues --  -10.18380 -10.17695 -10.15545  -1.10328  -1.07446
 Alpha  occ. eigenvalues --   -1.02986  -1.02732  -1.00056  -0.98644  -0.98278
 Alpha  occ. eigenvalues --   -0.97910  -0.94352  -0.90623  -0.84073  -0.82447
 Alpha  occ. eigenvalues --   -0.82070  -0.80993  -0.80358  -0.79835  -0.78391
 Alpha  occ. eigenvalues --   -0.76508  -0.76367  -0.75536  -0.74309  -0.72679
 Alpha  occ. eigenvalues --   -0.71942  -0.71601  -0.70329  -0.69704  -0.68825
 Alpha  occ. eigenvalues --   -0.66976  -0.66225  -0.64037  -0.61425  -0.60679
 Alpha  occ. eigenvalues --   -0.60335  -0.58763  -0.58615  -0.57736  -0.57591
 Alpha  occ. eigenvalues --   -0.56323  -0.56163  -0.55731  -0.54793  -0.53265
 Alpha  occ. eigenvalues --   -0.52232  -0.51406  -0.50749  -0.50385  -0.50203
 Alpha  occ. eigenvalues --   -0.50136  -0.48941  -0.48221  -0.47872  -0.47434
 Alpha  occ. eigenvalues --   -0.47411  -0.46844  -0.46320  -0.46203  -0.45924
 Alpha  occ. eigenvalues --   -0.45853  -0.45457  -0.44651  -0.44465  -0.44010
 Alpha  occ. eigenvalues --   -0.43618  -0.43330  -0.43164  -0.42530  -0.42451
 Alpha  occ. eigenvalues --   -0.41983  -0.41958  -0.41647  -0.41488  -0.41437
 Alpha  occ. eigenvalues --   -0.41057  -0.40829  -0.40669  -0.40453  -0.40289
 Alpha  occ. eigenvalues --   -0.39918  -0.39754  -0.39651  -0.38764  -0.38190
 Alpha  occ. eigenvalues --   -0.37973  -0.37786  -0.37655  -0.37225  -0.36700
 Alpha  occ. eigenvalues --   -0.36291  -0.36113  -0.35073  -0.34704  -0.33951
 Alpha  occ. eigenvalues --   -0.33884  -0.33546  -0.33248  -0.32951  -0.31342
 Alpha  occ. eigenvalues --   -0.30514  -0.30113  -0.30036  -0.28983  -0.26774
 Alpha  occ. eigenvalues --   -0.26624  -0.26276  -0.25667  -0.25562  -0.25349
 Alpha  occ. eigenvalues --   -0.24195  -0.23953  -0.23635  -0.22642  -0.19009
 Alpha virt. eigenvalues --   -0.10536  -0.06112  -0.05568  -0.01827  -0.01321
 Alpha virt. eigenvalues --    0.00182   0.00608   0.01671   0.01801   0.02793
 Alpha virt. eigenvalues --    0.03192   0.03455   0.04083   0.04360   0.04719

 Mulliken charges:
               1
     1  O   -0.221292
     2  O   -0.227675
     3  O   -0.242402
     4  O   -0.196194
     5  O   -0.218795
     6  O   -0.226013
     7  N   -0.104183
     8  N   -0.193179
     9  N   -0.080124
    10  N   -0.285300
    11  C   -0.000180
    12  C    0.031225
    13  C    0.082112
    14  C   -0.159431
    15  C   -0.101030
    16  C    0.081054
    17  C   -0.119756
    18  C    0.175209
    19  C   -0.119589
    20  C   -0.163485
    21  C    0.150494
    22  C    0.131017
    23  C   -0.049261
    24  C    0.199569
    25  C    0.047359
    26  C   -0.159540
    27  C   -0.035989
    28  C    0.134805
    29  C   -0.001396
    30  C   -0.020891
    31  C    0.059592
    32  C    0.180660
    33  C   -0.119872
    34  C    0.123878
    35  C    0.022511
    36  C    0.071934
    37  C    0.160834
    38  C    0.056864
    39  C   -0.298301
    40  C    0.170015
    41  C   -0.055514
    42  C    0.328179
    43  C   -0.001028
    44  H    0.046317
    45  H    0.022949
    46  H   -0.018201
    47  H    0.124457
    48  H    0.163641
    49  H   -0.024827
    50  H   -0.036238
    51  H    0.057682
    52  H   -0.007693
    53  H    0.004361
    54  H   -0.003688
    55  H    0.018808
    56  H    0.041391
    57  H    0.061576
    58  H    0.070840
    59  H    0.021577
    60  H    0.124975
    61  H    0.037075
    62  H    0.010938
    63  H    0.025388
    64  H   -0.001767
    65  H    0.044404
    66  H   -0.037776
    67  H    0.021759
    68  H    0.054296
    69  H   -0.001633
    70  H    0.022259
    71  H   -0.052942
    72  H    0.233898
    73  H    0.000633
    74  H   -0.037797
    75  H    0.017858
    76  H   -0.040481
    77  H    0.186825
    78  H    0.039104
    79  H    0.003141
 Sum of Mulliken charges =   0.00000

 Dipole moment (field-independent basis, Debye):
    X=             -0.2723    Y=              3.0544    Z=              3.6945  Tot=              4.8014
 Quadrupole moment (field-independent basis, Debye-Ang):
   XX=           -222.8897   YY=           -240.8975   ZZ=           -262.3915
   XY=             -8.2391   XZ=             35.0673   YZ=              0.1815

 Normal termination of Gaussian 09 at Tue Jul  9 10:52:38 2019.
