 Gaussian 09, Revision D.01,
 Gaussian 09:  ES64L-G09RevD.01 24-Apr-2013

 --------------------------
 # td=(NStates=1) B3LYP/SVP
 --------------------------

 --
 TD
 --
 Symbolic Z-matrix:
 Charge =  0 Multiplicity = 1

                         Standard orientation:
 ---------------------------------------------------------------------
 Center     Atomic      Atomic             Coordinates (Angstroms)
 Number     Number       Type             X           Y           Z
 ---------------------------------------------------------------------
      1          8           0        5.473742   -0.447864   -3.373072
      2          8           0       -2.729578   -3.070543    3.259725
      3          8           0       -3.060528   -0.940459    3.106335
      4          8           0       -1.668100    7.279974    1.473916
      5          8           0       -0.754470    7.072591   -0.591266
      6          8           0       -1.833545   -4.055909   -0.151064
      7          7           0        2.272127    1.023569    0.587147
      8          7           0        4.460736   -0.620923   -1.241324
      9          7           0       -1.829080    0.623908   -0.423451
     10          7           0       -2.630634   -1.944556   -0.480288
     11          6           0        4.766112   -1.060981    0.041437
     12          6           0        4.481615   -0.122343    1.203370
     13          6           0        2.965474    0.066472    1.291630
     14          6           0        1.965445   -0.571565    2.063766
     15          6           0        0.681247   -0.037183    1.728426
     16          6           0        0.960254    0.995880    0.727278
     17          6           0        6.348543   -1.206021   -0.131775
     18          6           0       -0.535994   -0.180443    2.432092
     19          6           0        6.666557   -0.844294   -1.390033
     20          6           0        0.087508    1.945468    0.114473
     21          6           0       -1.206209    1.814333   -0.346647
     22          6           0        5.471703   -0.498742   -2.190074
     23          6           0       -1.941515    2.921404   -0.914835
     24          6           0        2.246451   -1.711201    3.005694
     25          6           0        7.220266   -1.696905    0.981127
     26          6           0       -3.130459    2.317988   -1.225551
     27          6           0       -0.994135   -1.745783    2.483618
     28          6           0       -3.072016    0.867655   -0.888945
     29          6           0       -1.582166    4.387468   -0.882473
     30          6           0        8.071613   -0.935624   -2.012255
     31          6           0       -1.888201    5.146179    0.393577
     32          6           0       -4.353233    2.937295   -1.759527
     33          6           0       -4.087699   -0.092332   -1.235380
     34          6           0       -2.371314   -1.929220    3.090089
     35          6           0       -3.774941   -1.505103   -1.024315
     36          6           0        9.239204   -0.672948   -1.387943
     37          6           0       -1.263364    6.549275    0.305834
     38          6           0       -4.754209   -2.624229   -1.282228
     39          6           0       -3.970371   -3.734886   -1.164397
     40          6           0       -2.700112   -3.317731   -0.508955
     41          6           0       -6.102515   -2.421080   -1.880686
     42          6           0       -4.354861   -5.168517   -1.136584
     43          6           0       -6.905580   -3.290109   -2.473391
     44          1           0        4.656650   -2.165334    0.142706
     45          1           0        5.012806    0.607915    1.071515
     46          1           0        5.015786   -0.599409    2.090085
     47          1           0        2.744377    1.492741   -0.250207
     48          1           0        3.454328   -0.695200   -1.627661
     49          1           0       -0.485864   -0.028892    3.619185
     50          1           0       -1.467507    0.485479    2.197268
     51          1           0        0.408115    2.932569   -0.100110
     52          1           0        3.399351   -1.840896    3.229700
     53          1           0        1.685557   -1.784502    3.951744
     54          1           0        1.955482   -2.719673    2.691889
     55          1           0        6.789197   -2.454313    1.529420
     56          1           0        7.497703   -0.840453    1.677082
     57          1           0        8.040947   -2.299899    0.517015
     58          1           0       -1.010964   -2.106109    1.406619
     59          1           0       -0.190632   -2.300642    2.957725
     60          1           0       -1.649816   -0.341148   -0.199609
     61          1           0       -2.064272    5.098825   -1.732380
     62          1           0       -0.558475    4.717097   -1.301693
     63          1           0        7.974707   -1.061817   -3.084424
     64          1           0       -1.386239    4.948657    1.332463
     65          1           0       -2.964300    5.364720    0.864959
     66          1           0       -4.114812    4.054462   -1.735250
     67          1           0       -5.306347    2.858984   -1.209240
     68          1           0       -4.826562    2.536338   -2.803886
     69          1           0       -5.221316    0.114723   -1.611807
     70          1           0        9.174764   -0.359600   -0.433166
     71          1           0       10.111230   -0.963223   -1.901933
     72          1           0       -3.688503   -3.141846    3.514880
     73          1           0       -6.419607   -1.293993   -2.070177
     74          1           0       -4.171616   -5.532188   -2.281008
     75          1           0       -3.744125   -5.949150   -0.754354
     76          1           0       -5.440923   -5.366431   -0.767350
     77          1           0       -1.149080    8.060370    1.294516
     78          1           0       -7.910635   -2.993019   -2.913530
     79          1           0       -6.580205   -4.204520   -2.360669
 ---------------------------------------------------------------------

 SCF Done:  E(RB3LYP) =  -1947.81953567     A.U. after   16 cycles

 Excitation energies and oscillator strengths:

 Excited State   1:      Singlet-A      2.1071 eV  588.41 nm  f=0.4372  <S**2>=0.000
     155 ->156         0.70019
     155 <-156        -0.11015
 This state for optimization and/or second-order correction.
 Total Energy, E(TD-HF/TD-KS) =  -1947.74210072
 Copying the excited state density for this state as the 1-particle RhoCI density.

 The electronic state is 1-A.
 Alpha  occ. eigenvalues --  -19.19282 -19.17413 -19.15584 -19.10995 -19.09663
 Alpha  occ. eigenvalues --  -19.08947 -14.39151 -14.36917 -14.36077 -14.28522
 Alpha  occ. eigenvalues --  -10.32970 -10.29427 -10.28766 -10.25473 -10.24842
 Alpha  occ. eigenvalues --  -10.24751 -10.24038 -10.23739 -10.23444 -10.23394
 Alpha  occ. eigenvalues --  -10.22822 -10.22732 -10.21777 -10.21565 -10.21425
 Alpha  occ. eigenvalues --  -10.20992 -10.20846 -10.20771 -10.20733 -10.20729
 Alpha  occ. eigenvalues --  -10.20338 -10.20266 -10.19938 -10.19818 -10.19794
 Alpha  occ. eigenvalues --  -10.19474 -10.19423 -10.19382 -10.19111 -10.19040
 Alpha  occ. eigenvalues --  -10.18403 -10.18198 -10.17818  -1.14130  -1.11634
 Alpha  occ. eigenvalues --   -1.04667  -1.02379  -1.02295  -1.00150  -0.99570
 Alpha  occ. eigenvalues --   -0.99394  -0.95648  -0.91991  -0.83570  -0.81857
 Alpha  occ. eigenvalues --   -0.81329  -0.80701  -0.80281  -0.79809  -0.78994
 Alpha  occ. eigenvalues --   -0.76595  -0.75806  -0.74991  -0.74299  -0.72360
 Alpha  occ. eigenvalues --   -0.71821  -0.70923  -0.69608  -0.69034  -0.68807
 Alpha  occ. eigenvalues --   -0.67772  -0.66596  -0.64169  -0.61660  -0.60763
 Alpha  occ. eigenvalues --   -0.60326  -0.59684  -0.57876  -0.57489  -0.56882
 Alpha  occ. eigenvalues --   -0.56112  -0.55767  -0.55062  -0.54373  -0.53318
 Alpha  occ. eigenvalues --   -0.52710  -0.51781  -0.51210  -0.50752  -0.50130
 Alpha  occ. eigenvalues --   -0.49648  -0.49347  -0.48819  -0.48461  -0.48311
 Alpha  occ. eigenvalues --   -0.47483  -0.47237  -0.47046  -0.46485  -0.46405
 Alpha  occ. eigenvalues --   -0.45616  -0.45428  -0.45032  -0.44353  -0.44113
 Alpha  occ. eigenvalues --   -0.43607  -0.43473  -0.43242  -0.42721  -0.42599
 Alpha  occ. eigenvalues --   -0.42379  -0.42078  -0.41797  -0.41726  -0.41575
 Alpha  occ. eigenvalues --   -0.40936  -0.40436  -0.40154  -0.40083  -0.40000
 Alpha  occ. eigenvalues --   -0.39286  -0.39116  -0.38993  -0.38774  -0.38493
 Alpha  occ. eigenvalues --   -0.38413  -0.38127  -0.37853  -0.37434  -0.36262
 Alpha  occ. eigenvalues --   -0.35538  -0.34987  -0.34368  -0.34054  -0.33850
 Alpha  occ. eigenvalues --   -0.33662  -0.32658  -0.32435  -0.31681  -0.31040
 Alpha  occ. eigenvalues --   -0.30561  -0.30542  -0.30148  -0.28607  -0.27490
 Alpha  occ. eigenvalues --   -0.27409  -0.26612  -0.26209  -0.25216  -0.24450
 Alpha  occ. eigenvalues --   -0.24157  -0.23637  -0.23358  -0.22299  -0.18531
 Alpha virt. eigenvalues --   -0.10268  -0.06110  -0.04367  -0.00800  -0.00272
 Alpha virt. eigenvalues --    0.00487   0.01642   0.02233   0.02948   0.03434
 Alpha virt. eigenvalues --    0.03598   0.04315   0.04482   0.04561   0.05143

 Mulliken charges:
               1
     1  O   -0.178042
     2  O   -0.038175
     3  O   -0.262384
     4  O   -0.238940
     5  O   -0.157151
     6  O   -0.179952
     7  N   -0.033405
     8  N   -0.225867
     9  N    0.018871
    10  N   -0.271752
    11  C    0.045140
    12  C    0.376570
    13  C   -0.082967
    14  C   -0.099072
    15  C    0.010394
    16  C    0.073414
    17  C   -0.271366
    18  C   -0.054942
    19  C   -0.077997
    20  C   -0.073120
    21  C    0.019713
    22  C    0.153645
    23  C    0.043314
    24  C    0.049686
    25  C    0.122332
    26  C   -0.110485
    27  C   -0.075886
    28  C    0.106785
    29  C   -0.024151
    30  C   -0.033409
    31  C   -0.001289
    32  C    0.026362
    33  C   -0.142722
    34  C    0.074575
    35  C    0.040399
    36  C    0.061233
    37  C    0.102124
    38  C    0.045085
    39  C   -0.166486
    40  C    0.112804
    41  C   -0.073227
    42  C    0.038235
    43  C    0.045344
    44  H    0.032756
    45  H   -0.131584
    46  H    0.010405
    47  H    0.135180
    48  H    0.146026
    49  H    0.017173
    50  H    0.054174
    51  H   -0.051050
    52  H    0.005684
    53  H    0.011874
    54  H    0.029239
    55  H   -0.014718
    56  H    0.054509
    57  H    0.036278
    58  H    0.079484
    59  H   -0.010242
    60  H    0.138330
    61  H    0.043820
    62  H    0.046728
    63  H    0.009629
    64  H    0.026014
    65  H    0.077740
    66  H    0.019696
    67  H    0.022438
    68  H    0.041326
    69  H    0.031981
    70  H   -0.015505
    71  H    0.019117
    72  H    0.192893
    73  H    0.007870
    74  H    0.030618
    75  H    0.012412
    76  H    0.049029
    77  H    0.155560
    78  H    0.040941
    79  H   -0.049060
 Sum of Mulliken charges =   0.00000

 Dipole moment (field-independent basis, Debye):
    X=              0.4032    Y=              1.6134    Z=              3.1955  Tot=              3.6023
 Quadrupole moment (field-independent basis, Debye-Ang):
   XX=           -222.9893   YY=           -244.0463   ZZ=           -264.5736
   XY=             -0.1758   XZ=             28.4285   YZ=             -5.4215

 Normal termination of Gaussian 09 at Tue Jul  9 15:45:21 2019.
