 Gaussian 09, Revision D.01,
 Gaussian 09:  ES64L-G09RevD.01 24-Apr-2013

 --------------------------
 # td=(NStates=1) B3LYP/SVP
 --------------------------

 --
 TD
 --
 Symbolic Z-matrix:
 Charge =  0 Multiplicity = 1

                         Standard orientation:
 ---------------------------------------------------------------------
 Center     Atomic      Atomic             Coordinates (Angstroms)
 Number     Number       Type             X           Y           Z
 ---------------------------------------------------------------------
      1          8           0        5.247649   -0.095240   -3.338993
      2          8           0       -2.797441   -3.356109    3.329799
      3          8           0       -3.151518   -1.123469    3.278489
      4          8           0       -1.375520    7.136130    1.692524
      5          8           0       -0.482273    7.096959   -0.308562
      6          8           0       -2.151489   -3.970193   -0.201222
      7          7           0        2.345583    0.819183    0.563796
      8          7           0        4.336862   -0.818117   -1.321005
      9          7           0       -1.938841    0.644515   -0.390896
     10          7           0       -2.780561   -1.700599   -0.417390
     11          6           0        4.793865   -1.287999   -0.041404
     12          6           0        4.438696   -0.414207    1.254819
     13          6           0        2.991025   -0.130334    1.335821
     14          6           0        2.067918   -0.794221    2.144112
     15          6           0        0.797238   -0.219698    1.719034
     16          6           0        1.014189    0.789171    0.827174
     17          6           0        6.262399   -1.505657   -0.268332
     18          6           0       -0.511105   -0.484158    2.504797
     19          6           0        6.635599   -0.878989   -1.488004
     20          6           0        0.203326    1.901409    0.239538
     21          6           0       -1.119424    1.841094   -0.181785
     22          6           0        5.394338   -0.507442   -2.228466
     23          6           0       -1.847019    2.893843   -0.760347
     24          6           0        2.361273   -1.844354    3.181923
     25          6           0        7.192816   -1.979942    0.797669
     26          6           0       -3.046734    2.483135   -1.214056
     27          6           0       -1.050941   -1.953561    2.494296
     28          6           0       -3.007754    1.163239   -0.903810
     29          6           0       -1.297507    4.347833   -0.759607
     30          6           0        7.936058   -0.752255   -2.242752
     31          6           0       -1.487249    5.044820    0.580618
     32          6           0       -4.157886    3.255684   -1.878931
     33          6           0       -4.089039    0.169531   -1.260089
     34          6           0       -2.352973   -2.036632    3.005494
     35          6           0       -3.851033   -1.201038   -1.066477
     36          6           0        9.176632   -0.616401   -1.684939
     37          6           0       -1.077745    6.561678    0.550047
     38          6           0       -4.831171   -2.339170   -1.538843
     39          6           0       -4.288931   -3.506000   -1.185197
     40          6           0       -2.978086   -3.135048   -0.594521
     41          6           0       -6.180853   -2.065019   -1.995311
     42          6           0       -4.719950   -4.968527   -1.365800
     43          6           0       -6.896062   -2.790340   -2.842768
     44          1           0        4.510787   -2.412454    0.230250
     45          1           0        5.081347    0.451284    0.969568
     46          1           0        5.004798   -1.008987    2.051701
     47          1           0        2.842936    1.611276   -0.084256
     48          1           0        3.487169   -0.877526   -1.753510
     49          1           0       -0.247464   -0.388704    3.608411
     50          1           0       -1.216913    0.143358    2.129433
     51          1           0        0.864259    2.657621   -0.107684
     52          1           0        3.415723   -1.675492    3.707097
     53          1           0        1.446437   -1.570895    3.884503
     54          1           0        2.383483   -3.039834    2.928365
     55          1           0        6.543457   -2.725684    1.405695
     56          1           0        7.812210   -1.088727    1.452498
     57          1           0        7.939629   -2.646069    0.391722
     58          1           0       -1.239266   -2.327805    1.563707
     59          1           0       -0.317903   -2.664200    2.971531
     60          1           0       -1.937316   -0.242477    0.011606
     61          1           0       -1.853406    5.153037   -1.286299
     62          1           0       -0.205351    4.347484   -1.036112
     63          1           0        7.668810   -0.687409   -3.405365
     64          1           0       -0.840924    4.613634    1.525164
     65          1           0       -2.557298    4.857467    0.915889
     66          1           0       -3.892621    4.393587   -1.919644
     67          1           0       -5.111805    3.491658   -1.174002
     68          1           0       -4.595015    2.745997   -2.811344
     69          1           0       -4.895257    0.542132   -2.009254
     70          1           0        9.186066   -0.537893   -0.582821
     71          1           0       10.120305   -0.771330   -2.209983
     72          1           0       -3.551090   -3.150650    3.956286
     73          1           0       -6.639459   -1.109769   -1.270248
     74          1           0       -4.545219   -5.361293   -2.491883
     75          1           0       -4.080494   -5.587462   -0.955501
     76          1           0       -5.895673   -5.394909   -1.196019
     77          1           0       -1.081843    8.073899    1.730041
     78          1           0       -8.067048   -2.354284   -3.066278
     79          1           0       -6.436078   -3.820738   -3.534509
 ---------------------------------------------------------------------

 SCF Done:  E(RB3LYP) =  -1947.78554438     A.U. after   20 cycles

 Excitation energies and oscillator strengths:

 Excited State   1:      Singlet-A      2.1593 eV  574.20 nm  f=0.5032  <S**2>=0.000
     155 ->156         0.70476
     155 <-156        -0.11974
 This state for optimization and/or second-order correction.
 Total Energy, E(TD-HF/TD-KS) =  -1947.70619334
 Copying the excited state density for this state as the 1-particle RhoCI density.

 The electronic state is 1-A.
 Alpha  occ. eigenvalues --  -19.19295 -19.14777 -19.13641 -19.11163 -19.10960
 Alpha  occ. eigenvalues --  -19.09585 -14.39765 -14.36549 -14.34759 -14.29317
 Alpha  occ. eigenvalues --  -10.32876 -10.30239 -10.28722 -10.26263 -10.26087
 Alpha  occ. eigenvalues --  -10.25099 -10.24343 -10.23821 -10.23558 -10.23533
 Alpha  occ. eigenvalues --  -10.23094 -10.23047 -10.22983 -10.22945 -10.22937
 Alpha  occ. eigenvalues --  -10.22928 -10.22867 -10.22215 -10.21977 -10.21969
 Alpha  occ. eigenvalues --  -10.21723 -10.21072 -10.21047 -10.20748 -10.20346
 Alpha  occ. eigenvalues --  -10.19962 -10.19860 -10.19850 -10.19844 -10.19698
 Alpha  occ. eigenvalues --  -10.19468 -10.19106 -10.18473  -1.12343  -1.04986
 Alpha  occ. eigenvalues --   -1.04194  -1.03059  -1.00810  -0.99597  -0.99273
 Alpha  occ. eigenvalues --   -0.95949  -0.94147  -0.90397  -0.84528  -0.82013
 Alpha  occ. eigenvalues --   -0.81600  -0.81417  -0.80045  -0.79750  -0.78417
 Alpha  occ. eigenvalues --   -0.77883  -0.76319  -0.75000  -0.73713  -0.72051
 Alpha  occ. eigenvalues --   -0.71448  -0.71158  -0.69480  -0.68876  -0.68271
 Alpha  occ. eigenvalues --   -0.67646  -0.66218  -0.63732  -0.61388  -0.60426
 Alpha  occ. eigenvalues --   -0.60101  -0.58409  -0.57428  -0.57278  -0.56605
 Alpha  occ. eigenvalues --   -0.55965  -0.55635  -0.54110  -0.53823  -0.52819
 Alpha  occ. eigenvalues --   -0.52084  -0.51024  -0.50789  -0.50377  -0.49680
 Alpha  occ. eigenvalues --   -0.49364  -0.49038  -0.48653  -0.48331  -0.47885
 Alpha  occ. eigenvalues --   -0.47158  -0.46551  -0.46291  -0.45709  -0.45405
 Alpha  occ. eigenvalues --   -0.44892  -0.44624  -0.44457  -0.43902  -0.43229
 Alpha  occ. eigenvalues --   -0.43066  -0.42961  -0.42614  -0.42372  -0.42307
 Alpha  occ. eigenvalues --   -0.42061  -0.41908  -0.41433  -0.41173  -0.40935
 Alpha  occ. eigenvalues --   -0.40580  -0.40088  -0.39558  -0.39412  -0.39231
 Alpha  occ. eigenvalues --   -0.39130  -0.38910  -0.38615  -0.38513  -0.38084
 Alpha  occ. eigenvalues --   -0.37781  -0.37689  -0.37356  -0.37243  -0.36772
 Alpha  occ. eigenvalues --   -0.36003  -0.35464  -0.34855  -0.34764  -0.34098
 Alpha  occ. eigenvalues --   -0.33980  -0.33533  -0.33295  -0.32243  -0.30753
 Alpha  occ. eigenvalues --   -0.30647  -0.29612  -0.29394  -0.29129  -0.27754
 Alpha  occ. eigenvalues --   -0.27219  -0.26836  -0.26498  -0.26090  -0.24950
 Alpha  occ. eigenvalues --   -0.24273  -0.23871  -0.23410  -0.22847  -0.19292
 Alpha virt. eigenvalues --   -0.10957  -0.07103  -0.05843  -0.00282   0.00107
 Alpha virt. eigenvalues --    0.00205   0.00568   0.00806   0.01121   0.02042
 Alpha virt. eigenvalues --    0.02440   0.03138   0.03663   0.03811   0.04156

 Mulliken charges:
               1
     1  O   -0.188611
     2  O   -0.260548
     3  O   -0.269033
     4  O   -0.160667
     5  O   -0.187620
     6  O   -0.230091
     7  N   -0.123156
     8  N   -0.184227
     9  N    0.006549
    10  N   -0.330064
    11  C    0.045275
    12  C    0.165486
    13  C   -0.009228
    14  C   -0.092447
    15  C   -0.124442
    16  C    0.048611
    17  C   -0.178584
    18  C    0.108747
    19  C   -0.098445
    20  C   -0.059878
    21  C    0.152119
    22  C    0.134527
    23  C   -0.079084
    24  C   -0.032696
    25  C    0.024448
    26  C   -0.101654
    27  C    0.109100
    28  C    0.034451
    29  C    0.107408
    30  C   -0.033750
    31  C   -0.116337
    32  C    0.029458
    33  C   -0.142477
    34  C    0.124714
    35  C    0.098024
    36  C   -0.028353
    37  C    0.113012
    38  C   -0.008510
    39  C   -0.112950
    40  C    0.170511
    41  C   -0.046612
    42  C    0.083350
    43  C   -0.131076
    44  H    0.033939
    45  H   -0.014575
    46  H    0.017508
    47  H    0.176821
    48  H    0.098652
    49  H    0.028201
    50  H   -0.028728
    51  H   -0.023999
    52  H    0.035497
    53  H    0.040998
    54  H    0.067995
    55  H    0.023242
    56  H    0.080858
    57  H    0.032886
    58  H    0.018818
    59  H    0.037959
    60  H    0.119728
    61  H    0.025879
    62  H    0.027152
    63  H    0.055283
    64  H    0.057321
    65  H    0.049257
    66  H    0.024433
    67  H    0.041004
    68  H    0.062984
    69  H    0.007062
    70  H    0.020526
    71  H    0.038785
    72  H    0.186362
    73  H    0.061873
    74  H    0.023464
    75  H   -0.029222
    76  H    0.051888
    77  H    0.189340
    78  H    0.055830
    79  H    0.079726
 Sum of Mulliken charges =   0.00000

 Dipole moment (field-independent basis, Debye):
    X=              2.6395    Y=              4.1400    Z=              3.1357  Tot=              5.8257
 Quadrupole moment (field-independent basis, Debye-Ang):
   XX=           -224.6329   YY=           -242.4434   ZZ=           -263.0093
   XY=            -19.7413   XZ=             32.2610   YZ=              8.5242

 Normal termination of Gaussian 09 at Mon Jul  8 05:39:34 2019.
