 Gaussian 09, Revision D.01,
 Gaussian 09:  ES64L-G09RevD.01 24-Apr-2013

 --------------------------
 # td=(NStates=1) B3LYP/SVP
 --------------------------

 --
 TD
 --
 Symbolic Z-matrix:
 Charge =  0 Multiplicity = 1

                         Standard orientation:
 ---------------------------------------------------------------------
 Center     Atomic      Atomic             Coordinates (Angstroms)
 Number     Number       Type             X           Y           Z
 ---------------------------------------------------------------------
      1          8           0        5.211979   -0.187452   -3.320255
      2          8           0       -2.950075   -3.104478    3.148126
      3          8           0       -3.197897   -0.881265    3.254527
      4          8           0       -1.462810    7.407147    1.396704
      5          8           0       -0.459130    6.925548   -0.434763
      6          8           0       -1.875080   -3.934876   -0.037075
      7          7           0        2.295744    0.872500    0.577370
      8          7           0        4.421480   -0.763779   -1.258745
      9          7           0       -1.994628    0.648961   -0.360953
     10          7           0       -2.642825   -1.809264   -0.509501
     11          6           0        4.903201   -1.261753    0.008474
     12          6           0        4.490861   -0.317272    1.171550
     13          6           0        3.038054   -0.054419    1.437194
     14          6           0        1.999045   -0.746576    2.180720
     15          6           0        0.740314   -0.110774    1.783641
     16          6           0        0.946030    0.799859    0.774131
     17          6           0        6.430150   -1.298150   -0.266372
     18          6           0       -0.534880   -0.359277    2.491334
     19          6           0        6.640733   -1.018410   -1.521241
     20          6           0        0.130018    1.799055    0.147409
     21          6           0       -1.220313    1.770278   -0.272617
     22          6           0        5.444904   -0.647147   -2.175464
     23          6           0       -1.982489    2.929401   -0.839057
     24          6           0        2.263454   -1.777858    3.226724
     25          6           0        7.378753   -1.691300    0.852429
     26          6           0       -3.204791    2.379888   -1.187744
     27          6           0       -1.078052   -1.739413    2.428390
     28          6           0       -3.234885    1.033410   -0.962313
     29          6           0       -1.534148    4.404885   -0.811060
     30          6           0        7.970478   -0.669597   -2.121555
     31          6           0       -1.793860    5.160626    0.457992
     32          6           0       -4.378119    3.097415   -1.885094
     33          6           0       -4.077258    0.027409   -1.183164
     34          6           0       -2.478033   -1.845145    2.998113
     35          6           0       -3.823278   -1.387605   -1.008995
     36          6           0        9.197582   -0.701328   -1.574414
     37          6           0       -1.146000    6.525740    0.410760
     38          6           0       -4.729087   -2.541424   -1.377894
     39          6           0       -3.922551   -3.668872   -1.093196
     40          6           0       -2.711574   -3.157167   -0.458083
     41          6           0       -6.008583   -2.399992   -1.992257
     42          6           0       -4.345759   -5.123259   -1.297206
     43          6           0       -6.843124   -3.217006   -2.646843
     44          1           0        4.497058   -2.314938    0.440364
     45          1           0        5.208809    0.682888    1.173156
     46          1           0        4.926097   -0.909026    2.159914
     47          1           0        2.786113    1.316065   -0.184169
     48          1           0        3.424524   -0.932755   -1.476662
     49          1           0       -0.287774   -0.027331    3.497593
     50          1           0       -1.292138    0.404428    2.243165
     51          1           0        0.392659    2.962740    0.327198
     52          1           0        3.368574   -1.775439    3.464839
     53          1           0        1.827007   -1.242970    4.249205
     54          1           0        1.896351   -2.817605    3.124019
     55          1           0        6.913726   -2.427651    1.735875
     56          1           0        7.417487   -0.913521    1.602008
     57          1           0        8.233098   -1.987648    0.457071
     58          1           0       -1.284486   -2.280540    1.466277
     59          1           0       -0.652104   -2.514127    3.024314
     60          1           0       -1.581540   -0.368820   -0.154786
     61          1           0       -1.931178    4.977300   -1.616372
     62          1           0       -0.517258    4.184191   -1.091638
     63          1           0        7.731983   -0.281082   -3.192809
     64          1           0       -1.243093    4.626842    1.287124
     65          1           0       -2.822871    5.105514    0.685888
     66          1           0       -4.023317    4.144755   -2.129368
     67          1           0       -5.108568    3.269437   -1.160446
     68          1           0       -4.577538    2.455550   -2.856724
     69          1           0       -5.037307    0.391731   -1.598354
     70          1           0        9.298446   -0.726258   -0.533395
     71          1           0       10.027343   -0.491417   -2.242750
     72          1           0       -3.866234   -2.998485    3.307766
     73          1           0       -6.430147   -1.426908   -2.278682
     74          1           0       -4.257524   -5.544377   -2.386983
     75          1           0       -3.804690   -5.904948   -0.636937
     76          1           0       -5.427115   -5.186209   -1.114729
     77          1           0       -1.241159    8.137163    0.943333
     78          1           0       -7.878556   -3.006245   -3.069380
     79          1           0       -6.539726   -4.181546   -2.825974
 ---------------------------------------------------------------------

 SCF Done:  E(RB3LYP) =  -1947.86892457     A.U. after   17 cycles

 Excitation energies and oscillator strengths:

 Excited State   1:      Singlet-A      1.9765 eV  627.31 nm  f=0.3962  <S**2>=0.000
     152 ->156        -0.10628
     155 ->156         0.69237
     155 <-156        -0.11629
 This state for optimization and/or second-order correction.
 Total Energy, E(TD-HF/TD-KS) =  -1947.79629135
 Copying the excited state density for this state as the 1-particle RhoCI density.

 The electronic state is 1-A.
 Alpha  occ. eigenvalues --  -19.17418 -19.16671 -19.14017 -19.10556 -19.10509
 Alpha  occ. eigenvalues --  -19.09717 -14.37337 -14.35706 -14.35330 -14.30008
 Alpha  occ. eigenvalues --  -10.32817 -10.30191 -10.28429 -10.26386 -10.25762
 Alpha  occ. eigenvalues --  -10.25214 -10.24592 -10.24201 -10.24091 -10.23784
 Alpha  occ. eigenvalues --  -10.22799 -10.22663 -10.22518 -10.22436 -10.22329
 Alpha  occ. eigenvalues --  -10.21636 -10.21533 -10.21450 -10.21253 -10.21175
 Alpha  occ. eigenvalues --  -10.21103 -10.20841 -10.20748 -10.20429 -10.20416
 Alpha  occ. eigenvalues --  -10.20258 -10.20023 -10.19761 -10.19678 -10.19171
 Alpha  occ. eigenvalues --  -10.19023 -10.18515 -10.18472  -1.13860  -1.08543
 Alpha  occ. eigenvalues --   -1.03339  -1.02384  -1.01377  -0.98071  -0.97459
 Alpha  occ. eigenvalues --   -0.96369  -0.93844  -0.93234  -0.83313  -0.83202
 Alpha  occ. eigenvalues --   -0.82066  -0.81144  -0.80965  -0.79544  -0.78875
 Alpha  occ. eigenvalues --   -0.76911  -0.76292  -0.75641  -0.74869  -0.73421
 Alpha  occ. eigenvalues --   -0.72608  -0.71330  -0.69966  -0.69293  -0.68105
 Alpha  occ. eigenvalues --   -0.67542  -0.66060  -0.63951  -0.61544  -0.61374
 Alpha  occ. eigenvalues --   -0.60492  -0.59603  -0.58957  -0.58017  -0.56509
 Alpha  occ. eigenvalues --   -0.55933  -0.55190  -0.54958  -0.54180  -0.53751
 Alpha  occ. eigenvalues --   -0.52627  -0.52369  -0.51435  -0.50994  -0.50593
 Alpha  occ. eigenvalues --   -0.49782  -0.49223  -0.48882  -0.48345  -0.47864
 Alpha  occ. eigenvalues --   -0.47135  -0.46833  -0.46570  -0.46457  -0.46212
 Alpha  occ. eigenvalues --   -0.45943  -0.45411  -0.44686  -0.44412  -0.44110
 Alpha  occ. eigenvalues --   -0.43938  -0.43688  -0.43306  -0.43223  -0.42872
 Alpha  occ. eigenvalues --   -0.42490  -0.42022  -0.41950  -0.41437  -0.41352
 Alpha  occ. eigenvalues --   -0.40514  -0.40321  -0.40257  -0.39706  -0.39454
 Alpha  occ. eigenvalues --   -0.39328  -0.39122  -0.38829  -0.38723  -0.38574
 Alpha  occ. eigenvalues --   -0.38160  -0.38011  -0.37597  -0.37164  -0.36702
 Alpha  occ. eigenvalues --   -0.36302  -0.35889  -0.35635  -0.35488  -0.34599
 Alpha  occ. eigenvalues --   -0.33979  -0.33784  -0.33745  -0.32731  -0.31706
 Alpha  occ. eigenvalues --   -0.31325  -0.30565  -0.29948  -0.28969  -0.28651
 Alpha  occ. eigenvalues --   -0.26283  -0.26100  -0.25982  -0.25551  -0.24670
 Alpha  occ. eigenvalues --   -0.24443  -0.23992  -0.23708  -0.22777  -0.19687
 Alpha virt. eigenvalues --   -0.12006  -0.07213  -0.06561  -0.01383  -0.00513
 Alpha virt. eigenvalues --   -0.00160   0.00020   0.02277   0.02391   0.02793
 Alpha virt. eigenvalues --    0.03700   0.04377   0.04997   0.05608   0.05947

 Mulliken charges:
               1
     1  O   -0.256389
     2  O   -0.160782
     3  O   -0.263833
     4  O   -0.138041
     5  O   -0.178077
     6  O   -0.205768
     7  N   -0.126072
     8  N   -0.182138
     9  N   -0.174154
    10  N   -0.255369
    11  C    0.054762
    12  C    0.013526
    13  C   -0.013239
    14  C   -0.118534
    15  C   -0.106414
    16  C    0.095801
    17  C   -0.149197
    18  C    0.137383
    19  C   -0.046678
    20  C   -0.114890
    21  C    0.013252
    22  C    0.155573
    23  C   -0.101147
    24  C    0.036646
    25  C    0.127941
    26  C   -0.138148
    27  C    0.061686
    28  C    0.162531
    29  C    0.097203
    30  C   -0.044231
    31  C    0.065223
    32  C    0.118861
    33  C   -0.135698
    34  C    0.076165
    35  C    0.105659
    36  C    0.006245
    37  C    0.102085
    38  C    0.120404
    39  C   -0.149310
    40  C    0.127581
    41  C   -0.063189
    42  C    0.028192
    43  C   -0.054500
    44  H    0.044520
    45  H    0.032341
    46  H    0.015063
    47  H    0.113207
    48  H    0.142936
    49  H   -0.005684
    50  H    0.008864
    51  H    0.037519
    52  H    0.003944
    53  H    0.032900
    54  H    0.058528
    55  H    0.031994
    56  H    0.021874
    57  H    0.009060
    58  H    0.059439
    59  H    0.000632
    60  H    0.217768
    61  H   -0.000207
    62  H    0.020320
    63  H    0.037919
    64  H    0.042479
    65  H    0.026005
    66  H    0.008652
    67  H    0.017203
    68  H    0.065278
    69  H   -0.031097
    70  H    0.005264
    71  H    0.033148
    72  H    0.156730
    73  H   -0.000650
    74  H    0.045130
    75  H    0.047388
    76  H    0.024459
    77  H    0.120477
    78  H    0.043517
    79  H   -0.017841
 Sum of Mulliken charges =   0.00000

 Dipole moment (field-independent basis, Debye):
    X=             -0.8706    Y=              1.7796    Z=              2.0117  Tot=              2.8235
 Quadrupole moment (field-independent basis, Debye-Ang):
   XX=           -215.6876   YY=           -247.2365   ZZ=           -267.9147
   XY=            -11.6072   XZ=             40.1966   YZ=             -1.5669

 Normal termination of Gaussian 09 at Tue Jul  9 08:06:18 2019.
