 Gaussian 09, Revision D.01,
 Gaussian 09:  ES64L-G09RevD.01 24-Apr-2013

 --------------------------
 # td=(NStates=1) B3LYP/SVP
 --------------------------

 --
 TD
 --
 Symbolic Z-matrix:
 Charge =  0 Multiplicity = 1

                         Standard orientation:
 ---------------------------------------------------------------------
 Center     Atomic      Atomic             Coordinates (Angstroms)
 Number     Number       Type             X           Y           Z
 ---------------------------------------------------------------------
      1          8           0        5.484629   -0.221631   -3.414464
      2          8           0       -2.871841   -3.292470    3.201990
      3          8           0       -3.214264   -1.030368    3.381362
      4          8           0       -1.475468    7.280549    1.479488
      5          8           0       -0.414010    6.930829   -0.482420
      6          8           0       -2.132190   -3.988594   -0.204260
      7          7           0        2.405213    0.822042    0.686764
      8          7           0        4.445818   -0.678976   -1.321070
      9          7           0       -1.875475    0.720159   -0.374565
     10          7           0       -2.749377   -1.742000   -0.559345
     11          6           0        4.792773   -1.247307   -0.080141
     12          6           0        4.463310   -0.399353    1.186030
     13          6           0        3.053158   -0.075915    1.364556
     14          6           0        1.998937   -0.745643    2.146131
     15          6           0        0.811509   -0.210204    1.756768
     16          6           0        1.054595    0.851428    0.782738
     17          6           0        6.378313   -1.322378   -0.173676
     18          6           0       -0.475825   -0.448662    2.330803
     19          6           0        6.825083   -0.906442   -1.430226
     20          6           0        0.123450    1.883473    0.257219
     21          6           0       -1.111782    1.796564   -0.333969
     22          6           0        5.565962   -0.467933   -2.265167
     23          6           0       -1.932822    2.959249   -0.798525
     24          6           0        2.255348   -1.712916    3.268042
     25          6           0        7.234742   -1.860887    0.959929
     26          6           0       -3.164694    2.447833   -1.147020
     27          6           0       -1.127073   -1.878718    2.359118
     28          6           0       -3.059620    1.025912   -0.946081
     29          6           0       -1.426457    4.297459   -0.740618
     30          6           0        8.046134   -0.775107   -1.993514
     31          6           0       -1.656894    5.107984    0.561282
     32          6           0       -4.330078    3.209710   -1.715339
     33          6           0       -4.122614    0.154888   -1.214655
     34          6           0       -2.494347   -1.953903    3.007072
     35          6           0       -3.896818   -1.292223   -1.046194
     36          6           0        9.332088   -0.796732   -1.530600
     37          6           0       -1.093343    6.511521    0.417211
     38          6           0       -4.852821   -2.414440   -1.416421
     39          6           0       -4.178289   -3.535011   -1.237909
     40          6           0       -2.882118   -3.159491   -0.598378
     41          6           0       -6.180194   -2.143377   -2.032949
     42          6           0       -4.563949   -4.916639   -1.570289
     43          6           0       -7.081355   -3.062213   -2.413613
     44          1           0        4.284314   -2.312810    0.149955
     45          1           0        4.969559    0.521424    1.153883
     46          1           0        4.973062   -0.829045    1.946352
     47          1           0        2.674483    1.401778   -0.038494
     48          1           0        3.419643   -0.753490   -1.630015
     49          1           0       -0.701779   -0.402063    3.339932
     50          1           0       -1.195261    0.179985    1.932474
     51          1           0        0.788660    2.791120    0.213542
     52          1           0        3.355365   -1.403990    3.945491
     53          1           0        1.235569   -1.693576    4.043759
     54          1           0        2.283598   -2.727637    2.821037
     55          1           0        6.490207   -2.235035    1.816074
     56          1           0        7.699423   -1.116210    1.488631
     57          1           0        8.126632   -2.676435    0.743190
     58          1           0       -1.088938   -2.338155    1.463114
     59          1           0       -0.559599   -2.688317    2.694069
     60          1           0       -1.557757   -0.323016   -0.461783
     61          1           0       -1.902485    4.928270   -1.364972
     62          1           0       -0.406305    4.340871   -1.167246
     63          1           0        8.030538   -0.928827   -3.202526
     64          1           0       -1.305364    4.590082    1.388783
     65          1           0       -2.822162    5.007068    0.774217
     66          1           0       -4.076864    4.218362   -1.480340
     67          1           0       -5.092877    3.060606   -1.061997
     68          1           0       -4.573667    3.131373   -2.828297
     69          1           0       -5.045902    0.490389   -1.554331
     70          1           0        9.545657   -0.694650   -0.408176
     71          1           0       10.065229   -0.968850   -2.396518
     72          1           0       -3.770003   -3.218662    3.596930
     73          1           0       -6.267554   -0.984849   -2.377717
     74          1           0       -4.583932   -5.256922   -2.626017
     75          1           0       -3.857165   -5.671292   -0.924043
     76          1           0       -5.344459   -5.299196   -1.248251
     77          1           0       -1.076786    8.035362    1.350145
     78          1           0       -7.952138   -2.614259   -2.934607
     79          1           0       -7.184883   -4.357653   -2.141991
 ---------------------------------------------------------------------

 SCF Done:  E(RB3LYP) =  -1947.76543405     A.U. after   16 cycles

 Excitation energies and oscillator strengths:

 Excited State   1:      Singlet-A      2.1224 eV  584.17 nm  f=0.4978  <S**2>=0.000
     155 ->156         0.70274
     155 <-156        -0.10426
 This state for optimization and/or second-order correction.
 Total Energy, E(TD-HF/TD-KS) =  -1947.68743715
 Copying the excited state density for this state as the 1-particle RhoCI density.

 The electronic state is 1-A.
 Alpha  occ. eigenvalues --  -19.18382 -19.16230 -19.14643 -19.12678 -19.11904
 Alpha  occ. eigenvalues --  -19.10930 -14.39116 -14.36291 -14.35674 -14.29572
 Alpha  occ. eigenvalues --  -10.33686 -10.31128 -10.30358 -10.26524 -10.26165
 Alpha  occ. eigenvalues --  -10.24012 -10.23741 -10.23712 -10.23521 -10.22935
 Alpha  occ. eigenvalues --  -10.22579 -10.22543 -10.22464 -10.22092 -10.22025
 Alpha  occ. eigenvalues --  -10.21679 -10.21587 -10.21157 -10.20993 -10.20895
 Alpha  occ. eigenvalues --  -10.20610 -10.20504 -10.20262 -10.19725 -10.19719
 Alpha  occ. eigenvalues --  -10.19385 -10.18817 -10.18748 -10.18448 -10.18151
 Alpha  occ. eigenvalues --  -10.17578 -10.17320 -10.16703  -1.12311  -1.06315
 Alpha  occ. eigenvalues --   -1.05561  -1.03571  -1.03254  -1.01482  -0.99828
 Alpha  occ. eigenvalues --   -0.98025  -0.93308  -0.92496  -0.83613  -0.82239
 Alpha  occ. eigenvalues --   -0.82074  -0.81593  -0.80664  -0.80248  -0.78132
 Alpha  occ. eigenvalues --   -0.77174  -0.76419  -0.75580  -0.74485  -0.72908
 Alpha  occ. eigenvalues --   -0.71277  -0.70673  -0.70146  -0.69679  -0.69190
 Alpha  occ. eigenvalues --   -0.67601  -0.66034  -0.64319  -0.61996  -0.61782
 Alpha  occ. eigenvalues --   -0.60958  -0.58420  -0.58090  -0.57630  -0.57100
 Alpha  occ. eigenvalues --   -0.56354  -0.56311  -0.55208  -0.54440  -0.52847
 Alpha  occ. eigenvalues --   -0.52408  -0.51644  -0.51320  -0.50726  -0.49771
 Alpha  occ. eigenvalues --   -0.49661  -0.49187  -0.48566  -0.48221  -0.47262
 Alpha  occ. eigenvalues --   -0.46990  -0.46605  -0.46472  -0.46138  -0.45976
 Alpha  occ. eigenvalues --   -0.45389  -0.45007  -0.44782  -0.44096  -0.43681
 Alpha  occ. eigenvalues --   -0.43641  -0.43345  -0.43236  -0.42991  -0.42556
 Alpha  occ. eigenvalues --   -0.42196  -0.42099  -0.41871  -0.41441  -0.41192
 Alpha  occ. eigenvalues --   -0.40990  -0.40820  -0.40658  -0.40315  -0.40254
 Alpha  occ. eigenvalues --   -0.39789  -0.39550  -0.39274  -0.38844  -0.38749
 Alpha  occ. eigenvalues --   -0.38239  -0.38084  -0.37285  -0.36995  -0.36727
 Alpha  occ. eigenvalues --   -0.35813  -0.35543  -0.34812  -0.34664  -0.34510
 Alpha  occ. eigenvalues --   -0.34022  -0.33743  -0.32760  -0.32208  -0.31573
 Alpha  occ. eigenvalues --   -0.31315  -0.30659  -0.30320  -0.29035  -0.28354
 Alpha  occ. eigenvalues --   -0.27622  -0.27201  -0.26406  -0.26207  -0.24581
 Alpha  occ. eigenvalues --   -0.24171  -0.23882  -0.23787  -0.22651  -0.18433
 Alpha virt. eigenvalues --   -0.10128  -0.07092  -0.05733  -0.01590  -0.00303
 Alpha virt. eigenvalues --    0.00087   0.00931   0.01338   0.02295   0.03391
 Alpha virt. eigenvalues --    0.03841   0.03885   0.04215   0.04601   0.05214

 Mulliken charges:
               1
     1  O   -0.149539
     2  O   -0.224538
     3  O   -0.245292
     4  O   -0.114389
     5  O   -0.207774
     6  O   -0.159483
     7  N    0.083115
     8  N   -0.270825
     9  N   -0.021298
    10  N   -0.298565
    11  C    0.031558
    12  C    0.318432
    13  C   -0.133877
    14  C   -0.125215
    15  C   -0.000504
    16  C   -0.087125
    17  C   -0.143580
    18  C    0.133234
    19  C   -0.012595
    20  C   -0.130107
    21  C    0.114869
    22  C    0.195429
    23  C   -0.073598
    24  C   -0.037762
    25  C    0.032939
    26  C   -0.189739
    27  C    0.074716
    28  C    0.119756
    29  C    0.131841
    30  C   -0.107011
    31  C   -0.015641
    32  C    0.208151
    33  C   -0.106309
    34  C    0.153061
    35  C    0.054118
    36  C   -0.059609
    37  C    0.153384
    38  C    0.048002
    39  C   -0.184964
    40  C    0.149945
    41  C   -0.043285
    42  C    0.140887
    43  C   -0.082871
    44  H    0.044208
    45  H   -0.045791
    46  H   -0.073791
    47  H    0.082411
    48  H    0.149786
    49  H   -0.021574
    50  H   -0.023039
    51  H    0.002397
    52  H    0.048619
    53  H    0.054407
    54  H    0.042459
    55  H    0.030583
    56  H    0.013351
    57  H    0.072095
    58  H   -0.025578
    59  H   -0.020243
    60  H    0.194659
    61  H   -0.040989
    62  H    0.018114
    63  H    0.042284
    64  H    0.018488
    65  H    0.052697
    66  H   -0.026395
    67  H   -0.010737
    68  H    0.056813
    69  H   -0.059135
    70  H    0.034204
    71  H    0.050827
    72  H    0.177576
    73  H    0.039754
    74  H    0.028193
    75  H    0.022733
    76  H   -0.065398
    77  H    0.112384
    78  H    0.027977
    79  H    0.077707
 Sum of Mulliken charges =   0.00000

 Dipole moment (field-independent basis, Debye):
    X=              0.8956    Y=              2.3462    Z=              1.5763  Tot=              2.9651
 Quadrupole moment (field-independent basis, Debye-Ang):
   XX=           -217.4933   YY=           -245.5520   ZZ=           -266.4565
   XY=             -9.5307   XZ=             32.1032   YZ=              4.0391

 Normal termination of Gaussian 09 at Tue Jul  9 19:01:23 2019.
