 Gaussian 09, Revision D.01,
 Gaussian 09:  ES64L-G09RevD.01 24-Apr-2013

 --------------------------
 # td=(NStates=1) B3LYP/SVP
 --------------------------

 --
 TD
 --
 Symbolic Z-matrix:
 Charge =  0 Multiplicity = 1

                         Standard orientation:
 ---------------------------------------------------------------------
 Center     Atomic      Atomic             Coordinates (Angstroms)
 Number     Number       Type             X           Y           Z
 ---------------------------------------------------------------------
      1          8           0        5.241571   -0.444941   -3.314073
      2          8           0       -2.977233   -2.902947    3.155181
      3          8           0       -3.345838   -0.696154    3.005090
      4          8           0       -1.462581    7.205496    1.330451
      5          8           0        0.023151    6.826806   -0.341124
      6          8           0       -1.903640   -3.954135   -0.146173
      7          7           0        2.361645    0.887081    0.520089
      8          7           0        4.276381   -0.747223   -1.118596
      9          7           0       -1.784865    0.632893   -0.544186
     10          7           0       -2.594124   -1.820712   -0.544106
     11          6           0        4.774056   -1.325244    0.041442
     12          6           0        4.405446   -0.377250    1.268309
     13          6           0        2.893353   -0.037643    1.424265
     14          6           0        1.956583   -0.629503    2.223788
     15          6           0        0.751736    0.039449    1.901974
     16          6           0        1.015666    0.812378    0.766524
     17          6           0        6.296528   -1.454031   -0.159652
     18          6           0       -0.591544   -0.195765    2.663975
     19          6           0        6.620050   -1.106041   -1.409717
     20          6           0        0.263696    1.866576    0.081527
     21          6           0       -1.026702    1.782045   -0.343315
     22          6           0        5.359940   -0.674741   -2.158544
     23          6           0       -1.847737    2.914839   -0.898023
     24          6           0        2.076423   -1.655138    3.285888
     25          6           0        7.196518   -1.957988    0.912223
     26          6           0       -3.035510    2.474736   -1.183483
     27          6           0       -1.081951   -1.607834    2.546745
     28          6           0       -3.045682    0.975496   -0.951406
     29          6           0       -1.228860    4.358140   -0.950483
     30          6           0        7.897549   -0.940040   -2.101791
     31          6           0       -1.614259    5.010029    0.292753
     32          6           0       -4.230341    3.074779   -1.790635
     33          6           0       -4.038162    0.048671   -1.190951
     34          6           0       -2.652759   -1.676226    2.940997
     35          6           0       -3.858228   -1.356994   -0.976231
     36          6           0        9.079930   -0.893357   -1.637004
     37          6           0       -0.876540    6.374891    0.327835
     38          6           0       -4.823620   -2.426356   -1.360549
     39          6           0       -4.183427   -3.542112   -1.037105
     40          6           0       -2.797857   -3.157900   -0.551847
     41          6           0       -6.099497   -2.172989   -1.926098
     42          6           0       -4.665798   -4.980149   -1.138101
     43          6           0       -6.864553   -3.023226   -2.634313
     44          1           0        4.234807   -2.094634    0.604988
     45          1           0        5.041057    0.674305    1.270646
     46          1           0        4.791624   -0.799111    2.164499
     47          1           0        2.795220    1.141724   -0.433686
     48          1           0        3.425285   -1.090609   -1.743422
     49          1           0       -0.440326    0.043472    3.682119
     50          1           0       -1.281287    0.625557    2.229352
     51          1           0        0.784548    2.707970   -0.087301
     52          1           0        3.178393   -1.328701    3.551449
     53          1           0        1.515280   -1.440353    4.192601
     54          1           0        2.051262   -2.690459    3.061483
     55          1           0        6.839201   -2.792135    1.571549
     56          1           0        7.756222   -1.255827    1.773928
     57          1           0        8.072148   -2.313806    0.261084
     58          1           0       -1.100039   -2.039724    1.665498
     59          1           0       -0.701132   -2.273639    3.390962
     60          1           0       -1.478873   -0.284402   -0.504339
     61          1           0       -1.707395    4.700645   -1.868761
     62          1           0       -0.201470    4.476674   -1.257051
     63          1           0        7.742626   -0.952708   -3.195844
     64          1           0       -1.217187    4.594815    1.082605
     65          1           0       -2.796524    5.152770    0.336896
     66          1           0       -3.921511    4.037791   -2.288509
     67          1           0       -5.143977    3.127247   -1.103722
     68          1           0       -4.564677    2.521799   -2.709034
     69          1           0       -5.208603    0.276167   -1.391894
     70          1           0        9.134908   -0.726208   -0.606068
     71          1           0       10.010562   -0.907720   -2.328414
     72          1           0       -3.972274   -2.916216    3.306723
     73          1           0       -6.354640   -1.055977   -2.164828
     74          1           0       -4.676891   -5.619346   -2.234548
     75          1           0       -3.915457   -5.571259   -0.472425
     76          1           0       -5.705386   -4.980454   -0.573589
     77          1           0       -0.891333    7.887786    1.193630
     78          1           0       -7.904425   -2.855880   -3.033138
     79          1           0       -6.753111   -4.165825   -2.724660
 ---------------------------------------------------------------------

 SCF Done:  E(RB3LYP) =  -1947.83119034     A.U. after   17 cycles

 Excitation energies and oscillator strengths:

 Excited State   1:      Singlet-A      2.1224 eV  584.16 nm  f=0.3913  <S**2>=0.000
     152 ->156         0.10044
     155 ->156         0.70119
 This state for optimization and/or second-order correction.
 Total Energy, E(TD-HF/TD-KS) =  -1947.75319219
 Copying the excited state density for this state as the 1-particle RhoCI density.

 The electronic state is 1-A.
 Alpha  occ. eigenvalues --  -19.18598 -19.17240 -19.15316 -19.13085 -19.10769
 Alpha  occ. eigenvalues --  -19.08850 -14.37185 -14.36504 -14.35874 -14.29111
 Alpha  occ. eigenvalues --  -10.33440 -10.30025 -10.29988 -10.25492 -10.25320
 Alpha  occ. eigenvalues --  -10.24648 -10.23855 -10.23814 -10.22903 -10.22595
 Alpha  occ. eigenvalues --  -10.22173 -10.21980 -10.21645 -10.21286 -10.21255
 Alpha  occ. eigenvalues --  -10.21217 -10.21208 -10.21110 -10.20985 -10.20847
 Alpha  occ. eigenvalues --  -10.20723 -10.20701 -10.20254 -10.20069 -10.19958
 Alpha  occ. eigenvalues --  -10.19878 -10.19533 -10.19337 -10.19158 -10.18662
 Alpha  occ. eigenvalues --  -10.18371 -10.18220 -10.17553  -1.10486  -1.10396
 Alpha  occ. eigenvalues --   -1.05714  -1.01750  -0.99939  -0.98783  -0.98241
 Alpha  occ. eigenvalues --   -0.97381  -0.94114  -0.90740  -0.84371  -0.82969
 Alpha  occ. eigenvalues --   -0.81344  -0.81164  -0.80934  -0.79748  -0.78285
 Alpha  occ. eigenvalues --   -0.77374  -0.75697  -0.75450  -0.74477  -0.72409
 Alpha  occ. eigenvalues --   -0.71341  -0.70912  -0.69405  -0.68623  -0.68120
 Alpha  occ. eigenvalues --   -0.66211  -0.64788  -0.62986  -0.60764  -0.60280
 Alpha  occ. eigenvalues --   -0.59718  -0.59010  -0.58332  -0.57280  -0.56952
 Alpha  occ. eigenvalues --   -0.55834  -0.55527  -0.54832  -0.54009  -0.53081
 Alpha  occ. eigenvalues --   -0.52177  -0.51662  -0.51107  -0.50511  -0.50010
 Alpha  occ. eigenvalues --   -0.49684  -0.48461  -0.48192  -0.47969  -0.47463
 Alpha  occ. eigenvalues --   -0.46831  -0.46538  -0.46273  -0.46089  -0.45652
 Alpha  occ. eigenvalues --   -0.45426  -0.45278  -0.44473  -0.44190  -0.43848
 Alpha  occ. eigenvalues --   -0.43536  -0.43373  -0.43229  -0.43037  -0.42917
 Alpha  occ. eigenvalues --   -0.42508  -0.42433  -0.41655  -0.41308  -0.40956
 Alpha  occ. eigenvalues --   -0.40843  -0.40650  -0.40354  -0.40163  -0.39701
 Alpha  occ. eigenvalues --   -0.39294  -0.38703  -0.38428  -0.38260  -0.38030
 Alpha  occ. eigenvalues --   -0.37923  -0.37438  -0.37062  -0.36352  -0.35664
 Alpha  occ. eigenvalues --   -0.35487  -0.35361  -0.34850  -0.34334  -0.33889
 Alpha  occ. eigenvalues --   -0.33698  -0.33197  -0.33102  -0.32596  -0.31633
 Alpha  occ. eigenvalues --   -0.31260  -0.31124  -0.30028  -0.28191  -0.28085
 Alpha  occ. eigenvalues --   -0.27648  -0.27108  -0.26594  -0.25819  -0.25327
 Alpha  occ. eigenvalues --   -0.24438  -0.23644  -0.23351  -0.22427  -0.19003
 Alpha virt. eigenvalues --   -0.10535  -0.06173  -0.05711  -0.01687  -0.01449
 Alpha virt. eigenvalues --    0.00490   0.01321   0.03128   0.03303   0.03840
 Alpha virt. eigenvalues --    0.03949   0.04420   0.04828   0.04960   0.05473

 Mulliken charges:
               1
     1  O   -0.161111
     2  O   -0.132900
     3  O   -0.231225
     4  O   -0.184333
     5  O   -0.211879
     6  O   -0.255301
     7  N   -0.118194
     8  N   -0.274741
     9  N   -0.019677
    10  N   -0.272722
    11  C    0.103070
    12  C    0.095930
    13  C   -0.088249
    14  C   -0.106387
    15  C   -0.106921
    16  C    0.036379
    17  C   -0.071988
    18  C    0.138487
    19  C   -0.058892
    20  C   -0.089745
    21  C    0.125731
    22  C    0.150463
    23  C   -0.121806
    24  C    0.096280
    25  C   -0.037097
    26  C   -0.105084
    27  C    0.049034
    28  C    0.145870
    29  C    0.093333
    30  C    0.001877
    31  C    0.118599
    32  C    0.074780
    33  C   -0.165049
    34  C    0.083688
    35  C    0.039690
    36  C   -0.010982
    37  C    0.124000
    38  C    0.107452
    39  C   -0.182047
    40  C    0.143551
    41  C   -0.028753
    42  C   -0.033396
    43  C   -0.096731
    44  H    0.012621
    45  H    0.002515
    46  H   -0.027429
    47  H    0.162548
    48  H    0.169025
    49  H   -0.018784
    50  H    0.028140
    51  H   -0.054297
    52  H    0.009886
    53  H    0.013471
    54  H    0.035498
    55  H    0.036209
    56  H    0.064120
    57  H    0.044317
    58  H    0.001538
    59  H    0.025987
    60  H    0.110006
    61  H    0.002942
    62  H    0.021087
    63  H    0.007494
    64  H   -0.009551
    65  H    0.078340
    66  H    0.012055
    67  H    0.049997
    68  H    0.027763
    69  H    0.024982
    70  H   -0.001021
    71  H    0.047054
    72  H    0.187243
    73  H    0.022321
    74  H    0.071107
    75  H    0.045486
    76  H    0.042139
    77  H    0.123517
    78  H    0.033273
    79  H    0.035396
 Sum of Mulliken charges =   0.00000

 Dipole moment (field-independent basis, Debye):
    X=              0.1138    Y=              1.3366    Z=              1.3810  Tot=              1.9253
 Quadrupole moment (field-independent basis, Debye-Ang):
   XX=           -211.2798   YY=           -256.5481   ZZ=           -256.1454
   XY=             -7.4175   XZ=             25.4631   YZ=             -5.9939

 Normal termination of Gaussian 09 at Wed Jul 10 14:29:57 2019.
