 Gaussian 09, Revision D.01,
 Gaussian 09:  ES64L-G09RevD.01 24-Apr-2013

 --------------------------
 # td=(NStates=1) B3LYP/SVP
 --------------------------

 --
 TD
 --
 Symbolic Z-matrix:
 Charge =  0 Multiplicity = 1

                         Standard orientation:
 ---------------------------------------------------------------------
 Center     Atomic      Atomic             Coordinates (Angstroms)
 Number     Number       Type             X           Y           Z
 ---------------------------------------------------------------------
      1          8           0        5.410288   -0.315551   -3.370505
      2          8           0       -2.803676   -3.293297    3.140427
      3          8           0       -3.117186   -1.062807    3.474828
      4          8           0       -1.328483    7.171406    1.640421
      5          8           0       -0.415033    7.012775   -0.414657
      6          8           0       -2.090627   -3.911797   -0.115535
      7          7           0        2.350300    0.820637    0.557744
      8          7           0        4.434465   -0.767419   -1.239062
      9          7           0       -2.006508    0.653214   -0.382744
     10          7           0       -2.776195   -1.708044   -0.604464
     11          6           0        4.953934   -1.210198   -0.057507
     12          6           0        4.479537   -0.279057    1.210859
     13          6           0        3.009340   -0.086669    1.335898
     14          6           0        2.062106   -0.672115    2.068700
     15          6           0        0.642812   -0.088864    1.785992
     16          6           0        0.887719    0.750554    0.708518
     17          6           0        6.459925   -1.252924   -0.103572
     18          6           0       -0.488775   -0.450450    2.479341
     19          6           0        6.742880   -0.913990   -1.455285
     20          6           0        0.108107    1.801816    0.164872
     21          6           0       -1.142841    1.760523   -0.301384
     22          6           0        5.510498   -0.554143   -2.166101
     23          6           0       -1.929675    2.914072   -0.780330
     24          6           0        2.341805   -1.656546    3.132876
     25          6           0        7.382782   -1.765719    1.016828
     26          6           0       -3.159775    2.564114   -1.189659
     27          6           0       -1.009582   -1.955286    2.462752
     28          6           0       -3.252833    1.072516   -0.964866
     29          6           0       -1.355325    4.328152   -0.831314
     30          6           0        8.042400   -0.968086   -2.186648
     31          6           0       -1.613453    5.095979    0.527030
     32          6           0       -4.337566    3.196647   -1.699336
     33          6           0       -4.147289    0.068777   -1.420015
     34          6           0       -2.404956   -1.999196    3.039600
     35          6           0       -3.879544   -1.254179   -1.086970
     36          6           0        9.278912   -0.874443   -1.666341
     37          6           0       -1.046315    6.466543    0.405300
     38          6           0       -4.881033   -2.344429   -1.537154
     39          6           0       -4.214039   -3.506443   -1.139684
     40          6           0       -2.854858   -3.141492   -0.590796
     41          6           0       -6.151021   -2.141919   -1.996168
     42          6           0       -4.699528   -4.853932   -1.326243
     43          6           0       -7.138185   -3.047720   -2.391366
     44          1           0        4.490469   -2.201010    0.023779
     45          1           0        4.903370    0.672821    1.005770
     46          1           0        4.912846   -0.746421    1.990861
     47          1           0        2.756889    1.411628   -0.172716
     48          1           0        3.399616   -0.504808   -1.474683
     49          1           0       -0.592614   -0.226793    3.533370
     50          1           0       -1.448486    0.130380    2.079847
     51          1           0        0.548053    2.637927    0.083244
     52          1           0        3.549517   -1.574325    3.258662
     53          1           0        1.675768   -1.655574    4.060753
     54          1           0        2.211155   -2.587592    2.662143
     55          1           0        6.869716   -2.504394    1.631433
     56          1           0        7.929932   -0.843626    1.676157
     57          1           0        8.168010   -2.263623    0.472654
     58          1           0       -0.979302   -2.364058    1.588793
     59          1           0       -0.397773   -2.710114    3.072420
     60          1           0       -1.844721   -0.293713   -0.264267
     61          1           0       -1.930536    4.948406   -1.611928
     62          1           0       -0.363417    4.147030   -1.151933
     63          1           0        7.849906   -1.003436   -3.173400
     64          1           0       -1.173353    4.539924    1.332434
     65          1           0       -2.637287    5.107799    0.725260
     66          1           0       -4.330034    4.347489   -1.969015
     67          1           0       -5.257554    2.904759   -1.226767
     68          1           0       -4.434189    2.689237   -2.775551
     69          1           0       -5.214412    0.291704   -1.988058
     70          1           0        9.286153   -0.586317   -0.662805
     71          1           0       10.204321   -0.766534   -2.457385
     72          1           0       -3.739258   -3.195836    3.716208
     73          1           0       -6.361341   -1.111155   -2.332544
     74          1           0       -5.312051   -5.219943   -2.319929
     75          1           0       -3.660890   -5.496931   -1.327736
     76          1           0       -5.700172   -5.065147   -0.518404
     77          1           0       -0.971178    8.061212    1.787886
     78          1           0       -8.085260   -2.727927   -2.796765
     79          1           0       -6.755595   -4.046942   -2.324891
 ---------------------------------------------------------------------

 SCF Done:  E(RB3LYP) =  -1947.80287369     A.U. after   16 cycles

 Excitation energies and oscillator strengths:

 Excited State   1:      Singlet-A      2.2204 eV  558.38 nm  f=0.4209  <S**2>=0.000
     155 ->156         0.69394
 This state for optimization and/or second-order correction.
 Total Energy, E(TD-HF/TD-KS) =  -1947.72127404
 Copying the excited state density for this state as the 1-particle RhoCI density.

 The electronic state is 1-A.
 Alpha  occ. eigenvalues --  -19.18036 -19.15366 -19.14575 -19.11989 -19.11984
 Alpha  occ. eigenvalues --  -19.09884 -14.37274 -14.35661 -14.35647 -14.29703
 Alpha  occ. eigenvalues --  -10.33028 -10.31427 -10.28572 -10.27740 -10.25996
 Alpha  occ. eigenvalues --  -10.24601 -10.24228 -10.23466 -10.23290 -10.23063
 Alpha  occ. eigenvalues --  -10.22957 -10.22265 -10.22163 -10.21949 -10.21770
 Alpha  occ. eigenvalues --  -10.21732 -10.21578 -10.21433 -10.21072 -10.20890
 Alpha  occ. eigenvalues --  -10.20419 -10.20270 -10.20184 -10.20043 -10.19997
 Alpha  occ. eigenvalues --  -10.19818 -10.19777 -10.19676 -10.19563 -10.19477
 Alpha  occ. eigenvalues --  -10.19258 -10.19056 -10.18142  -1.09261  -1.06868
 Alpha  occ. eigenvalues --   -1.04394  -1.01494  -0.99322  -0.97314  -0.96985
 Alpha  occ. eigenvalues --   -0.96524  -0.94665  -0.93193  -0.83568  -0.82811
 Alpha  occ. eigenvalues --   -0.81545  -0.81473  -0.81044  -0.79884  -0.78795
 Alpha  occ. eigenvalues --   -0.77146  -0.76692  -0.75732  -0.74702  -0.73471
 Alpha  occ. eigenvalues --   -0.72172  -0.71521  -0.69326  -0.68768  -0.68347
 Alpha  occ. eigenvalues --   -0.67467  -0.66031  -0.64066  -0.61408  -0.61141
 Alpha  occ. eigenvalues --   -0.59883  -0.59305  -0.57482  -0.57201  -0.57067
 Alpha  occ. eigenvalues --   -0.56267  -0.55729  -0.54463  -0.54188  -0.53699
 Alpha  occ. eigenvalues --   -0.52713  -0.52361  -0.51563  -0.50982  -0.50476
 Alpha  occ. eigenvalues --   -0.48954  -0.48757  -0.48228  -0.47782  -0.47624
 Alpha  occ. eigenvalues --   -0.47305  -0.46972  -0.46799  -0.46254  -0.45652
 Alpha  occ. eigenvalues --   -0.45470  -0.44951  -0.44738  -0.44410  -0.44050
 Alpha  occ. eigenvalues --   -0.43894  -0.43661  -0.43210  -0.42892  -0.42600
 Alpha  occ. eigenvalues --   -0.42371  -0.41938  -0.41716  -0.41578  -0.41305
 Alpha  occ. eigenvalues --   -0.41002  -0.40552  -0.40143  -0.39970  -0.39608
 Alpha  occ. eigenvalues --   -0.39573  -0.39468  -0.38858  -0.38695  -0.38490
 Alpha  occ. eigenvalues --   -0.38433  -0.38241  -0.38030  -0.37755  -0.37222
 Alpha  occ. eigenvalues --   -0.37034  -0.36687  -0.36026  -0.35727  -0.35332
 Alpha  occ. eigenvalues --   -0.34503  -0.32558  -0.31932  -0.31649  -0.31290
 Alpha  occ. eigenvalues --   -0.31120  -0.30556  -0.29340  -0.29243  -0.28937
 Alpha  occ. eigenvalues --   -0.27354  -0.26267  -0.25583  -0.25507  -0.24836
 Alpha  occ. eigenvalues --   -0.24733  -0.23885  -0.22419  -0.22075  -0.19900
 Alpha virt. eigenvalues --   -0.10817  -0.06897  -0.06537  -0.01487  -0.00656
 Alpha virt. eigenvalues --    0.00109   0.00279   0.01331   0.02898   0.03043
 Alpha virt. eigenvalues --    0.03191   0.03705   0.04125   0.04490   0.04902

 Mulliken charges:
               1
     1  O   -0.236270
     2  O   -0.240350
     3  O   -0.281979
     4  O   -0.296612
     5  O   -0.150376
     6  O   -0.152312
     7  N   -0.161989
     8  N   -0.249008
     9  N   -0.102604
    10  N   -0.272810
    11  C    0.068561
    12  C    0.285132
    13  C   -0.046623
    14  C   -0.198062
    15  C    0.063739
    16  C    0.092228
    17  C   -0.145965
    18  C   -0.029157
    19  C   -0.098255
    20  C   -0.054215
    21  C    0.182964
    22  C    0.172968
    23  C   -0.141268
    24  C    0.087071
    25  C    0.057625
    26  C   -0.047806
    27  C    0.082019
    28  C    0.102517
    29  C    0.072344
    30  C    0.040981
    31  C    0.064982
    32  C    0.039834
    33  C   -0.162298
    34  C    0.160099
    35  C    0.075902
    36  C   -0.018650
    37  C    0.161092
    38  C    0.105674
    39  C   -0.155833
    40  C    0.179084
    41  C   -0.104376
    42  C   -0.104990
    43  C    0.019270
    44  H    0.016864
    45  H   -0.028592
    46  H   -0.054117
    47  H    0.109126
    48  H    0.166322
    49  H    0.008920
    50  H    0.037360
    51  H   -0.113387
    52  H    0.011777
    53  H    0.037461
    54  H    0.005963
    55  H    0.032470
    56  H    0.072422
    57  H    0.033720
    58  H   -0.026320
    59  H    0.034993
    60  H    0.107563
    61  H    0.025268
    62  H    0.017859
    63  H   -0.035529
    64  H    0.040771
    65  H    0.024164
    66  H    0.037870
    67  H    0.035399
    68  H    0.042138
    69  H    0.035120
    70  H    0.002008
    71  H    0.063069
    72  H    0.227319
    73  H   -0.016087
    74  H    0.065412
    75  H    0.065138
    76  H    0.056598
    77  H    0.179307
    78  H    0.028446
    79  H   -0.009091
 Sum of Mulliken charges =   0.00000

 Dipole moment (field-independent basis, Debye):
    X=             -0.4204    Y=              2.0935    Z=              2.4999  Tot=              3.2877
 Quadrupole moment (field-independent basis, Debye-Ang):
   XX=           -219.0859   YY=           -250.8632   ZZ=           -265.7633
   XY=             -7.8911   XZ=             34.9385   YZ=             -0.6939

 Normal termination of Gaussian 09 at Mon Jul  8 09:38:06 2019.
