 Gaussian 09, Revision D.01,
 Gaussian 09:  ES64L-G09RevD.01 24-Apr-2013

 --------------------------
 # td=(NStates=1) B3LYP/SVP
 --------------------------

 --
 TD
 --
 Symbolic Z-matrix:
 Charge =  0 Multiplicity = 1

                         Standard orientation:
 ---------------------------------------------------------------------
 Center     Atomic      Atomic             Coordinates (Angstroms)
 Number     Number       Type             X           Y           Z
 ---------------------------------------------------------------------
      1          8           0        5.378735    0.025310   -3.318583
      2          8           0       -2.805051   -3.185491    3.299271
      3          8           0       -3.265078   -0.983862    3.293474
      4          8           0       -1.765473    7.107757    1.774016
      5          8           0       -0.394991    7.059570   -0.113894
      6          8           0       -2.157291   -3.990316   -0.063494
      7          7           0        2.391524    0.794346    0.594470
      8          7           0        4.487221   -0.663428   -1.280444
      9          7           0       -1.754940    0.668112   -0.538650
     10          7           0       -2.615356   -1.755060   -0.603016
     11          6           0        4.823151   -1.302370    0.040415
     12          6           0        4.414057   -0.467727    1.254161
     13          6           0        2.991279   -0.242190    1.338098
     14          6           0        1.982213   -0.825181    2.034524
     15          6           0        0.767358   -0.179519    1.671403
     16          6           0        1.080801    0.782119    0.750129
     17          6           0        6.328025   -1.467189   -0.236610
     18          6           0       -0.527060   -0.365757    2.485906
     19          6           0        6.687058   -0.860655   -1.457381
     20          6           0        0.370232    1.937776    0.168186
     21          6           0       -0.959801    1.794195   -0.342580
     22          6           0        5.457339   -0.322268   -2.161136
     23          6           0       -1.760890    2.882478   -0.844226
     24          6           0        2.182898   -1.856877    3.069207
     25          6           0        7.078354   -2.187297    0.777538
     26          6           0       -3.040945    2.486589   -1.305038
     27          6           0       -1.170285   -1.707708    2.429135
     28          6           0       -3.026242    0.970179   -1.126299
     29          6           0       -1.254930    4.320712   -0.732743
     30          6           0        8.040884   -0.692857   -2.020082
     31          6           0       -1.618985    4.968759    0.606112
     32          6           0       -4.147643    3.291427   -1.851658
     33          6           0       -3.980452    0.015318   -1.477686
     34          6           0       -2.566823   -1.942658    2.997402
     35          6           0       -3.759282   -1.394674   -1.151813
     36          6           0        9.271454   -0.654701   -1.492477
     37          6           0       -1.126310    6.464360    0.701458
     38          6           0       -4.854421   -2.329268   -1.495639
     39          6           0       -4.313659   -3.466973   -0.994576
     40          6           0       -2.856225   -3.209661   -0.555102
     41          6           0       -6.166554   -2.066360   -2.196756
     42          6           0       -4.863040   -4.944005   -1.148267
     43          6           0       -6.994790   -2.892578   -2.672583
     44          1           0        4.136218   -2.295058   -0.085083
     45          1           0        5.116155    0.471118    0.866518
     46          1           0        4.956710   -1.040412    2.087970
     47          1           0        2.981245    1.503634    0.180582
     48          1           0        3.487329   -0.538136   -1.660842
     49          1           0       -0.361863   -0.038773    3.584079
     50          1           0       -1.211172    0.270061    2.049195
     51          1           0        0.873778    2.896564   -0.067056
     52          1           0        3.138803   -1.660048    3.492185
     53          1           0        1.492043   -1.561483    3.756268
     54          1           0        2.235545   -2.863801    2.635221
     55          1           0        6.760140   -3.224968    1.141318
     56          1           0        7.361953   -1.651941    2.092626
     57          1           0        7.990294   -2.614113    0.440324
     58          1           0       -1.175034   -2.040476    1.307747
     59          1           0       -0.558643   -2.582531    2.775890
     60          1           0       -1.694964   -0.400102   -0.607701
     61          1           0       -1.607958    4.902664   -1.667211
     62          1           0       -0.181552    4.606229   -1.058167
     63          1           0        8.039406   -0.836029   -3.168720
     64          1           0       -1.175580    4.195001    1.446857
     65          1           0       -2.912400    5.118666    0.576270
     66          1           0       -3.947995    4.416861   -2.107501
     67          1           0       -5.120267    3.245144   -1.393597
     68          1           0       -4.338773    2.821027   -2.991585
     69          1           0       -4.882964    0.332096   -1.962736
     70          1           0        9.368494   -0.734352   -0.246475
     71          1           0       10.307142   -0.730549   -2.065344
     72          1           0       -3.779427   -3.198398    3.645509
     73          1           0       -6.586682   -1.030063   -1.869633
     74          1           0       -4.706022   -5.405837   -2.035136
     75          1           0       -4.323829   -5.655453   -0.300396
     76          1           0       -5.986042   -5.067146   -1.015110
     77          1           0       -1.451272    8.007657    1.523355
     78          1           0       -7.984520   -2.416377   -2.981780
     79          1           0       -6.664857   -3.984837   -2.856818
 ---------------------------------------------------------------------

 SCF Done:  E(RB3LYP) =  -1947.78345253     A.U. after   16 cycles

 Excitation energies and oscillator strengths:

 Excited State   1:      Singlet-A      2.1118 eV  587.11 nm  f=0.4701  <S**2>=0.000
     155 ->156         0.70363
     155 <-156        -0.10997
 This state for optimization and/or second-order correction.
 Total Energy, E(TD-HF/TD-KS) =  -1947.70584689
 Copying the excited state density for this state as the 1-particle RhoCI density.

 The electronic state is 1-A.
 Alpha  occ. eigenvalues --  -19.19262 -19.18581 -19.14931 -19.12624 -19.10290
 Alpha  occ. eigenvalues --  -19.09951 -14.37469 -14.35371 -14.35330 -14.30974
 Alpha  occ. eigenvalues --  -10.34088 -10.30247 -10.28395 -10.28360 -10.26078
 Alpha  occ. eigenvalues --  -10.25080 -10.24640 -10.24632 -10.24467 -10.23289
 Alpha  occ. eigenvalues --  -10.22947 -10.22803 -10.22511 -10.22443 -10.22115
 Alpha  occ. eigenvalues --  -10.21954 -10.21819 -10.21776 -10.21728 -10.21484
 Alpha  occ. eigenvalues --  -10.21436 -10.21419 -10.21359 -10.21283 -10.20794
 Alpha  occ. eigenvalues --  -10.20771 -10.20450 -10.19168 -10.18469 -10.18274
 Alpha  occ. eigenvalues --  -10.18262 -10.17920 -10.17816  -1.09540  -1.08944
 Alpha  occ. eigenvalues --   -1.06445  -1.02514  -1.00485  -0.99440  -0.98617
 Alpha  occ. eigenvalues --   -0.95820  -0.93456  -0.93245  -0.82175  -0.81915
 Alpha  occ. eigenvalues --   -0.81232  -0.81145  -0.80877  -0.79255  -0.77169
 Alpha  occ. eigenvalues --   -0.76990  -0.76057  -0.75708  -0.74648  -0.72615
 Alpha  occ. eigenvalues --   -0.71352  -0.70481  -0.70060  -0.68858  -0.66852
 Alpha  occ. eigenvalues --   -0.66453  -0.65419  -0.63480  -0.60676  -0.59778
 Alpha  occ. eigenvalues --   -0.59101  -0.58480  -0.57557  -0.56803  -0.56132
 Alpha  occ. eigenvalues --   -0.55571  -0.55074  -0.54725  -0.53437  -0.53037
 Alpha  occ. eigenvalues --   -0.52514  -0.51613  -0.49690  -0.49615  -0.49236
 Alpha  occ. eigenvalues --   -0.48624  -0.48453  -0.47797  -0.47672  -0.47296
 Alpha  occ. eigenvalues --   -0.46921  -0.46540  -0.46285  -0.45823  -0.45677
 Alpha  occ. eigenvalues --   -0.45467  -0.45089  -0.44657  -0.44399  -0.43807
 Alpha  occ. eigenvalues --   -0.43481  -0.43013  -0.42750  -0.42585  -0.42446
 Alpha  occ. eigenvalues --   -0.42098  -0.41934  -0.41709  -0.41016  -0.40746
 Alpha  occ. eigenvalues --   -0.40515  -0.40461  -0.40176  -0.40095  -0.39533
 Alpha  occ. eigenvalues --   -0.39057  -0.38874  -0.38673  -0.38165  -0.38063
 Alpha  occ. eigenvalues --   -0.37899  -0.37588  -0.37140  -0.36639  -0.36469
 Alpha  occ. eigenvalues --   -0.36160  -0.35733  -0.35230  -0.34263  -0.33707
 Alpha  occ. eigenvalues --   -0.33320  -0.33125  -0.32553  -0.32177  -0.31629
 Alpha  occ. eigenvalues --   -0.30807  -0.30329  -0.30131  -0.29709  -0.28993
 Alpha  occ. eigenvalues --   -0.26303  -0.25930  -0.25575  -0.25472  -0.25376
 Alpha  occ. eigenvalues --   -0.24743  -0.24479  -0.24289  -0.23717  -0.19074
 Alpha virt. eigenvalues --   -0.10881  -0.07350  -0.06469  -0.02749  -0.00773
 Alpha virt. eigenvalues --    0.00807   0.01165   0.01828   0.02247   0.02418
 Alpha virt. eigenvalues --    0.03538   0.03864   0.04418   0.04695   0.05027

 Mulliken charges:
               1
     1  O   -0.215771
     2  O   -0.157267
     3  O   -0.255392
     4  O   -0.205447
     5  O   -0.251350
     6  O   -0.112028
     7  N   -0.054979
     8  N   -0.254579
     9  N   -0.160432
    10  N   -0.307326
    11  C    0.064498
    12  C    0.094754
    13  C   -0.017387
    14  C   -0.191971
    15  C   -0.137515
    16  C    0.068182
    17  C   -0.089729
    18  C    0.210236
    19  C   -0.043980
    20  C   -0.095739
    21  C    0.135524
    22  C    0.152982
    23  C   -0.088040
    24  C    0.224615
    25  C   -0.027610
    26  C   -0.047546
    27  C   -0.081908
    28  C    0.095841
    29  C   -0.014997
    30  C   -0.021790
    31  C   -0.085191
    32  C    0.005980
    33  C   -0.104135
    34  C    0.122312
    35  C    0.086195
    36  C   -0.114775
    37  C    0.198205
    38  C    0.016370
    39  C   -0.208404
    40  C    0.166460
    41  C    0.019013
    42  C    0.020644
    43  C   -0.057926
    44  H    0.045558
    45  H    0.024341
    46  H    0.025227
    47  H    0.113010
    48  H    0.142799
    49  H    0.021703
    50  H   -0.035302
    51  H    0.010170
    52  H   -0.025500
    53  H   -0.010026
    54  H    0.032893
    55  H    0.030595
    56  H    0.045330
    57  H    0.009649
    58  H    0.068406
    59  H    0.011026
    60  H    0.172094
    61  H    0.015295
    62  H    0.034575
    63  H    0.040139
    64  H    0.092565
    65  H    0.081399
    66  H    0.039186
    67  H    0.035157
    68  H    0.040416
    69  H   -0.040966
    70  H    0.042731
    71  H    0.061655
    72  H    0.204654
    73  H    0.032280
    74  H    0.017629
    75  H    0.047123
    76  H    0.029917
    77  H    0.177355
    78  H    0.044311
    79  H    0.044010
 Sum of Mulliken charges =   0.00000

 Dipole moment (field-independent basis, Debye):
    X=             -1.7225    Y=             -0.2748    Z=              1.6675  Tot=              2.4131
 Quadrupole moment (field-independent basis, Debye-Ang):
   XX=           -217.0048   YY=           -243.6912   ZZ=           -266.8693
   XY=             -8.9388   XZ=             35.2278   YZ=              1.1478

 Normal termination of Gaussian 09 at Tue Jul  9 11:39:21 2019.
