 Gaussian 09, Revision D.01,
 Gaussian 09:  ES64L-G09RevD.01 24-Apr-2013

 --------------------------
 # td=(NStates=1) B3LYP/SVP
 --------------------------

 --
 TD
 --
 Symbolic Z-matrix:
 Charge =  0 Multiplicity = 1

                         Standard orientation:
 ---------------------------------------------------------------------
 Center     Atomic      Atomic             Coordinates (Angstroms)
 Number     Number       Type             X           Y           Z
 ---------------------------------------------------------------------
      1          8           0        5.411697   -0.230755   -3.411812
      2          8           0       -2.560828   -3.395110    3.509772
      3          8           0       -3.076251   -1.274725    3.262928
      4          8           0       -1.706660    7.246144    1.546756
      5          8           0       -0.757838    7.006360   -0.462520
      6          8           0       -2.081342   -4.020286   -0.138917
      7          7           0        2.282718    0.968376    0.598904
      8          7           0        4.464222   -0.561425   -1.304899
      9          7           0       -2.003628    0.737911   -0.339041
     10          7           0       -2.735574   -1.838767   -0.627802
     11          6           0        5.002092   -1.124451   -0.059922
     12          6           0        4.528991   -0.191726    1.129170
     13          6           0        2.922225   -0.022462    1.274773
     14          6           0        2.029846   -0.739107    2.050795
     15          6           0        0.750134   -0.166961    1.752270
     16          6           0        0.969327    0.826791    0.718829
     17          6           0        6.465133   -1.172360   -0.247624
     18          6           0       -0.443562   -0.397650    2.602859
     19          6           0        6.776331   -0.772178   -1.467251
     20          6           0        0.057517    1.897334    0.256666
     21          6           0       -1.174851    1.822851   -0.119749
     22          6           0        5.478722   -0.592625   -2.277061
     23          6           0       -2.029837    2.867230   -0.667006
     24          6           0        2.359243   -1.880904    3.049740
     25          6           0        7.366391   -1.746771    0.895263
     26          6           0       -3.265332    2.376461   -1.098590
     27          6           0       -0.845635   -1.837635    2.513361
     28          6           0       -3.188331    0.988325   -0.961173
     29          6           0       -1.587312    4.339677   -0.726375
     30          6           0        7.966760   -0.675419   -2.102738
     31          6           0       -1.676816    5.033797    0.661595
     32          6           0       -4.354623    3.184766   -1.762776
     33          6           0       -4.114039    0.014876   -1.353516
     34          6           0       -2.236757   -2.082455    3.068049
     35          6           0       -3.846878   -1.376353   -1.143858
     36          6           0        9.227002   -0.617035   -1.628162
     37          6           0       -1.318421    6.548584    0.508430
     38          6           0       -4.818500   -2.378090   -1.430983
     39          6           0       -4.199463   -3.615490   -1.217260
     40          6           0       -2.860227   -3.268312   -0.667608
     41          6           0       -6.153602   -2.212713   -2.024490
     42          6           0       -4.557791   -5.071811   -1.337012
     43          6           0       -6.800511   -2.995320   -2.844939
     44          1           0        4.571359   -2.178340    0.179962
     45          1           0        5.048029    0.767597    0.970317
     46          1           0        4.836647   -0.687942    1.899149
     47          1           0        2.746188    1.454763   -0.332117
     48          1           0        3.392075   -0.624047   -1.452728
     49          1           0       -0.344772   -0.203537    3.620323
     50          1           0       -1.224888    0.201819    2.389547
     51          1           0        0.492274    2.875845    0.222496
     52          1           0        3.595885   -2.057248    3.135446
     53          1           0        1.963642   -1.696748    4.087350
     54          1           0        1.976382   -2.787761    2.652163
     55          1           0        6.965998   -2.419495    1.597119
     56          1           0        8.088923   -0.858063    1.353432
     57          1           0        8.148697   -2.400004    0.673743
     58          1           0       -1.014404   -2.144968    1.336274
     59          1           0       -0.295909   -2.668875    3.039383
     60          1           0       -1.730876   -0.283633   -0.003975
     61          1           0       -2.141776    4.854664   -1.376042
     62          1           0       -0.447242    4.532246   -1.289897
     63          1           0        7.864789   -0.316477   -3.277352
     64          1           0       -0.924634    4.669801    1.424059
     65          1           0       -2.738012    4.853841    1.221442
     66          1           0       -4.072171    4.188827   -1.711853
     67          1           0       -5.228045    3.040883   -1.078032
     68          1           0       -4.553594    2.851208   -2.919534
     69          1           0       -5.079402    0.508369   -1.752837
     70          1           0        9.478392   -0.805261   -0.509342
     71          1           0        9.955349   -0.177012   -2.303185
     72          1           0       -3.580328   -3.603952    3.879761
     73          1           0       -6.773020   -1.425558   -1.580154
     74          1           0       -4.540893   -5.310643   -2.398703
     75          1           0       -3.791821   -5.802174   -0.974862
     76          1           0       -5.620333   -5.173304   -0.890870
     77          1           0       -1.273811    8.197228    1.447642
     78          1           0       -7.778190   -2.895036   -3.230634
     79          1           0       -6.418245   -4.049885   -2.849522
 ---------------------------------------------------------------------

 SCF Done:  E(RB3LYP) =  -1947.83282984     A.U. after   16 cycles

 Excitation energies and oscillator strengths:

 Excited State   1:      Singlet-A      2.1623 eV  573.39 nm  f=0.3860  <S**2>=0.000
     154 ->156         0.10536
     155 ->156         0.68949
 This state for optimization and/or second-order correction.
 Total Energy, E(TD-HF/TD-KS) =  -1947.75336730
 Copying the excited state density for this state as the 1-particle RhoCI density.

 The electronic state is 1-A.
 Alpha  occ. eigenvalues --  -19.20267 -19.14360 -19.13152 -19.10973 -19.10948
 Alpha  occ. eigenvalues --  -19.10437 -14.39580 -14.36066 -14.35542 -14.28450
 Alpha  occ. eigenvalues --  -10.32758 -10.29767 -10.29016 -10.26231 -10.24916
 Alpha  occ. eigenvalues --  -10.23876 -10.23221 -10.23039 -10.22972 -10.22947
 Alpha  occ. eigenvalues --  -10.22803 -10.22105 -10.21603 -10.21389 -10.21382
 Alpha  occ. eigenvalues --  -10.21122 -10.21027 -10.20988 -10.20970 -10.20292
 Alpha  occ. eigenvalues --  -10.20288 -10.19983 -10.19982 -10.19928 -10.19816
 Alpha  occ. eigenvalues --  -10.19648 -10.19644 -10.19609 -10.19547 -10.19500
 Alpha  occ. eigenvalues --  -10.19301 -10.18581 -10.18028  -1.11230  -1.05814
 Alpha  occ. eigenvalues --   -1.03954  -1.02401  -1.01344  -0.99841  -0.97947
 Alpha  occ. eigenvalues --   -0.95225  -0.94046  -0.92427  -0.82912  -0.82330
 Alpha  occ. eigenvalues --   -0.81807  -0.81352  -0.80298  -0.79067  -0.77226
 Alpha  occ. eigenvalues --   -0.76800  -0.76318  -0.75285  -0.74495  -0.71969
 Alpha  occ. eigenvalues --   -0.71709  -0.70539  -0.69995  -0.69138  -0.67953
 Alpha  occ. eigenvalues --   -0.66619  -0.65810  -0.64431  -0.61450  -0.60621
 Alpha  occ. eigenvalues --   -0.59975  -0.58374  -0.58054  -0.56846  -0.56657
 Alpha  occ. eigenvalues --   -0.55629  -0.54955  -0.54729  -0.53681  -0.52941
 Alpha  occ. eigenvalues --   -0.52087  -0.51576  -0.50419  -0.49907  -0.49236
 Alpha  occ. eigenvalues --   -0.48847  -0.48555  -0.48331  -0.47658  -0.47377
 Alpha  occ. eigenvalues --   -0.47088  -0.46727  -0.46077  -0.45720  -0.45076
 Alpha  occ. eigenvalues --   -0.44672  -0.44607  -0.43973  -0.43922  -0.43674
 Alpha  occ. eigenvalues --   -0.43311  -0.43165  -0.42490  -0.42150  -0.42038
 Alpha  occ. eigenvalues --   -0.41868  -0.41466  -0.41430  -0.41202  -0.40903
 Alpha  occ. eigenvalues --   -0.40823  -0.40488  -0.40155  -0.40095  -0.39582
 Alpha  occ. eigenvalues --   -0.39523  -0.39375  -0.39027  -0.38974  -0.38543
 Alpha  occ. eigenvalues --   -0.38460  -0.38200  -0.38028  -0.37570  -0.36723
 Alpha  occ. eigenvalues --   -0.36057  -0.35647  -0.35425  -0.34348  -0.34153
 Alpha  occ. eigenvalues --   -0.33742  -0.33521  -0.33299  -0.33030  -0.32918
 Alpha  occ. eigenvalues --   -0.30721  -0.29127  -0.28905  -0.28381  -0.27610
 Alpha  occ. eigenvalues --   -0.27010  -0.26286  -0.25559  -0.25119  -0.24991
 Alpha  occ. eigenvalues --   -0.24014  -0.23716  -0.23473  -0.22320  -0.19299
 Alpha virt. eigenvalues --   -0.10635  -0.06304  -0.06044  -0.00285   0.00010
 Alpha virt. eigenvalues --    0.00334   0.01282   0.01814   0.02184   0.02462
 Alpha virt. eigenvalues --    0.02677   0.03131   0.03974   0.04349   0.04786

 Mulliken charges:
               1
     1  O   -0.183927
     2  O   -0.328457
     3  O   -0.198674
     4  O   -0.180242
     5  O   -0.233854
     6  O   -0.177808
     7  N   -0.075085
     8  N   -0.261092
     9  N   -0.137560
    10  N   -0.280140
    11  C    0.029911
    12  C    0.305556
    13  C   -0.141420
    14  C   -0.111624
    15  C   -0.120073
    16  C    0.020326
    17  C   -0.112355
    18  C    0.250957
    19  C   -0.022093
    20  C   -0.120273
    21  C    0.175710
    22  C    0.187004
    23  C   -0.090628
    24  C    0.054448
    25  C    0.069657
    26  C   -0.140454
    27  C   -0.109475
    28  C    0.099516
    29  C    0.083197
    30  C   -0.094817
    31  C   -0.064585
    32  C    0.110747
    33  C   -0.160899
    34  C    0.129751
    35  C    0.140165
    36  C   -0.047103
    37  C    0.126091
    38  C    0.018235
    39  C   -0.211681
    40  C    0.147700
    41  C   -0.029136
    42  C    0.091054
    43  C   -0.014621
    44  H    0.027820
    45  H   -0.005039
    46  H   -0.077943
    47  H    0.177067
    48  H    0.159216
    49  H   -0.019526
    50  H   -0.043658
    51  H   -0.017536
    52  H    0.020970
    53  H    0.039913
    54  H    0.041423
    55  H    0.005668
    56  H    0.051330
    57  H    0.003654
    58  H    0.111098
    59  H    0.042532
    60  H    0.189122
    61  H   -0.036323
    62  H    0.051378
    63  H    0.042727
    64  H    0.049145
    65  H    0.063711
    66  H   -0.010747
    67  H    0.034121
    68  H    0.063848
    69  H   -0.000716
    70  H    0.022347
    71  H    0.030359
    72  H    0.237680
    73  H    0.004004
    74  H    0.030786
    75  H    0.033806
    76  H    0.047048
    77  H    0.217434
    78  H    0.012194
    79  H    0.009138
 Sum of Mulliken charges =   0.00000

 Dipole moment (field-independent basis, Debye):
    X=              0.3744    Y=              2.7423    Z=              3.5958  Tot=              4.5376
 Quadrupole moment (field-independent basis, Debye-Ang):
   XX=           -222.0773   YY=           -237.3119   ZZ=           -265.2359
   XY=             -6.8608   XZ=             29.8652   YZ=              6.3947

 Normal termination of Gaussian 09 at Mon Jul  8 07:07:55 2019.
