 Gaussian 09, Revision D.01,
 Gaussian 09:  ES64L-G09RevD.01 24-Apr-2013

 --------------------------
 # td=(NStates=1) B3LYP/SVP
 --------------------------

 --
 TD
 --
 Symbolic Z-matrix:
 Charge =  0 Multiplicity = 1

                         Standard orientation:
 ---------------------------------------------------------------------
 Center     Atomic      Atomic             Coordinates (Angstroms)
 Number     Number       Type             X           Y           Z
 ---------------------------------------------------------------------
      1          8           0        5.442691   -0.295286   -3.271524
      2          8           0       -3.104408   -3.038780    3.035561
      3          8           0       -3.379973   -0.803167    3.124521
      4          8           0       -1.084952    7.045722    1.832966
      5          8           0       -0.584223    7.130340   -0.493555
      6          8           0       -1.965408   -3.904574   -0.073226
      7          7           0        2.397046    0.862534    0.623690
      8          7           0        4.445419   -0.744713   -1.234933
      9          7           0       -1.865334    0.721370   -0.430979
     10          7           0       -2.720062   -1.818696   -0.369579
     11          6           0        4.841420   -1.266209    0.081700
     12          6           0        4.452892   -0.314047    1.274587
     13          6           0        2.948387   -0.130587    1.343577
     14          6           0        1.908146   -0.718031    2.035416
     15          6           0        0.682919   -0.119790    1.659898
     16          6           0        0.994070    0.903151    0.828473
     17          6           0        6.383647   -1.422456   -0.137965
     18          6           0       -0.594473   -0.278084    2.446808
     19          6           0        6.727712   -1.028779   -1.379968
     20          6           0        0.226728    1.787586    0.037710
     21          6           0       -1.139178    1.767222   -0.414791
     22          6           0        5.531258   -0.644283   -2.136239
     23          6           0       -1.822016    2.907132   -0.962591
     24          6           0        2.029984   -1.743320    3.153162
     25          6           0        7.175930   -1.976118    0.926307
     26          6           0       -3.060218    2.521595   -1.283692
     27          6           0       -1.300202   -1.695230    2.406867
     28          6           0       -3.098760    1.016385   -1.078957
     29          6           0       -1.366396    4.415514   -1.035170
     30          6           0        8.052856   -0.832207   -1.961305
     31          6           0       -1.455316    5.022886    0.410611
     32          6           0       -4.212958    3.180925   -1.958731
     33          6           0       -4.042013    0.088449   -1.291797
     34          6           0       -2.699993   -1.744545    2.920494
     35          6           0       -3.803552   -1.244541   -0.962326
     36          6           0        9.311320   -0.980377   -1.534827
     37          6           0       -1.112595    6.516165    0.497439
     38          6           0       -4.782893   -2.443556   -1.404039
     39          6           0       -4.165471   -3.594457   -0.968956
     40          6           0       -2.813865   -3.168374   -0.456308
     41          6           0       -6.151727   -2.166231   -1.943031
     42          6           0       -4.609679   -5.023059   -1.095700
     43          6           0       -6.883987   -3.153098   -2.629946
     44          1           0        4.338147   -2.246663    0.273950
     45          1           0        5.015982    0.726468    1.272283
     46          1           0        4.913842   -0.807518    2.171325
     47          1           0        2.901019    1.347641   -0.071930
     48          1           0        3.518698   -0.707581   -1.503461
     49          1           0       -0.554014   -0.025997    3.496475
     50          1           0       -1.357744    0.379420    1.949220
     51          1           0        0.870798    2.724925   -0.173707
     52          1           0        3.096972   -1.819779    3.307730
     53          1           0        1.459942   -1.554630    4.098182
     54          1           0        1.684044   -2.693782    2.611252
     55          1           0        6.569724   -2.585488    1.714101
     56          1           0        7.586280   -1.256817    1.666056
     57          1           0        8.015945   -2.477206    0.490549
     58          1           0       -1.185293   -2.091742    1.433248
     59          1           0       -0.752536   -2.323731    3.161990
     60          1           0       -1.768848   -0.334021   -0.226519
     61          1           0       -1.997757    4.749744   -1.890224
     62          1           0       -0.267805    4.340810   -1.443261
     63          1           0        7.864425   -0.748072   -3.077718
     64          1           0       -0.634919    4.413583    1.113817
     65          1           0       -2.463521    4.903203    1.166167
     66          1           0       -3.911597    4.137805   -2.081737
     67          1           0       -5.065918    3.103280   -1.395028
     68          1           0       -4.395494    2.837960   -2.976842
     69          1           0       -4.908369    0.156628   -1.674750
     70          1           0        9.700636   -1.081705   -0.369567
     71          1           0       10.057457   -0.868791   -2.174414
     72          1           0       -4.004488   -3.173237    3.378933
     73          1           0       -6.497657   -1.235878   -1.855611
     74          1           0       -4.594715   -5.313693   -2.236909
     75          1           0       -3.930115   -5.566190   -0.761249
     76          1           0       -5.626912   -5.178352   -0.739590
     77          1           0       -0.628502    8.032062    1.828081
     78          1           0       -7.893082   -2.619179   -3.264656
     79          1           0       -6.455780   -3.998768   -2.891790
 ---------------------------------------------------------------------

 SCF Done:  E(RB3LYP) =  -1947.83410111     A.U. after   17 cycles

 Excitation energies and oscillator strengths:

 Excited State   1:      Singlet-A      2.1377 eV  579.99 nm  f=0.5396  <S**2>=0.000
     155 ->156         0.70307
     155 <-156        -0.13167
 This state for optimization and/or second-order correction.
 Total Energy, E(TD-HF/TD-KS) =  -1947.75554207
 Copying the excited state density for this state as the 1-particle RhoCI density.

 The electronic state is 1-A.
 Alpha  occ. eigenvalues --  -19.19128 -19.16022 -19.13628 -19.11052 -19.10613
 Alpha  occ. eigenvalues --  -19.09657 -14.37978 -14.36410 -14.34501 -14.29424
 Alpha  occ. eigenvalues --  -10.33753 -10.30042 -10.28660 -10.25848 -10.25608
 Alpha  occ. eigenvalues --  -10.25346 -10.24559 -10.24309 -10.23982 -10.23572
 Alpha  occ. eigenvalues --  -10.23311 -10.23247 -10.22655 -10.22391 -10.22107
 Alpha  occ. eigenvalues --  -10.21260 -10.20871 -10.20868 -10.20719 -10.20618
 Alpha  occ. eigenvalues --  -10.20607 -10.20496 -10.20262 -10.20183 -10.19717
 Alpha  occ. eigenvalues --  -10.19327 -10.18823 -10.18769 -10.18701 -10.18518
 Alpha  occ. eigenvalues --  -10.18001 -10.17959 -10.17612  -1.07868  -1.04999
 Alpha  occ. eigenvalues --   -1.04040  -1.02937  -0.99898  -0.99840  -0.99274
 Alpha  occ. eigenvalues --   -0.97582  -0.93612  -0.91499  -0.82929  -0.82807
 Alpha  occ. eigenvalues --   -0.82129  -0.81318  -0.80031  -0.79717  -0.77671
 Alpha  occ. eigenvalues --   -0.77190  -0.75974  -0.75557  -0.75029  -0.73310
 Alpha  occ. eigenvalues --   -0.72726  -0.71583  -0.69676  -0.68865  -0.67933
 Alpha  occ. eigenvalues --   -0.67300  -0.66205  -0.63819  -0.62040  -0.61289
 Alpha  occ. eigenvalues --   -0.60186  -0.59325  -0.58702  -0.57888  -0.57293
 Alpha  occ. eigenvalues --   -0.56097  -0.55644  -0.55460  -0.54198  -0.53645
 Alpha  occ. eigenvalues --   -0.52516  -0.51576  -0.50875  -0.49809  -0.49154
 Alpha  occ. eigenvalues --   -0.48916  -0.48740  -0.47921  -0.47223  -0.47066
 Alpha  occ. eigenvalues --   -0.46849  -0.46582  -0.46176  -0.46017  -0.45767
 Alpha  occ. eigenvalues --   -0.45619  -0.45099  -0.44796  -0.44116  -0.43823
 Alpha  occ. eigenvalues --   -0.43774  -0.43646  -0.43030  -0.42792  -0.42747
 Alpha  occ. eigenvalues --   -0.42458  -0.41906  -0.41825  -0.41660  -0.41460
 Alpha  occ. eigenvalues --   -0.41202  -0.40668  -0.40524  -0.40450  -0.40048
 Alpha  occ. eigenvalues --   -0.39983  -0.39688  -0.39155  -0.38996  -0.38813
 Alpha  occ. eigenvalues --   -0.38350  -0.37852  -0.37432  -0.37256  -0.36342
 Alpha  occ. eigenvalues --   -0.35927  -0.35543  -0.35375  -0.35044  -0.34355
 Alpha  occ. eigenvalues --   -0.33989  -0.33711  -0.32190  -0.31998  -0.31792
 Alpha  occ. eigenvalues --   -0.31228  -0.30831  -0.28498  -0.28234  -0.27177
 Alpha  occ. eigenvalues --   -0.26899  -0.26653  -0.26485  -0.26297  -0.25581
 Alpha  occ. eigenvalues --   -0.24605  -0.24419  -0.24207  -0.22368  -0.18588
 Alpha virt. eigenvalues --   -0.10634  -0.06431  -0.06107  -0.03709  -0.01788
 Alpha virt. eigenvalues --    0.01061   0.01378   0.01888   0.02887   0.03062
 Alpha virt. eigenvalues --    0.03585   0.04267   0.04642   0.05167   0.05520

 Mulliken charges:
               1
     1  O   -0.183024
     2  O   -0.207370
     3  O   -0.192550
     4  O   -0.300136
     5  O   -0.277352
     6  O   -0.172928
     7  N   -0.057264
     8  N   -0.218778
     9  N   -0.044832
    10  N   -0.285603
    11  C    0.090111
    12  C    0.110343
    13  C   -0.068421
    14  C   -0.171474
    15  C   -0.087942
    16  C    0.081517
    17  C   -0.156118
    18  C    0.056158
    19  C   -0.055845
    20  C   -0.102991
    21  C    0.068099
    22  C    0.158077
    23  C   -0.149001
    24  C    0.106581
    25  C    0.069567
    26  C   -0.149166
    27  C   -0.013714
    28  C    0.158205
    29  C    0.130832
    30  C    0.000302
    31  C   -0.097567
    32  C    0.236266
    33  C    0.009561
    34  C    0.127233
    35  C    0.035147
    36  C   -0.028626
    37  C    0.232143
    38  C    0.002311
    39  C   -0.228801
    40  C    0.123968
    41  C    0.012142
    42  C    0.210735
    43  C   -0.003278
    44  H    0.030598
    45  H    0.026231
    46  H    0.003246
    47  H    0.094174
    48  H    0.099440
    49  H    0.005307
    50  H    0.013198
    51  H   -0.001087
    52  H   -0.017143
    53  H    0.040333
    54  H    0.050413
    55  H    0.027091
    56  H    0.031405
    57  H    0.036213
    58  H    0.055766
    59  H    0.017593
    60  H    0.175826
    61  H    0.036468
    62  H    0.043101
    63  H    0.028807
    64  H    0.088246
    65  H    0.080092
    66  H   -0.042601
    67  H    0.003940
    68  H    0.024500
    69  H   -0.153385
    70  H    0.039006
    71  H   -0.008541
    72  H    0.178294
    73  H   -0.040787
    74  H    0.029631
    75  H   -0.065279
    76  H    0.029301
    77  H    0.241277
    78  H    0.052437
    79  H   -0.019628
 Sum of Mulliken charges =   0.00000

 Dipole moment (field-independent basis, Debye):
    X=              1.0286    Y=              1.7197    Z=              3.1640  Tot=              3.7452
 Quadrupole moment (field-independent basis, Debye-Ang):
   XX=           -219.2988   YY=           -253.4809   ZZ=           -259.4309
   XY=             -7.1859   XZ=             33.5559   YZ=              3.5229

 Normal termination of Gaussian 09 at Wed Jul 10 05:47:09 2019.
