 Gaussian 09, Revision D.01,
 Gaussian 09:  ES64L-G09RevD.01 24-Apr-2013

 --------------------------
 # td=(NStates=1) B3LYP/SVP
 --------------------------

 --
 TD
 --
 Symbolic Z-matrix:
 Charge =  0 Multiplicity = 1

                         Standard orientation:
 ---------------------------------------------------------------------
 Center     Atomic      Atomic             Coordinates (Angstroms)
 Number     Number       Type             X           Y           Z
 ---------------------------------------------------------------------
      1          8           0        5.534789    0.033944   -3.411578
      2          8           0       -3.002021   -2.941763    3.347233
      3          8           0       -3.074212   -0.737781    3.588799
      4          8           0       -2.063361    7.256054    1.334671
      5          8           0       -0.795657    6.889918   -0.526052
      6          8           0       -1.773633   -4.044157    0.016866
      7          7           0        2.276176    0.849959    0.477109
      8          7           0        4.542231   -0.616385   -1.320436
      9          7           0       -1.938007    0.628002   -0.308293
     10          7           0       -2.631798   -2.009965   -0.447872
     11          6           0        4.859582   -1.203032   -0.019779
     12          6           0        4.421115   -0.303642    1.176325
     13          6           0        2.964896   -0.043304    1.273829
     14          6           0        1.954459   -0.555424    2.094533
     15          6           0        0.696079   -0.087442    1.743734
     16          6           0        0.935718    0.937104    0.877783
     17          6           0        6.443547   -1.279168   -0.114326
     18          6           0       -0.537892   -0.222193    2.564053
     19          6           0        6.803999   -0.788688   -1.315291
     20          6           0        0.143192    1.992393    0.230851
     21          6           0       -1.175971    1.752641   -0.256085
     22          6           0        5.600295   -0.355823   -2.225164
     23          6           0       -2.041508    2.805503   -0.738355
     24          6           0        2.258115   -1.628224    3.103355
     25          6           0        7.208714   -1.930859    1.081069
     26          6           0       -3.137952    2.253800   -1.277819
     27          6           0       -1.146566   -1.719830    2.503281
     28          6           0       -3.076952    0.841892   -0.967215
     29          6           0       -1.648715    4.274495   -0.930858
     30          6           0        8.124216   -0.675238   -1.924934
     31          6           0       -1.917311    5.068680    0.413643
     32          6           0       -4.394278    2.959211   -1.914947
     33          6           0       -3.969037   -0.130757   -1.356199
     34          6           0       -2.513554   -1.759501    3.184502
     35          6           0       -3.751621   -1.485707   -1.069471
     36          6           0        9.364549   -0.422247   -1.453995
     37          6           0       -1.563149    6.530897    0.353609
     38          6           0       -4.604637   -2.651441   -1.534530
     39          6           0       -3.962322   -3.796230   -1.125710
     40          6           0       -2.607727   -3.317443   -0.464354
     41          6           0       -5.795052   -2.415853   -2.289131
     42          6           0       -4.303958   -5.152524   -1.449083
     43          6           0       -6.677752   -3.473355   -2.643492
     44          1           0        4.269436   -2.264757    0.042672
     45          1           0        4.931080    0.653112    1.171184
     46          1           0        4.844949   -0.590653    1.986185
     47          1           0        2.939416    1.545023   -0.185744
     48          1           0        3.464800   -0.424496   -1.556092
     49          1           0       -0.442039    0.034061    3.493253
     50          1           0       -1.369756    0.444428    2.164519
     51          1           0        0.741456    2.904357   -0.274118
     52          1           0        3.290185   -1.587938    3.218303
     53          1           0        1.806799   -1.506926    4.193571
     54          1           0        1.952211   -2.743186    2.992665
     55          1           0        6.628469   -2.735595    1.605043
     56          1           0        7.349612   -1.177805    1.898010
     57          1           0        8.220501   -2.117570    0.683750
     58          1           0       -1.284636   -2.269524    1.578577
     59          1           0       -0.472188   -2.414101    2.964868
     60          1           0       -1.537787   -0.345535   -0.095016
     61          1           0       -2.245826    4.642109   -1.677972
     62          1           0       -0.676042    4.428754   -1.201277
     63          1           0        8.026295   -0.658894   -3.164755
     64          1           0       -1.155804    4.791429    1.153884
     65          1           0       -3.062943    5.167813    0.773448
     66          1           0       -4.263988    4.075690   -1.537382
     67          1           0       -5.468348    2.562111   -1.385266
     68          1           0       -4.236882    2.890590   -3.067015
     69          1           0       -4.863123   -0.020160   -2.073323
     70          1           0        9.664984   -0.412194   -0.345335
     71          1           0       10.164643    0.017241   -2.155883
     72          1           0       -3.899720   -2.770406    3.717619
     73          1           0       -6.208921   -1.402872   -2.409582
     74          1           0       -4.458721   -5.294566   -2.493264
     75          1           0       -3.573341   -5.993982   -0.886955
     76          1           0       -5.456890   -5.376713   -1.181327
     77          1           0       -1.651468    8.175712    0.982708
     78          1           0       -7.738502   -3.521756   -3.131553
     79          1           0       -6.290510   -4.425951   -2.580461
 ---------------------------------------------------------------------

 SCF Done:  E(RB3LYP) =  -1947.82854790     A.U. after   20 cycles

 Excitation energies and oscillator strengths:

 Excited State   1:      Singlet-A      2.0969 eV  591.28 nm  f=0.2252  <S**2>=0.000
     154 ->156         0.45401
     155 ->156         0.53794
 This state for optimization and/or second-order correction.
 Total Energy, E(TD-HF/TD-KS) =  -1947.75148921
 Copying the excited state density for this state as the 1-particle RhoCI density.

 The electronic state is 1-A.
 Alpha  occ. eigenvalues --  -19.21275 -19.18004 -19.13143 -19.11712 -19.10080
 Alpha  occ. eigenvalues --  -19.09398 -14.39506 -14.37773 -14.36650 -14.28250
 Alpha  occ. eigenvalues --  -10.32508 -10.30573 -10.30047 -10.26718 -10.25587
 Alpha  occ. eigenvalues --  -10.25158 -10.24876 -10.23903 -10.23819 -10.23793
 Alpha  occ. eigenvalues --  -10.23466 -10.23235 -10.23186 -10.22448 -10.22240
 Alpha  occ. eigenvalues --  -10.21662 -10.21399 -10.21231 -10.21007 -10.20938
 Alpha  occ. eigenvalues --  -10.20856 -10.20827 -10.20311 -10.19966 -10.19952
 Alpha  occ. eigenvalues --  -10.19915 -10.19649 -10.19404 -10.19217 -10.18920
 Alpha  occ. eigenvalues --  -10.18775 -10.18358 -10.17918  -1.11698  -1.10466
 Alpha  occ. eigenvalues --   -1.01527  -1.01438  -1.01189  -1.00597  -0.98375
 Alpha  occ. eigenvalues --   -0.97990  -0.93110  -0.91466  -0.83041  -0.82164
 Alpha  occ. eigenvalues --   -0.81222  -0.80954  -0.80418  -0.80263  -0.77820
 Alpha  occ. eigenvalues --   -0.77047  -0.75537  -0.75237  -0.74127  -0.72504
 Alpha  occ. eigenvalues --   -0.71027  -0.70717  -0.69366  -0.68944  -0.68107
 Alpha  occ. eigenvalues --   -0.67352  -0.66595  -0.64229  -0.60624  -0.60248
 Alpha  occ. eigenvalues --   -0.59643  -0.59196  -0.58629  -0.57758  -0.57330
 Alpha  occ. eigenvalues --   -0.56367  -0.55805  -0.55304  -0.54256  -0.52855
 Alpha  occ. eigenvalues --   -0.51788  -0.51136  -0.50890  -0.50552  -0.49742
 Alpha  occ. eigenvalues --   -0.49213  -0.48584  -0.48310  -0.47640  -0.47389
 Alpha  occ. eigenvalues --   -0.47091  -0.46845  -0.46517  -0.46103  -0.45907
 Alpha  occ. eigenvalues --   -0.45438  -0.45154  -0.44522  -0.43850  -0.43636
 Alpha  occ. eigenvalues --   -0.43428  -0.43295  -0.42932  -0.42771  -0.42596
 Alpha  occ. eigenvalues --   -0.42230  -0.42182  -0.41785  -0.41490  -0.41409
 Alpha  occ. eigenvalues --   -0.40735  -0.40473  -0.39997  -0.39831  -0.39642
 Alpha  occ. eigenvalues --   -0.39028  -0.38812  -0.38647  -0.38321  -0.38182
 Alpha  occ. eigenvalues --   -0.38090  -0.37758  -0.37351  -0.37265  -0.37037
 Alpha  occ. eigenvalues --   -0.36673  -0.36594  -0.35563  -0.35495  -0.34271
 Alpha  occ. eigenvalues --   -0.34213  -0.34016  -0.33542  -0.32736  -0.31065
 Alpha  occ. eigenvalues --   -0.30764  -0.30405  -0.28286  -0.28182  -0.27103
 Alpha  occ. eigenvalues --   -0.26752  -0.26504  -0.26120  -0.26066  -0.25392
 Alpha  occ. eigenvalues --   -0.24579  -0.24069  -0.23270  -0.21377  -0.19649
 Alpha virt. eigenvalues --   -0.11359  -0.06358  -0.06086  -0.01789  -0.00057
 Alpha virt. eigenvalues --    0.00243   0.00447   0.01408   0.01758   0.02749
 Alpha virt. eigenvalues --    0.02811   0.02933   0.03857   0.04841   0.04872

 Mulliken charges:
               1
     1  O   -0.235728
     2  O   -0.117559
     3  O   -0.283290
     4  O   -0.185899
     5  O   -0.260100
     6  O   -0.206835
     7  N   -0.178035
     8  N   -0.287187
     9  N   -0.042154
    10  N   -0.254893
    11  C    0.035272
    12  C    0.305514
    13  C   -0.070030
    14  C   -0.107531
    15  C   -0.056759
    16  C    0.069112
    17  C   -0.146808
    18  C    0.149113
    19  C   -0.087678
    20  C   -0.094582
    21  C    0.052344
    22  C    0.241281
    23  C   -0.099862
    24  C    0.049766
    25  C    0.091652
    26  C   -0.132936
    27  C   -0.011093
    28  C    0.167001
    29  C    0.224268
    30  C   -0.049457
    31  C   -0.033590
    32  C   -0.006245
    33  C   -0.154271
    34  C    0.108091
    35  C    0.056113
    36  C   -0.089107
    37  C    0.107496
    38  C    0.069285
    39  C   -0.181206
    40  C    0.124974
    41  C   -0.050434
    42  C    0.007870
    43  C   -0.044399
    44  H    0.061852
    45  H   -0.022054
    46  H   -0.093721
    47  H    0.176179
    48  H    0.159525
    49  H   -0.044189
    50  H    0.026934
    51  H    0.042724
    52  H   -0.031451
    53  H    0.017054
    54  H    0.045733
    55  H    0.042333
    56  H    0.033255
    57  H    0.039861
    58  H    0.039226
    59  H    0.001869
    60  H    0.183758
    61  H   -0.025986
    62  H   -0.017053
    63  H    0.056604
    64  H    0.047804
    65  H    0.059455
    66  H    0.041951
    67  H    0.073943
    68  H    0.064498
    69  H    0.010934
    70  H    0.027560
    71  H    0.050915
    72  H    0.179475
    73  H    0.002563
    74  H    0.027022
    75  H    0.064570
    76  H    0.032443
    77  H    0.214406
    78  H    0.045143
    79  H   -0.026620
 Sum of Mulliken charges =   0.00000

 Dipole moment (field-independent basis, Debye):
    X=              0.4179    Y=              3.7274    Z=              2.5662  Tot=              4.5446
 Quadrupole moment (field-independent basis, Debye-Ang):
   XX=           -224.3751   YY=           -244.3805   ZZ=           -267.3025
   XY=             -8.3421   XZ=             37.8401   YZ=              0.2924

 Normal termination of Gaussian 09 at Sun Jul  7 12:52:48 2019.
