 Gaussian 09, Revision D.01,
 Gaussian 09:  ES64L-G09RevD.01 24-Apr-2013

 --------------------------
 # td=(NStates=1) B3LYP/SVP
 --------------------------

 --
 TD
 --
 Symbolic Z-matrix:
 Charge =  0 Multiplicity = 1

                         Standard orientation:
 ---------------------------------------------------------------------
 Center     Atomic      Atomic             Coordinates (Angstroms)
 Number     Number       Type             X           Y           Z
 ---------------------------------------------------------------------
      1          8           0        5.410658   -0.185757   -3.410448
      2          8           0       -2.905452   -2.982888    3.294050
      3          8           0       -3.060869   -0.766735    3.459568
      4          8           0       -1.411591    7.198749    1.608662
      5          8           0       -0.798653    7.130418   -0.553929
      6          8           0       -2.216062   -4.182160    0.063813
      7          7           0        2.387249    0.860794    0.533254
      8          7           0        4.432042   -0.684311   -1.270378
      9          7           0       -1.820887    0.714252   -0.318144
     10          7           0       -2.663183   -1.962924   -0.496787
     11          6           0        4.864792   -1.228117   -0.089685
     12          6           0        4.533603   -0.248165    1.055109
     13          6           0        3.079060   -0.063362    1.299340
     14          6           0        2.103204   -0.720161    1.997580
     15          6           0        0.906626   -0.082804    1.821733
     16          6           0        1.136442    0.782026    0.730279
     17          6           0        6.307603   -1.257181   -0.203327
     18          6           0       -0.500573   -0.259674    2.536254
     19          6           0        6.702908   -0.847072   -1.514815
     20          6           0        0.207828    1.832187    0.228367
     21          6           0       -1.063084    1.795059   -0.291587
     22          6           0        5.410831   -0.577511   -2.178436
     23          6           0       -1.793479    2.841851   -0.893692
     24          6           0        2.348745   -1.761766    3.079811
     25          6           0        7.234136   -1.949269    0.921083
     26          6           0       -3.079876    2.326065   -1.215730
     27          6           0       -0.998492   -1.708498    2.531566
     28          6           0       -3.084127    0.932888   -0.888727
     29          6           0       -1.549846    4.329462   -0.870957
     30          6           0        7.996532   -0.695897   -2.164916
     31          6           0       -1.805546    5.092285    0.438366
     32          6           0       -4.291010    3.140144   -1.818375
     33          6           0       -3.967525   -0.033230   -1.290826
     34          6           0       -2.447231   -1.729340    3.120065
     35          6           0       -3.815227   -1.423539   -1.054841
     36          6           0        9.212018   -0.784257   -1.482780
     37          6           0       -1.291723    6.577094    0.424494
     38          6           0       -4.810073   -2.507119   -1.467648
     39          6           0       -4.365857   -3.671873   -0.984933
     40          6           0       -2.925690   -3.380600   -0.506028
     41          6           0       -6.131983   -2.301926   -2.124292
     42          6           0       -4.790760   -5.021540   -1.049537
     43          6           0       -6.828924   -3.031786   -2.960793
     44          1           0        4.517220   -2.333305    0.041944
     45          1           0        5.101353    0.591200    0.904522
     46          1           0        4.934041   -0.671107    1.996997
     47          1           0        2.892761    1.236277   -0.115458
     48          1           0        3.451924   -0.669960   -1.337789
     49          1           0       -0.238034   -0.064143    3.636944
     50          1           0       -1.151176    0.247647    2.168319
     51          1           0        0.619772    2.794142    0.141828
     52          1           0        3.699674   -1.924421    3.215981
     53          1           0        1.876990   -1.590730    4.015066
     54          1           0        2.125181   -2.728566    2.756873
     55          1           0        6.522435   -2.529699    1.653636
     56          1           0        7.943292   -1.026139    1.481201
     57          1           0        8.051466   -2.695495    0.669799
     58          1           0       -0.889632   -2.223522    1.492690
     59          1           0       -0.479851   -2.673318    3.110711
     60          1           0       -1.618674   -0.343946   -0.177286
     61          1           0       -2.069397    4.850161   -1.616496
     62          1           0       -0.656170    4.541245   -1.221758
     63          1           0        8.169698   -0.817808   -3.207847
     64          1           0       -1.619521    4.596798    1.371759
     65          1           0       -2.923253    5.474583    0.641895
     66          1           0       -4.160980    4.267135   -1.774042
     67          1           0       -5.323209    2.733640   -1.440754
     68          1           0       -4.369727    2.726539   -2.928755
     69          1           0       -4.879833    0.387717   -1.652900
     70          1           0        9.105979   -1.123309   -0.424111
     71          1           0       10.148835   -0.620378   -2.048755
     72          1           0       -3.862045   -2.875146    3.483651
     73          1           0       -6.401883   -1.228605   -1.777272
     74          1           0       -4.644368   -5.412902   -2.269205
     75          1           0       -4.059457   -5.664926   -0.661622
     76          1           0       -5.972159   -5.092782   -0.790784
     77          1           0       -1.052024    8.049176    1.542064
     78          1           0       -7.718071   -2.600101   -3.213449
     79          1           0       -6.581759   -3.959878   -3.289666
 ---------------------------------------------------------------------

 SCF Done:  E(RB3LYP) =  -1947.76754476     A.U. after   16 cycles

 Excitation energies and oscillator strengths:

 Excited State   1:      Singlet-A      2.1400 eV  579.35 nm  f=0.4646  <S**2>=0.000
     151 ->156        -0.10093
     155 ->156         0.69578
     155 <-156        -0.11587
 This state for optimization and/or second-order correction.
 Total Energy, E(TD-HF/TD-KS) =  -1947.68889939
 Copying the excited state density for this state as the 1-particle RhoCI density.

 The electronic state is 1-A.
 Alpha  occ. eigenvalues --  -19.19180 -19.16835 -19.13247 -19.11676 -19.11112
 Alpha  occ. eigenvalues --  -19.08770 -14.38034 -14.36809 -14.36438 -14.30397
 Alpha  occ. eigenvalues --  -10.33402 -10.30694 -10.28670 -10.26970 -10.25172
 Alpha  occ. eigenvalues --  -10.24671 -10.24655 -10.24464 -10.24130 -10.23237
 Alpha  occ. eigenvalues --  -10.22903 -10.22887 -10.22830 -10.22373 -10.21823
 Alpha  occ. eigenvalues --  -10.21608 -10.21597 -10.21491 -10.21317 -10.20851
 Alpha  occ. eigenvalues --  -10.20849 -10.20686 -10.20597 -10.20394 -10.20333
 Alpha  occ. eigenvalues --  -10.20164 -10.19917 -10.19476 -10.19444 -10.19067
 Alpha  occ. eigenvalues --  -10.19013 -10.18962 -10.18356  -1.11177  -1.09014
 Alpha  occ. eigenvalues --   -1.03017  -1.02061  -1.01845  -1.00955  -1.00043
 Alpha  occ. eigenvalues --   -0.99249  -0.94719  -0.90579  -0.82784  -0.82691
 Alpha  occ. eigenvalues --   -0.82339  -0.81837  -0.81113  -0.80525  -0.77640
 Alpha  occ. eigenvalues --   -0.77535  -0.76939  -0.76346  -0.75144  -0.72994
 Alpha  occ. eigenvalues --   -0.71310  -0.70884  -0.70392  -0.69526  -0.69160
 Alpha  occ. eigenvalues --   -0.67357  -0.66991  -0.64857  -0.63105  -0.62014
 Alpha  occ. eigenvalues --   -0.61293  -0.60755  -0.59256  -0.57813  -0.57336
 Alpha  occ. eigenvalues --   -0.57196  -0.56049  -0.55827  -0.55007  -0.54050
 Alpha  occ. eigenvalues --   -0.53429  -0.51821  -0.51456  -0.50577  -0.49811
 Alpha  occ. eigenvalues --   -0.49493  -0.49052  -0.48834  -0.48541  -0.48426
 Alpha  occ. eigenvalues --   -0.47811  -0.47307  -0.47216  -0.46661  -0.46444
 Alpha  occ. eigenvalues --   -0.45417  -0.45371  -0.45012  -0.44448  -0.44125
 Alpha  occ. eigenvalues --   -0.43278  -0.43091  -0.42796  -0.42661  -0.42464
 Alpha  occ. eigenvalues --   -0.42154  -0.41912  -0.41799  -0.41444  -0.41145
 Alpha  occ. eigenvalues --   -0.41045  -0.40637  -0.40351  -0.40080  -0.39731
 Alpha  occ. eigenvalues --   -0.39688  -0.39053  -0.38937  -0.38897  -0.38763
 Alpha  occ. eigenvalues --   -0.38595  -0.38140  -0.37579  -0.37522  -0.37333
 Alpha  occ. eigenvalues --   -0.37253  -0.35616  -0.35554  -0.35288  -0.34523
 Alpha  occ. eigenvalues --   -0.34358  -0.33881  -0.33146  -0.32080  -0.31500
 Alpha  occ. eigenvalues --   -0.31027  -0.30668  -0.28960  -0.28610  -0.28446
 Alpha  occ. eigenvalues --   -0.27395  -0.26649  -0.25936  -0.25883  -0.24406
 Alpha  occ. eigenvalues --   -0.24300  -0.24021  -0.23242  -0.22740  -0.19548
 Alpha virt. eigenvalues --   -0.11318  -0.07041  -0.06282  -0.00672  -0.00493
 Alpha virt. eigenvalues --   -0.00148   0.01117   0.01699   0.01936   0.03026
 Alpha virt. eigenvalues --    0.04025   0.04135   0.04608   0.04751   0.05060

 Mulliken charges:
               1
     1  O   -0.303618
     2  O   -0.177733
     3  O   -0.217684
     4  O   -0.145139
     5  O   -0.243525
     6  O   -0.193386
     7  N    0.105793
     8  N   -0.089128
     9  N   -0.100232
    10  N   -0.320933
    11  C    0.034896
    12  C    0.242023
    13  C   -0.155197
    14  C   -0.096166
    15  C   -0.128327
    16  C   -0.006989
    17  C   -0.165221
    18  C    0.343108
    19  C    0.017940
    20  C   -0.084818
    21  C    0.080740
    22  C    0.150211
    23  C   -0.095385
    24  C    0.067280
    25  C   -0.046451
    26  C   -0.119960
    27  C   -0.167443
    28  C    0.103149
    29  C    0.242442
    30  C   -0.035387
    31  C   -0.034628
    32  C    0.026471
    33  C   -0.081966
    34  C    0.149260
    35  C    0.116299
    36  C   -0.035886
    37  C    0.117505
    38  C    0.009804
    39  C   -0.182057
    40  C    0.161298
    41  C   -0.052154
    42  C    0.042188
    43  C    0.077858
    44  H    0.045023
    45  H   -0.036174
    46  H    0.000606
    47  H    0.043002
    48  H    0.111894
    49  H    0.022115
    50  H   -0.108053
    51  H   -0.039159
    52  H   -0.001817
    53  H    0.026530
    54  H    0.013265
    55  H    0.043254
    56  H    0.065356
    57  H    0.064482
    58  H    0.084638
    59  H    0.048958
    60  H    0.179771
    61  H   -0.022200
    62  H   -0.043620
    63  H    0.013475
    64  H    0.034263
    65  H    0.047492
    66  H    0.052247
    67  H    0.044569
    68  H    0.046046
    69  H   -0.046792
    70  H    0.006407
    71  H    0.041180
    72  H    0.176904
    73  H    0.011448
    74  H    0.039190
    75  H    0.014862
    76  H    0.060081
    77  H    0.160740
    78  H    0.003133
    79  H   -0.011971
 Sum of Mulliken charges =   0.00000

 Dipole moment (field-independent basis, Debye):
    X=             -0.5941    Y=              1.6423    Z=              3.0125  Tot=              3.4821
 Quadrupole moment (field-independent basis, Debye-Ang):
   XX=           -218.3543   YY=           -246.7465   ZZ=           -271.6802
   XY=            -12.0437   XZ=             33.8621   YZ=              8.8548

 Normal termination of Gaussian 09 at Sun Jul  7 13:54:16 2019.
