 Gaussian 09, Revision D.01,
 Gaussian 09:  ES64L-G09RevD.01 24-Apr-2013

 --------------------------
 # td=(NStates=1) B3LYP/SVP
 --------------------------

 --
 TD
 --
 Symbolic Z-matrix:
 Charge =  0 Multiplicity = 1

                         Standard orientation:
 ---------------------------------------------------------------------
 Center     Atomic      Atomic             Coordinates (Angstroms)
 Number     Number       Type             X           Y           Z
 ---------------------------------------------------------------------
      1          8           0        5.383149   -0.053076   -3.211660
      2          8           0       -2.950686   -3.122849    2.983334
      3          8           0       -3.211342   -0.890427    3.278002
      4          8           0       -1.938138    7.035827    1.706488
      5          8           0       -0.937620    7.174636   -0.269429
      6          8           0       -1.819662   -3.974658    0.023233
      7          7           0        2.349379    0.907528    0.520670
      8          7           0        4.566829   -0.565432   -1.210452
      9          7           0       -1.833558    0.605863   -0.498679
     10          7           0       -2.601503   -1.952231   -0.559921
     11          6           0        4.997550   -1.156186    0.001810
     12          6           0        4.522256   -0.249893    1.194326
     13          6           0        2.962266   -0.028771    1.239886
     14          6           0        1.940789   -0.704900    2.014983
     15          6           0        0.745472   -0.093281    1.696072
     16          6           0        0.986231    0.954820    0.750708
     17          6           0        6.509304   -1.259172   -0.065560
     18          6           0       -0.609241   -0.333215    2.294452
     19          6           0        6.884570   -0.709784   -1.283187
     20          6           0        0.204307    1.820816    0.015854
     21          6           0       -1.085684    1.797821   -0.450752
     22          6           0        5.622672   -0.382754   -2.064113
     23          6           0       -1.938254    2.925329   -0.903401
     24          6           0        2.196857   -1.855543    2.992813
     25          6           0        7.298543   -1.687730    1.021131
     26          6           0       -3.142086    2.310514   -1.293256
     27          6           0       -0.980580   -1.839668    2.378188
     28          6           0       -3.057608    0.949094   -1.078858
     29          6           0       -1.529963    4.391934   -0.943727
     30          6           0        8.121160   -0.649731   -1.924066
     31          6           0       -1.864575    5.002136    0.437199
     32          6           0       -4.424586    3.042634   -1.841700
     33          6           0       -3.995346   -0.112703   -1.392327
     34          6           0       -2.462960   -1.858673    2.988548
     35          6           0       -3.685034   -1.463878   -1.148455
     36          6           0        9.334236   -0.681122   -1.459032
     37          6           0       -1.522120    6.524114    0.527519
     38          6           0       -4.700851   -2.614454   -1.400673
     39          6           0       -4.012344   -3.657100   -0.989055
     40          6           0       -2.688951   -3.316485   -0.494620
     41          6           0       -6.079633   -2.376329   -1.967447
     42          6           0       -4.472035   -5.119660   -1.214815
     43          6           0       -6.994571   -3.272341   -2.277664
     44          1           0        4.707016   -2.233268    0.104796
     45          1           0        4.934161    0.810251    1.001912
     46          1           0        4.665185   -0.656055    2.373297
     47          1           0        2.885491    1.445962   -0.314552
     48          1           0        3.774122   -0.970582   -1.962806
     49          1           0       -0.539835   -0.007097    3.317174
     50          1           0       -1.499367    0.328831    2.001182
     51          1           0        0.683287    2.898284   -0.067974
     52          1           0        3.210279   -1.789831    3.194558
     53          1           0        1.575309   -1.503092    3.833618
     54          1           0        1.967563   -2.869333    2.444730
     55          1           0        6.782353   -2.270227    1.623997
     56          1           0        7.678839   -0.816493    1.615607
     57          1           0        8.287754   -2.094161    0.761047
     58          1           0       -1.103010   -2.255947    1.327108
     59          1           0       -0.504799   -2.633529    2.876890
     60          1           0       -1.664934   -0.262612   -0.464457
     61          1           0       -2.057242    5.111671   -1.681727
     62          1           0       -0.493130    4.411545   -1.062868
     63          1           0        8.066628   -0.542895   -3.157763
     64          1           0       -1.420643    4.294546    1.214146
     65          1           0       -2.885690    4.823416    0.750642
     66          1           0       -4.190182    4.182488   -1.868614
     67          1           0       -5.309737    2.726263   -1.153491
     68          1           0       -4.639349    2.765877   -2.976249
     69          1           0       -4.931052    0.290350   -1.766145
     70          1           0        9.745097   -0.680768   -0.353811
     71          1           0       10.154049   -0.588062   -2.095751
     72          1           0       -3.686516   -3.074471    3.478283
     73          1           0       -6.229006   -1.204761   -1.935488
     74          1           0       -4.534169   -5.210496   -2.374255
     75          1           0       -3.528935   -5.864277   -0.932198
     76          1           0       -5.481519   -5.358690   -0.531185
     77          1           0       -1.636478    7.969651    1.754231
     78          1           0       -7.953022   -2.810511   -2.624069
     79          1           0       -6.880905   -4.462720   -2.355576
 ---------------------------------------------------------------------

 SCF Done:  E(RB3LYP) =  -1947.84361057     A.U. after   19 cycles

 Excitation energies and oscillator strengths:

 Excited State   1:      Singlet-A      2.1098 eV  587.66 nm  f=0.5205  <S**2>=0.000
     155 ->156         0.70335
     155 <-156        -0.12510
 This state for optimization and/or second-order correction.
 Total Energy, E(TD-HF/TD-KS) =  -1947.76607722
 Copying the excited state density for this state as the 1-particle RhoCI density.

 The electronic state is 1-A.
 Alpha  occ. eigenvalues --  -19.18644 -19.16074 -19.13939 -19.11144 -19.10906
 Alpha  occ. eigenvalues --  -19.09000 -14.39418 -14.36458 -14.34999 -14.27056
 Alpha  occ. eigenvalues --  -10.33044 -10.30689 -10.28965 -10.26218 -10.24975
 Alpha  occ. eigenvalues --  -10.24703 -10.24517 -10.23872 -10.23757 -10.23274
 Alpha  occ. eigenvalues --  -10.22507 -10.22469 -10.22450 -10.22216 -10.22187
 Alpha  occ. eigenvalues --  -10.21806 -10.21751 -10.21161 -10.20949 -10.20793
 Alpha  occ. eigenvalues --  -10.20735 -10.20581 -10.20463 -10.20059 -10.19923
 Alpha  occ. eigenvalues --  -10.19844 -10.19349 -10.19198 -10.18801 -10.18568
 Alpha  occ. eigenvalues --  -10.18557 -10.18521 -10.17640  -1.11017  -1.08612
 Alpha  occ. eigenvalues --   -1.04081  -1.02143  -1.01096  -0.99179  -0.97816
 Alpha  occ. eigenvalues --   -0.97338  -0.95200  -0.91285  -0.84099  -0.82952
 Alpha  occ. eigenvalues --   -0.81624  -0.80905  -0.79751  -0.78951  -0.78502
 Alpha  occ. eigenvalues --   -0.77341  -0.75405  -0.75299  -0.73813  -0.73041
 Alpha  occ. eigenvalues --   -0.71989  -0.70748  -0.69106  -0.68790  -0.67054
 Alpha  occ. eigenvalues --   -0.66574  -0.65610  -0.63264  -0.61490  -0.60671
 Alpha  occ. eigenvalues --   -0.59718  -0.58693  -0.58192  -0.57898  -0.56937
 Alpha  occ. eigenvalues --   -0.56615  -0.55579  -0.54937  -0.54872  -0.53220
 Alpha  occ. eigenvalues --   -0.52366  -0.51637  -0.51068  -0.49658  -0.49547
 Alpha  occ. eigenvalues --   -0.48843  -0.48356  -0.47943  -0.47726  -0.47048
 Alpha  occ. eigenvalues --   -0.46777  -0.46433  -0.46136  -0.45782  -0.45637
 Alpha  occ. eigenvalues --   -0.45170  -0.44839  -0.44477  -0.44064  -0.43509
 Alpha  occ. eigenvalues --   -0.43145  -0.43095  -0.42928  -0.42673  -0.42443
 Alpha  occ. eigenvalues --   -0.42231  -0.41764  -0.41510  -0.40949  -0.40673
 Alpha  occ. eigenvalues --   -0.40378  -0.40273  -0.40205  -0.39883  -0.39655
 Alpha  occ. eigenvalues --   -0.39432  -0.39253  -0.38926  -0.38611  -0.38459
 Alpha  occ. eigenvalues --   -0.37864  -0.37671  -0.37230  -0.36595  -0.36068
 Alpha  occ. eigenvalues --   -0.35524  -0.35152  -0.34533  -0.33904  -0.33623
 Alpha  occ. eigenvalues --   -0.33578  -0.33031  -0.32958  -0.32867  -0.32383
 Alpha  occ. eigenvalues --   -0.30667  -0.30143  -0.29712  -0.28558  -0.27914
 Alpha  occ. eigenvalues --   -0.26560  -0.26258  -0.25958  -0.25548  -0.24886
 Alpha  occ. eigenvalues --   -0.24710  -0.23633  -0.23164  -0.22054  -0.18402
 Alpha virt. eigenvalues --   -0.10313  -0.06880  -0.05415  -0.00441  -0.00246
 Alpha virt. eigenvalues --    0.00208   0.00962   0.01189   0.01636   0.02444
 Alpha virt. eigenvalues --    0.03056   0.03642   0.04478   0.04871   0.05373

 Mulliken charges:
               1
     1  O   -0.223032
     2  O   -0.114073
     3  O   -0.283412
     4  O   -0.189338
     5  O   -0.191434
     6  O   -0.194910
     7  N   -0.081623
     8  N   -0.223989
     9  N    0.022178
    10  N   -0.257483
    11  C    0.100864
    12  C    0.104304
    13  C   -0.101960
    14  C   -0.198371
    15  C   -0.047484
    16  C    0.102356
    17  C   -0.188849
    18  C    0.069947
    19  C   -0.028133
    20  C   -0.125046
    21  C    0.068162
    22  C    0.120751
    23  C   -0.089916
    24  C    0.155384
    25  C    0.179361
    26  C   -0.137716
    27  C   -0.028584
    28  C    0.042399
    29  C    0.148716
    30  C   -0.041779
    31  C   -0.066736
    32  C    0.017451
    33  C   -0.107186
    34  C    0.130231
    35  C    0.103647
    36  C   -0.066232
    37  C    0.156596
    38  C    0.029114
    39  C   -0.230006
    40  C    0.147547
    41  C    0.003651
    42  C   -0.046673
    43  C   -0.063695
    44  H    0.029307
    45  H    0.013578
    46  H    0.053811
    47  H    0.171074
    48  H    0.192419
    49  H   -0.004160
    50  H    0.044711
    51  H    0.012166
    52  H   -0.044137
    53  H    0.036763
    54  H    0.068186
    55  H   -0.026888
    56  H    0.040456
    57  H    0.027637
    58  H    0.088955
    59  H    0.010884
    60  H    0.025726
    61  H    0.042549
    62  H   -0.003448
    63  H    0.053836
    64  H    0.045560
    65  H    0.026485
    66  H    0.031197
    67  H    0.061055
    68  H    0.053315
    69  H   -0.037448
    70  H    0.025482
    71  H    0.008115
    72  H    0.122602
    73  H    0.024663
    74  H    0.049854
    75  H    0.046619
    76  H    0.060729
    77  H    0.184544
    78  H    0.025178
    79  H    0.063624
 Sum of Mulliken charges =   0.00000

 Dipole moment (field-independent basis, Debye):
    X=              3.9392    Y=              2.5730    Z=              3.0672  Tot=              5.6165
 Quadrupole moment (field-independent basis, Debye-Ang):
   XX=           -213.3575   YY=           -250.1362   ZZ=           -261.9590
   XY=            -17.4510   XZ=             30.3784   YZ=              3.8088

 Normal termination of Gaussian 09 at Tue Jul  9 00:23:56 2019.
