 Gaussian 09, Revision D.01,
 Gaussian 09:  ES64L-G09RevD.01 24-Apr-2013

 --------------------------
 # td=(NStates=1) B3LYP/SVP
 --------------------------

 --
 TD
 --
 Symbolic Z-matrix:
 Charge =  0 Multiplicity = 1

                         Standard orientation:
 ---------------------------------------------------------------------
 Center     Atomic      Atomic             Coordinates (Angstroms)
 Number     Number       Type             X           Y           Z
 ---------------------------------------------------------------------
      1          8           0        5.378585   -0.060949   -3.340532
      2          8           0       -3.049377   -3.034066    3.170901
      3          8           0       -3.214267   -0.806112    3.331213
      4          8           0       -1.615129    7.308958    1.300573
      5          8           0       -0.169821    6.830871   -0.386644
      6          8           0       -1.984552   -4.027820   -0.009449
      7          7           0        2.323163    0.909779    0.632077
      8          7           0        4.520634   -0.362282   -1.238181
      9          7           0       -1.841147    0.620709   -0.334478
     10          7           0       -2.612353   -1.909410   -0.585178
     11          6           0        4.811218   -1.128740   -0.047637
     12          6           0        4.420656   -0.514721    1.249161
     13          6           0        2.877169   -0.074853    1.394711
     14          6           0        1.959322   -0.756873    2.135483
     15          6           0        0.680834   -0.103289    1.840123
     16          6           0        0.940401    0.970610    0.899723
     17          6           0        6.314792   -1.409474   -0.173887
     18          6           0       -0.560855   -0.357747    2.568809
     19          6           0        6.812490   -0.792378   -1.337151
     20          6           0        0.221337    1.896618    0.190383
     21          6           0       -1.122959    1.742998   -0.169203
     22          6           0        5.510862   -0.381645   -2.148421
     23          6           0       -1.860031    2.856681   -0.798821
     24          6           0        2.164140   -1.798562    3.241166
     25          6           0        7.095188   -1.999432    0.868466
     26          6           0       -3.097119    2.345134   -1.237987
     27          6           0       -1.091072   -1.744612    2.485222
     28          6           0       -3.066708    0.875437   -0.932952
     29          6           0       -1.523038    4.324318   -0.808233
     30          6           0        8.060452   -0.707499   -2.040868
     31          6           0       -1.907606    5.253692    0.344532
     32          6           0       -4.312441    3.044912   -1.896734
     33          6           0       -4.097112   -0.026630   -1.272818
     34          6           0       -2.573348   -1.724272    2.952297
     35          6           0       -3.805108   -1.454951   -1.084832
     36          6           0        9.302994   -0.949907   -1.492562
     37          6           0       -1.138459    6.506339    0.419988
     38          6           0       -4.709131   -2.478101   -1.461130
     39          6           0       -4.006392   -3.629504   -1.261069
     40          6           0       -2.808283   -3.269595   -0.534448
     41          6           0       -5.999682   -2.183798   -1.975153
     42          6           0       -4.499754   -5.068319   -1.284236
     43          6           0       -6.631910   -3.166565   -2.784278
     44          1           0        4.368916   -2.337286   -0.214973
     45          1           0        5.168731    0.444510    1.384356
     46          1           0        4.629367   -0.951872    2.233963
     47          1           0        2.754818    1.288261   -0.284055
     48          1           0        3.610461   -0.573678   -1.660028
     49          1           0       -0.406221   -0.137034    3.607955
     50          1           0       -1.390525    0.276113    2.201967
     51          1           0        0.467399    2.884196    0.268583
     52          1           0        3.156981   -1.789565    3.426526
     53          1           0        1.511935   -1.695520    4.114245
     54          1           0        1.779598   -2.800437    2.729201
     55          1           0        6.274551   -2.635505    1.303244
     56          1           0        7.736530   -1.305182    1.442718
     57          1           0        7.872141   -2.691789    0.505065
     58          1           0       -1.261497   -1.943119    1.369863
     59          1           0       -0.376228   -2.409368    3.033512
     60          1           0       -1.565251   -0.453197   -0.328433
     61          1           0       -1.851768    4.661004   -1.674894
     62          1           0       -0.434732    4.406703   -0.925674
     63          1           0        7.999583   -0.127402   -3.036743
     64          1           0       -1.776760    4.824486    1.373403
     65          1           0       -2.956502    5.351766    0.544016
     66          1           0       -4.543626    4.178960   -1.666848
     67          1           0       -5.315807    2.647232   -1.468299
     68          1           0       -4.526475    2.536970   -3.007560
     69          1           0       -4.797762    0.304709   -2.080658
     70          1           0        9.371628   -1.172330   -0.416768
     71          1           0       10.214198   -0.715403   -2.149490
     72          1           0       -3.993264   -3.026481    3.465309
     73          1           0       -6.637725   -1.398791   -1.631593
     74          1           0       -3.869935   -5.358063   -2.384225
     75          1           0       -3.830692   -5.550126   -0.432632
     76          1           0       -5.655105   -4.959020   -1.385386
     77          1           0       -1.522956    8.171787    1.368510
     78          1           0       -7.656725   -2.868234   -3.292553
     79          1           0       -6.207970   -4.147561   -3.265651
 ---------------------------------------------------------------------

 SCF Done:  E(RB3LYP) =  -1947.80666112     A.U. after   17 cycles

 Excitation energies and oscillator strengths:

 Excited State   1:      Singlet-A      2.0070 eV  617.76 nm  f=0.3893  <S**2>=0.000
     154 ->156         0.17310
     155 ->156         0.68296
     155 <-156        -0.11193
 This state for optimization and/or second-order correction.
 Total Energy, E(TD-HF/TD-KS) =  -1947.73290521
 Copying the excited state density for this state as the 1-particle RhoCI density.

 The electronic state is 1-A.
 Alpha  occ. eigenvalues --  -19.19461 -19.15028 -19.12075 -19.11839 -19.10644
 Alpha  occ. eigenvalues --  -19.10096 -14.38095 -14.36829 -14.36570 -14.29217
 Alpha  occ. eigenvalues --  -10.33554 -10.30693 -10.28975 -10.27178 -10.25850
 Alpha  occ. eigenvalues --  -10.25048 -10.24093 -10.23480 -10.23384 -10.23319
 Alpha  occ. eigenvalues --  -10.23134 -10.22545 -10.22460 -10.22053 -10.21666
 Alpha  occ. eigenvalues --  -10.21553 -10.21524 -10.21438 -10.21315 -10.21102
 Alpha  occ. eigenvalues --  -10.20918 -10.20894 -10.20732 -10.20302 -10.20198
 Alpha  occ. eigenvalues --  -10.19833 -10.19758 -10.19591 -10.19563 -10.19350
 Alpha  occ. eigenvalues --  -10.19184 -10.19073 -10.17578  -1.12995  -1.07261
 Alpha  occ. eigenvalues --   -1.02434  -1.00902  -0.98310  -0.98058  -0.97349
 Alpha  occ. eigenvalues --   -0.97304  -0.94988  -0.92581  -0.82955  -0.82614
 Alpha  occ. eigenvalues --   -0.81550  -0.81372  -0.80962  -0.79154  -0.78618
 Alpha  occ. eigenvalues --   -0.77615  -0.76447  -0.75524  -0.74595  -0.72988
 Alpha  occ. eigenvalues --   -0.71568  -0.71184  -0.70469  -0.68981  -0.68520
 Alpha  occ. eigenvalues --   -0.66078  -0.65605  -0.65211  -0.63143  -0.61196
 Alpha  occ. eigenvalues --   -0.60569  -0.58738  -0.57545  -0.57157  -0.56201
 Alpha  occ. eigenvalues --   -0.55965  -0.55689  -0.54989  -0.54487  -0.53691
 Alpha  occ. eigenvalues --   -0.52196  -0.51559  -0.51117  -0.50192  -0.50072
 Alpha  occ. eigenvalues --   -0.49177  -0.48755  -0.47981  -0.47787  -0.47494
 Alpha  occ. eigenvalues --   -0.47219  -0.46681  -0.46187  -0.46074  -0.45945
 Alpha  occ. eigenvalues --   -0.45263  -0.44831  -0.44687  -0.43965  -0.43714
 Alpha  occ. eigenvalues --   -0.43218  -0.42858  -0.42624  -0.42299  -0.42108
 Alpha  occ. eigenvalues --   -0.41992  -0.41699  -0.41430  -0.41062  -0.40798
 Alpha  occ. eigenvalues --   -0.40703  -0.40594  -0.40204  -0.39882  -0.39343
 Alpha  occ. eigenvalues --   -0.39264  -0.38521  -0.38473  -0.38182  -0.37724
 Alpha  occ. eigenvalues --   -0.37536  -0.37073  -0.36872  -0.36450  -0.36063
 Alpha  occ. eigenvalues --   -0.35740  -0.35239  -0.34882  -0.34453  -0.34018
 Alpha  occ. eigenvalues --   -0.33887  -0.33589  -0.32578  -0.31961  -0.31264
 Alpha  occ. eigenvalues --   -0.30577  -0.30497  -0.28148  -0.28135  -0.27823
 Alpha  occ. eigenvalues --   -0.27323  -0.26913  -0.25639  -0.25636  -0.24635
 Alpha  occ. eigenvalues --   -0.24376  -0.23893  -0.23377  -0.22086  -0.19053
 Alpha virt. eigenvalues --   -0.11187  -0.07067  -0.06739  -0.02496  -0.01739
 Alpha virt. eigenvalues --    0.00036   0.01340   0.01448   0.02388   0.03017
 Alpha virt. eigenvalues --    0.03596   0.04012   0.04135   0.04344   0.04919

 Mulliken charges:
               1
     1  O   -0.244954
     2  O   -0.248809
     3  O   -0.192399
     4  O   -0.072648
     5  O   -0.308702
     6  O   -0.220684
     7  N   -0.119366
     8  N   -0.124755
     9  N   -0.107881
    10  N   -0.306385
    11  C    0.045800
    12  C    0.130566
    13  C   -0.097485
    14  C   -0.131874
    15  C   -0.100106
    16  C    0.129283
    17  C   -0.209928
    18  C    0.094720
    19  C   -0.045172
    20  C   -0.058820
    21  C    0.038333
    22  C    0.118453
    23  C   -0.151746
    24  C    0.139328
    25  C    0.080834
    26  C   -0.087604
    27  C   -0.042365
    28  C    0.097343
    29  C    0.207508
    30  C   -0.037022
    31  C    0.026914
    32  C   -0.006377
    33  C   -0.122084
    34  C    0.144891
    35  C    0.072572
    36  C   -0.045845
    37  C    0.145392
    38  C    0.061348
    39  C   -0.194243
    40  C    0.148668
    41  C   -0.028209
    42  C   -0.016377
    43  C   -0.113137
    44  H    0.050892
    45  H    0.019684
    46  H    0.006702
    47  H    0.156330
    48  H    0.136166
    49  H   -0.003260
    50  H    0.009650
    51  H   -0.017185
    52  H   -0.030948
    53  H    0.029269
    54  H    0.058055
    55  H    0.025807
    56  H    0.053055
    57  H    0.029062
    58  H    0.078258
    59  H    0.035395
    60  H    0.201769
    61  H   -0.031016
    62  H    0.010512
    63  H    0.043160
    64  H    0.029955
    65  H    0.008156
    66  H    0.052892
    67  H    0.025844
    68  H    0.052368
    69  H    0.014123
    70  H    0.017493
    71  H    0.048870
    72  H    0.179766
    73  H    0.016042
    74  H    0.056405
    75  H    0.082003
    76  H    0.064302
    77  H    0.138479
    78  H    0.039670
    79  H    0.065297
 Sum of Mulliken charges =   0.00000

 Dipole moment (field-independent basis, Debye):
    X=             -1.1511    Y=              2.8038    Z=              3.2057  Tot=              4.4116
 Quadrupole moment (field-independent basis, Debye-Ang):
   XX=           -214.6361   YY=           -243.6535   ZZ=           -263.1832
   XY=            -24.2545   XZ=             33.7592   YZ=             10.9074

 Normal termination of Gaussian 09 at Mon Jul  8 22:08:01 2019.
