 Gaussian 09, Revision D.01,
 Gaussian 09:  ES64L-G09RevD.01 24-Apr-2013

 --------------------------
 # td=(NStates=1) B3LYP/SVP
 --------------------------

 --
 TD
 --
 Symbolic Z-matrix:
 Charge =  0 Multiplicity = 1

                         Standard orientation:
 ---------------------------------------------------------------------
 Center     Atomic      Atomic             Coordinates (Angstroms)
 Number     Number       Type             X           Y           Z
 ---------------------------------------------------------------------
      1          8           0        5.324808   -0.030405   -3.337379
      2          8           0       -2.743230   -3.250003    3.506260
      3          8           0       -3.272815   -0.996171    3.231545
      4          8           0       -1.549060    7.342644    1.547394
      5          8           0       -0.712571    7.076165   -0.517557
      6          8           0       -1.746905   -3.990269   -0.150161
      7          7           0        2.381732    0.963836    0.626928
      8          7           0        4.306074   -0.533076   -1.246311
      9          7           0       -1.914259    0.775580   -0.299921
     10          7           0       -2.654067   -1.862728   -0.577256
     11          6           0        4.750418   -1.102212    0.026646
     12          6           0        4.458549   -0.183078    1.254946
     13          6           0        2.984160   -0.062112    1.367975
     14          6           0        1.982968   -0.698068    2.052019
     15          6           0        0.688250   -0.158077    1.729777
     16          6           0        0.980623    0.867095    0.814366
     17          6           0        6.279706   -1.305923   -0.176843
     18          6           0       -0.503696   -0.390130    2.511030
     19          6           0        6.646414   -0.900840   -1.477559
     20          6           0        0.132426    1.864597    0.135996
     21          6           0       -1.170483    1.912447   -0.299778
     22          6           0        5.313336   -0.399813   -2.149497
     23          6           0       -2.011478    2.951064   -0.763023
     24          6           0        2.267346   -1.893689    3.107775
     25          6           0        7.191870   -1.762952    0.950688
     26          6           0       -3.217792    2.429128   -1.143336
     27          6           0       -1.021242   -1.882629    2.546865
     28          6           0       -3.074176    1.028832   -0.935967
     29          6           0       -1.558972    4.409930   -0.772743
     30          6           0        7.916219   -0.894725   -2.161009
     31          6           0       -1.727492    5.194955    0.522270
     32          6           0       -4.284892    3.160079   -1.898851
     33          6           0       -3.967282   -0.114711   -1.292186
     34          6           0       -2.477764   -1.990945    3.131958
     35          6           0       -3.740428   -1.430172   -1.070539
     36          6           0        9.203013   -0.925517   -1.679760
     37          6           0       -1.326548    6.620768    0.430741
     38          6           0       -4.595913   -2.539977   -1.578570
     39          6           0       -4.008871   -3.688591   -1.190411
     40          6           0       -2.708958   -3.342431   -0.538982
     41          6           0       -5.968279   -2.455259   -2.128101
     42          6           0       -4.288243   -5.158987   -1.331820
     43          6           0       -6.790252   -3.402809   -2.690058
     44          1           0        4.120016   -1.899576    0.272152
     45          1           0        5.033663    0.841482    1.130585
     46          1           0        4.865899   -0.680179    2.160357
     47          1           0        2.867122    1.614785   -0.075567
     48          1           0        3.260032   -0.479048   -1.485946
     49          1           0       -0.338883   -0.116657    3.543841
     50          1           0       -1.225655    0.106743    2.018357
     51          1           0        0.585920    2.798447   -0.229020
     52          1           0        3.259037   -1.672785    3.629381
     53          1           0        1.368777   -1.779892    3.864282
     54          1           0        2.202492   -2.871299    2.486340
     55          1           0        6.828202   -2.506261    1.725974
     56          1           0        7.435860   -0.820482    1.399616
     57          1           0        8.404278   -2.008435    0.637155
     58          1           0       -1.264011   -2.094905    1.445113
     59          1           0       -0.198605   -2.480619    3.199300
     60          1           0       -1.660667   -0.317531   -0.228166
     61          1           0       -2.146096    4.952253   -1.571758
     62          1           0       -0.497042    4.445118   -1.058878
     63          1           0        7.803956   -0.554903   -3.157856
     64          1           0       -1.181834    4.986191    1.454184
     65          1           0       -2.652732    4.995257    0.636705
     66          1           0       -4.330820    4.286466   -1.773909
     67          1           0       -5.393617    2.763729   -1.661423
     68          1           0       -4.305363    2.872170   -2.989746
     69          1           0       -5.021591    0.195898   -1.694778
     70          1           0        9.567707   -0.735326   -0.763027
     71          1           0       10.038783   -0.949183   -2.202322
     72          1           0       -3.617309   -3.172836    4.070569
     73          1           0       -6.462624   -1.454637   -1.992525
     74          1           0       -4.284278   -5.238269   -2.308466
     75          1           0       -3.596830   -5.637342   -0.603182
     76          1           0       -5.358753   -5.370277   -0.987599
     77          1           0       -1.156006    8.320641    1.445766
     78          1           0       -7.792062   -3.023853   -3.032084
     79          1           0       -6.510375   -4.467334   -2.892453
 ---------------------------------------------------------------------

 SCF Done:  E(RB3LYP) =  -1947.85326883     A.U. after   17 cycles

 Excitation energies and oscillator strengths:

 Excited State   1:      Singlet-A      2.0390 eV  608.06 nm  f=0.4415  <S**2>=0.000
     154 ->156         0.10336
     155 ->156         0.69834
     155 <-156        -0.12128
 This state for optimization and/or second-order correction.
 Total Energy, E(TD-HF/TD-KS) =  -1947.77833649
 Copying the excited state density for this state as the 1-particle RhoCI density.

 The electronic state is 1-A.
 Alpha  occ. eigenvalues --  -19.19383 -19.18967 -19.12765 -19.11483 -19.10959
 Alpha  occ. eigenvalues --  -19.09815 -14.39135 -14.37107 -14.36258 -14.28091
 Alpha  occ. eigenvalues --  -10.32556 -10.31696 -10.29187 -10.26644 -10.25514
 Alpha  occ. eigenvalues --  -10.24789 -10.24552 -10.23745 -10.23594 -10.23261
 Alpha  occ. eigenvalues --  -10.23079 -10.22607 -10.22554 -10.22406 -10.22055
 Alpha  occ. eigenvalues --  -10.21565 -10.21403 -10.21357 -10.21299 -10.20922
 Alpha  occ. eigenvalues --  -10.20697 -10.20529 -10.20288 -10.20236 -10.20044
 Alpha  occ. eigenvalues --  -10.19977 -10.19946 -10.19729 -10.19202 -10.18987
 Alpha  occ. eigenvalues --  -10.18299 -10.18098 -10.18096  -1.09404  -1.07695
 Alpha  occ. eigenvalues --   -1.01201  -1.00991  -1.00172  -0.99667  -0.97759
 Alpha  occ. eigenvalues --   -0.96845  -0.93964  -0.92454  -0.83471  -0.82285
 Alpha  occ. eigenvalues --   -0.81551  -0.81101  -0.80293  -0.79996  -0.78853
 Alpha  occ. eigenvalues --   -0.76553  -0.75742  -0.75387  -0.73965  -0.72188
 Alpha  occ. eigenvalues --   -0.71038  -0.70676  -0.69775  -0.68864  -0.68440
 Alpha  occ. eigenvalues --   -0.67128  -0.66350  -0.63760  -0.63333  -0.60683
 Alpha  occ. eigenvalues --   -0.60363  -0.58694  -0.57847  -0.56981  -0.56659
 Alpha  occ. eigenvalues --   -0.55938  -0.55710  -0.55288  -0.54414  -0.53291
 Alpha  occ. eigenvalues --   -0.52909  -0.52146  -0.51656  -0.51374  -0.50144
 Alpha  occ. eigenvalues --   -0.49392  -0.48447  -0.47994  -0.47659  -0.47270
 Alpha  occ. eigenvalues --   -0.47085  -0.46953  -0.46379  -0.45791  -0.45666
 Alpha  occ. eigenvalues --   -0.45248  -0.45124  -0.44263  -0.44056  -0.43841
 Alpha  occ. eigenvalues --   -0.43407  -0.43041  -0.42851  -0.42418  -0.42273
 Alpha  occ. eigenvalues --   -0.42070  -0.41776  -0.41631  -0.41389  -0.41211
 Alpha  occ. eigenvalues --   -0.40990  -0.40583  -0.40319  -0.40161  -0.40036
 Alpha  occ. eigenvalues --   -0.39505  -0.39278  -0.38568  -0.38453  -0.38252
 Alpha  occ. eigenvalues --   -0.38104  -0.37980  -0.37821  -0.37172  -0.36863
 Alpha  occ. eigenvalues --   -0.36052  -0.35822  -0.35769  -0.35074  -0.34833
 Alpha  occ. eigenvalues --   -0.34686  -0.34204  -0.32919  -0.32740  -0.30793
 Alpha  occ. eigenvalues --   -0.30618  -0.30519  -0.29051  -0.28393  -0.27575
 Alpha  occ. eigenvalues --   -0.26793  -0.26484  -0.26264  -0.25323  -0.24890
 Alpha  occ. eigenvalues --   -0.24133  -0.23797  -0.23078  -0.22436  -0.18772
 Alpha virt. eigenvalues --   -0.10786  -0.06494  -0.06291  -0.00203   0.00013
 Alpha virt. eigenvalues --    0.00218   0.00399   0.01038   0.02045   0.02464
 Alpha virt. eigenvalues --    0.02835   0.03583   0.03775   0.04145   0.04586

 Mulliken charges:
               1
     1  O   -0.252761
     2  O   -0.192072
     3  O   -0.295067
     4  O   -0.233908
     5  O   -0.239032
     6  O   -0.202673
     7  N   -0.152565
     8  N   -0.220892
     9  N   -0.104822
    10  N   -0.308693
    11  C    0.125752
    12  C    0.128413
    13  C   -0.051653
    14  C   -0.170318
    15  C   -0.082620
    16  C    0.098258
    17  C   -0.111534
    18  C    0.178619
    19  C   -0.066079
    20  C   -0.051085
    21  C    0.037423
    22  C    0.174056
    23  C   -0.068127
    24  C    0.015625
    25  C    0.015093
    26  C   -0.088527
    27  C   -0.095165
    28  C    0.047003
    29  C    0.071745
    30  C    0.028612
    31  C    0.107876
    32  C    0.020984
    33  C   -0.128317
    34  C    0.165297
    35  C    0.119221
    36  C    0.027791
    37  C    0.130072
    38  C    0.031471
    39  C   -0.240055
    40  C    0.160494
    41  C   -0.045953
    42  C    0.167215
    43  C   -0.056287
    44  H   -0.006912
    45  H    0.022136
    46  H    0.004517
    47  H    0.151053
    48  H    0.162851
    49  H    0.015772
    50  H   -0.045426
    51  H   -0.031361
    52  H    0.034131
    53  H    0.046310
    54  H    0.073418
    55  H    0.048571
    56  H    0.031837
    57  H    0.051039
    58  H    0.100944
    59  H    0.049993
    60  H    0.197891
    61  H    0.024169
    62  H    0.014173
    63  H    0.007458
    64  H    0.042575
    65  H   -0.026563
    66  H    0.039834
    67  H    0.030431
    68  H    0.043097
    69  H   -0.010513
    70  H   -0.022361
    71  H   -0.019022
    72  H    0.211952
    73  H    0.004752
    74  H    0.003834
    75  H    0.045643
    76  H    0.020809
    77  H    0.229924
    78  H    0.033739
    79  H    0.026493
 Sum of Mulliken charges =   0.00000

 Dipole moment (field-independent basis, Debye):
    X=              0.6756    Y=              3.0762    Z=              4.7901  Tot=              5.7328
 Quadrupole moment (field-independent basis, Debye-Ang):
   XX=           -224.1458   YY=           -243.6699   ZZ=           -261.4543
   XY=             -4.9359   XZ=             34.7084   YZ=              1.1175

 Normal termination of Gaussian 09 at Wed Jul 10 20:10:05 2019.
