 Gaussian 09, Revision D.01,
 Gaussian 09:  ES64L-G09RevD.01 24-Apr-2013

 --------------------------
 # td=(NStates=1) B3LYP/SVP
 --------------------------

 --
 TD
 --
 Symbolic Z-matrix:
 Charge =  0 Multiplicity = 1

                         Standard orientation:
 ---------------------------------------------------------------------
 Center     Atomic      Atomic             Coordinates (Angstroms)
 Number     Number       Type             X           Y           Z
 ---------------------------------------------------------------------
      1          8           0        5.505563   -0.240490   -3.373823
      2          8           0       -2.812738   -3.241604    3.353747
      3          8           0       -3.126275   -1.020506    3.438862
      4          8           0       -1.546111    7.205176    1.559452
      5          8           0       -0.130738    6.915885   -0.095353
      6          8           0       -2.281116   -4.060643   -0.129156
      7          7           0        2.371389    0.897803    0.554544
      8          7           0        4.490759   -0.663299   -1.326477
      9          7           0       -1.927801    0.799336   -0.423481
     10          7           0       -2.814469   -1.847517   -0.507338
     11          6           0        4.871029   -1.328929   -0.127418
     12          6           0        4.490892   -0.454786    1.150233
     13          6           0        3.015230   -0.069515    1.250057
     14          6           0        1.967785   -0.825017    2.030440
     15          6           0        0.793657   -0.145902    1.780919
     16          6           0        1.001174    0.855289    0.824434
     17          6           0        6.471955   -1.395055   -0.205993
     18          6           0       -0.581552   -0.525382    2.410284
     19          6           0        6.816460   -0.922945   -1.377065
     20          6           0        0.205721    1.938337    0.255189
     21          6           0       -1.068178    1.854449   -0.280746
     22          6           0        5.559477   -0.583448   -2.292194
     23          6           0       -1.838003    2.924408   -0.838887
     24          6           0        2.362407   -1.828254    3.072047
     25          6           0        7.275801   -1.955291    0.935590
     26          6           0       -3.143147    2.541702   -1.108387
     27          6           0       -1.161717   -1.927746    2.406023
     28          6           0       -3.143769    1.142574   -0.965242
     29          6           0       -1.370666    4.353005   -0.918888
     30          6           0        8.129117   -0.824376   -2.018183
     31          6           0       -1.718526    5.143813    0.393139
     32          6           0       -4.255910    3.256484   -1.753447
     33          6           0       -4.080850    0.118704   -1.289558
     34          6           0       -2.476284   -1.946904    3.173957
     35          6           0       -3.909042   -1.285926   -1.054418
     36          6           0        9.356413   -0.759029   -1.476714
     37          6           0       -1.014589    6.564358    0.601254
     38          6           0       -4.873273   -2.326634   -1.429698
     39          6           0       -4.327611   -3.476735   -1.200671
     40          6           0       -2.994000   -3.213823   -0.606975
     41          6           0       -6.114469   -2.026653   -2.223859
     42          6           0       -4.861303   -4.928403   -1.516825
     43          6           0       -7.251710   -2.892984   -2.394962
     44          1           0        4.389031   -2.385881   -0.142162
     45          1           0        5.154797    0.452021    0.901947
     46          1           0        4.808051   -0.858480    2.053785
     47          1           0        2.805689    1.603485   -0.129938
     48          1           0        3.538288   -1.172888   -1.682174
     49          1           0       -0.615369   -0.269707    3.295544
     50          1           0       -1.207748    0.233253    1.947144
     51          1           0        0.720213    2.889147    0.100223
     52          1           0        3.524642   -1.842122    3.192799
     53          1           0        1.930710   -1.824172    3.985328
     54          1           0        2.188065   -2.703993    2.552490
     55          1           0        6.696155   -2.561828    1.685636
     56          1           0        7.615058   -0.990438    1.613387
     57          1           0        8.078919   -2.679578    0.549341
     58          1           0       -1.352512   -2.354247    1.438297
     59          1           0       -0.418067   -2.521600    2.980910
     60          1           0       -1.773998   -0.269549   -0.227235
     61          1           0       -1.722875    5.004874   -1.740397
     62          1           0       -0.167644    4.342100   -0.877314
     63          1           0        8.139470   -0.789473   -3.103639
     64          1           0       -1.364253    4.344715    1.175781
     65          1           0       -2.898977    5.159883    0.591035
     66          1           0       -4.008902    4.402372   -1.860596
     67          1           0       -5.257499    3.016954   -1.179436
     68          1           0       -4.531486    3.021038   -2.798474
     69          1           0       -5.049480    0.520248   -1.856135
     70          1           0        9.536243   -0.948520   -0.430781
     71          1           0       10.242826   -0.884820   -2.108794
     72          1           0       -3.876480   -3.444017    3.636070
     73          1           0       -6.298892   -1.034866   -2.626354
     74          1           0       -5.311398   -5.005636   -2.547192
     75          1           0       -3.881700   -5.750320   -1.274783
     76          1           0       -5.757907   -5.171960   -0.647074
     77          1           0       -0.889904    7.981517    1.354763
     78          1           0       -8.145533   -2.459973   -2.818686
     79          1           0       -7.340477   -4.110653   -2.334507
 ---------------------------------------------------------------------

 SCF Done:  E(RB3LYP) =  -1947.82807121     A.U. after   23 cycles

 Excitation energies and oscillator strengths:

 Excited State   1:      Singlet-A      2.0912 eV  592.88 nm  f=0.5638  <S**2>=0.000
     155 ->156         0.70247
     155 <-156        -0.12620
 This state for optimization and/or second-order correction.
 Total Energy, E(TD-HF/TD-KS) =  -1947.75121973
 Copying the excited state density for this state as the 1-particle RhoCI density.

 The electronic state is 1-A.
 Alpha  occ. eigenvalues --  -19.21206 -19.16299 -19.14029 -19.13306 -19.11020
 Alpha  occ. eigenvalues --  -19.09661 -14.39669 -14.35892 -14.35748 -14.28650
 Alpha  occ. eigenvalues --  -10.33168 -10.30036 -10.29559 -10.25537 -10.25493
 Alpha  occ. eigenvalues --  -10.24150 -10.24082 -10.24007 -10.23242 -10.23235
 Alpha  occ. eigenvalues --  -10.22975 -10.22618 -10.22378 -10.22196 -10.22137
 Alpha  occ. eigenvalues --  -10.21865 -10.21617 -10.21349 -10.21267 -10.21100
 Alpha  occ. eigenvalues --  -10.20928 -10.20497 -10.20176 -10.20131 -10.20042
 Alpha  occ. eigenvalues --  -10.19460 -10.19326 -10.19277 -10.19020 -10.18935
 Alpha  occ. eigenvalues --  -10.18484 -10.17616 -10.16399  -1.15377  -1.08628
 Alpha  occ. eigenvalues --   -1.07608  -1.04077  -1.01647  -0.98977  -0.98501
 Alpha  occ. eigenvalues --   -0.98123  -0.94125  -0.92355  -0.82134  -0.81974
 Alpha  occ. eigenvalues --   -0.81482  -0.80989  -0.79199  -0.78808  -0.76738
 Alpha  occ. eigenvalues --   -0.76307  -0.75869  -0.74921  -0.72893  -0.72144
 Alpha  occ. eigenvalues --   -0.71034  -0.70821  -0.68829  -0.67376  -0.66940
 Alpha  occ. eigenvalues --   -0.66128  -0.65128  -0.63412  -0.60809  -0.59910
 Alpha  occ. eigenvalues --   -0.58740  -0.58238  -0.57735  -0.57293  -0.56751
 Alpha  occ. eigenvalues --   -0.55551  -0.54920  -0.54666  -0.53434  -0.52950
 Alpha  occ. eigenvalues --   -0.52710  -0.51732  -0.51345  -0.50774  -0.49941
 Alpha  occ. eigenvalues --   -0.49440  -0.48949  -0.48189  -0.47864  -0.47431
 Alpha  occ. eigenvalues --   -0.47081  -0.46947  -0.46293  -0.45877  -0.45433
 Alpha  occ. eigenvalues --   -0.45059  -0.44917  -0.44481  -0.44411  -0.43657
 Alpha  occ. eigenvalues --   -0.43606  -0.43272  -0.43091  -0.42849  -0.42282
 Alpha  occ. eigenvalues --   -0.42253  -0.41990  -0.41652  -0.41510  -0.41419
 Alpha  occ. eigenvalues --   -0.40906  -0.40731  -0.40301  -0.39617  -0.39166
 Alpha  occ. eigenvalues --   -0.38807  -0.38665  -0.38327  -0.38206  -0.37839
 Alpha  occ. eigenvalues --   -0.37679  -0.37396  -0.36922  -0.36822  -0.36366
 Alpha  occ. eigenvalues --   -0.35917  -0.35202  -0.35044  -0.34573  -0.34079
 Alpha  occ. eigenvalues --   -0.33988  -0.33914  -0.33657  -0.32360  -0.31828
 Alpha  occ. eigenvalues --   -0.30843  -0.30450  -0.29814  -0.28781  -0.27836
 Alpha  occ. eigenvalues --   -0.27256  -0.27010  -0.26575  -0.25495  -0.25161
 Alpha  occ. eigenvalues --   -0.25065  -0.23904  -0.23190  -0.22020  -0.18668
 Alpha virt. eigenvalues --   -0.10747  -0.06099  -0.05400  -0.01537   0.00223
 Alpha virt. eigenvalues --    0.00539   0.00830   0.01803   0.02224   0.02790
 Alpha virt. eigenvalues --    0.03284   0.03416   0.03897   0.04264   0.05050

 Mulliken charges:
               1
     1  O   -0.092530
     2  O   -0.270262
     3  O   -0.173415
     4  O   -0.113433
     5  O   -0.213188
     6  O   -0.194839
     7  N   -0.073638
     8  N   -0.260217
     9  N   -0.124322
    10  N   -0.277550
    11  C    0.013204
    12  C    0.198391
    13  C   -0.091131
    14  C   -0.172141
    15  C   -0.099143
    16  C    0.052711
    17  C   -0.163308
    18  C    0.247471
    19  C   -0.058251
    20  C   -0.103593
    21  C    0.135112
    22  C    0.156228
    23  C   -0.091079
    24  C    0.172402
    25  C    0.022531
    26  C   -0.081086
    27  C    0.010304
    28  C    0.089506
    29  C    0.041782
    30  C   -0.027594
    31  C   -0.114272
    32  C    0.016368
    33  C   -0.136536
    34  C    0.116908
    35  C    0.095389
    36  C   -0.025664
    37  C    0.135991
    38  C    0.066707
    39  C   -0.163826
    40  C    0.125020
    41  C   -0.035424
    42  C   -0.048134
    43  C   -0.087925
    44  H    0.031483
    45  H    0.001503
    46  H   -0.018608
    47  H    0.154460
    48  H    0.165055
    49  H   -0.096519
    50  H   -0.025208
    51  H   -0.009258
    52  H   -0.002895
    53  H    0.006874
    54  H    0.008315
    55  H    0.024180
    56  H    0.063401
    57  H    0.062145
    58  H    0.063386
    59  H    0.008498
    60  H    0.184160
    61  H    0.025540
    62  H    0.030748
    63  H    0.005703
    64  H    0.049631
    65  H    0.050581
    66  H    0.025955
    67  H    0.043665
    68  H    0.034822
    69  H    0.006685
    70  H    0.003922
    71  H    0.026778
    72  H    0.235315
    73  H    0.000836
    74  H    0.054432
    75  H    0.069518
    76  H    0.053435
    77  H    0.179660
    78  H    0.020310
    79  H    0.057968
 Sum of Mulliken charges =   0.00000

 Dipole moment (field-independent basis, Debye):
    X=              2.2357    Y=              2.3067    Z=              1.8300  Tot=              3.6971
 Quadrupole moment (field-independent basis, Debye-Ang):
   XX=           -221.5586   YY=           -243.5217   ZZ=           -260.2784
   XY=            -16.7190   XZ=             28.1838   YZ=             -0.7003

 Normal termination of Gaussian 09 at Sun Jul  7 13:59:07 2019.
