 Gaussian 09, Revision D.01,
 Gaussian 09:  ES64L-G09RevD.01 24-Apr-2013

 --------------------------
 # td=(NStates=1) B3LYP/SVP
 --------------------------

 --
 TD
 --
 Symbolic Z-matrix:
 Charge =  0 Multiplicity = 1

                         Standard orientation:
 ---------------------------------------------------------------------
 Center     Atomic      Atomic             Coordinates (Angstroms)
 Number     Number       Type             X           Y           Z
 ---------------------------------------------------------------------
      1          8           0        5.368357   -0.141302   -3.330351
      2          8           0       -2.756840   -2.931307    3.704706
      3          8           0       -3.235547   -0.582608    3.355244
      4          8           0       -1.361784    7.012362    1.482614
      5          8           0       -0.303438    6.893683   -0.541030
      6          8           0       -2.115038   -4.035161    0.087706
      7          7           0        2.362074    0.962122    0.654437
      8          7           0        4.513480   -0.611599   -1.279287
      9          7           0       -1.903435    0.679625   -0.388095
     10          7           0       -2.808355   -1.844796   -0.355519
     11          6           0        4.788966   -1.235255    0.054977
     12          6           0        4.399350   -0.392230    1.242292
     13          6           0        2.862730   -0.071264    1.306108
     14          6           0        1.859006   -0.648504    2.009062
     15          6           0        0.665947    0.102542    1.772886
     16          6           0        1.045886    0.976606    0.883163
     17          6           0        6.259512   -1.444877   -0.181628
     18          6           0       -0.668406   -0.027064    2.529121
     19          6           0        6.721757   -1.069585   -1.394225
     20          6           0        0.180192    1.976767    0.055496
     21          6           0       -1.052874    1.820610   -0.378240
     22          6           0        5.574864   -0.489333   -2.202050
     23          6           0       -1.912058    2.799581   -0.889216
     24          6           0        2.139284   -1.691282    3.092660
     25          6           0        7.148841   -2.146897    0.849264
     26          6           0       -3.089900    2.365361   -1.322499
     27          6           0       -1.094244   -1.470941    2.629094
     28          6           0       -3.026937    0.901546   -0.945209
     29          6           0       -1.469677    4.307744   -1.001876
     30          6           0        7.961035   -1.026315   -2.007552
     31          6           0       -1.615012    4.981280    0.346213
     32          6           0       -4.386486    3.006842   -1.899222
     33          6           0       -4.048215    0.002198   -1.246223
     34          6           0       -2.516783   -1.591819    3.230473
     35          6           0       -3.863739   -1.348758   -1.048885
     36          6           0        9.235712   -0.846027   -1.545798
     37          6           0       -0.991853    6.403636    0.334765
     38          6           0       -4.770603   -2.491567   -1.554505
     39          6           0       -4.126023   -3.631651   -1.166364
     40          6           0       -2.909977   -3.259028   -0.436490
     41          6           0       -6.098642   -2.301249   -2.172971
     42          6           0       -4.530177   -5.063176   -1.253444
     43          6           0       -6.775111   -3.296491   -2.857797
     44          1           0        4.241208   -2.312211    0.080219
     45          1           0        5.173663    0.617793    1.054369
     46          1           0        4.691828   -0.982334    2.124668
     47          1           0        2.793371    1.551865   -0.132858
     48          1           0        3.559123   -0.438670   -1.574313
     49          1           0       -0.340245    0.389358    3.571597
     50          1           0       -1.438043    0.491089    2.069111
     51          1           0        0.688764    3.016555   -0.136560
     52          1           0        3.064565   -1.664155    3.661333
     53          1           0        1.313981   -1.712206    3.819686
     54          1           0        2.020311   -2.842010    2.491287
     55          1           0        7.057746   -3.105597    1.416614
     56          1           0        7.503922   -1.427910    1.655252
     57          1           0        8.236080   -2.586107    0.463900
     58          1           0       -1.256446   -1.693449    1.639634
     59          1           0       -0.312036   -2.141743    2.914861
     60          1           0       -1.703510   -0.349725   -0.266435
     61          1           0       -2.123428    4.940180   -1.653797
     62          1           0       -0.580961    4.615271   -1.187397
     63          1           0        8.034166   -1.143321   -3.025079
     64          1           0       -0.994508    4.679212    1.083354
     65          1           0       -2.644494    5.160730    0.717978
     66          1           0       -4.042288    3.954771   -2.509649
     67          1           0       -5.096342    2.936483   -1.248171
     68          1           0       -4.707975    2.297518   -2.846273
     69          1           0       -4.772369    0.664316   -1.927763
     70          1           0        9.596554   -0.714880   -0.487178
     71          1           0        9.997424   -0.793037   -2.371510
     72          1           0       -3.674987   -2.936048    4.000282
     73          1           0       -6.608633   -1.310703   -2.195123
     74          1           0       -4.241444   -5.456682   -2.206022
     75          1           0       -4.006657   -5.648445   -0.515432
     76          1           0       -5.653128   -5.286272   -0.938971
     77          1           0       -1.125242    7.858404    1.486340
     78          1           0       -7.540956   -2.948584   -3.530326
     79          1           0       -6.399242   -4.310652   -2.977770
 ---------------------------------------------------------------------

 SCF Done:  E(RB3LYP) =  -1947.81070045     A.U. after   16 cycles

 Excitation energies and oscillator strengths:

 Excited State   1:      Singlet-A      2.3800 eV  520.94 nm  f=0.3313  <S**2>=0.000
     153 ->156        -0.10196
     154 ->156         0.17520
     155 ->156         0.67269
 This state for optimization and/or second-order correction.
 Total Energy, E(TD-HF/TD-KS) =  -1947.72323644
 Copying the excited state density for this state as the 1-particle RhoCI density.

 The electronic state is 1-A.
 Alpha  occ. eigenvalues --  -19.18945 -19.16966 -19.14177 -19.12668 -19.10774
 Alpha  occ. eigenvalues --  -19.10084 -14.38564 -14.37003 -14.34116 -14.29296
 Alpha  occ. eigenvalues --  -10.33191 -10.31914 -10.28819 -10.26200 -10.25757
 Alpha  occ. eigenvalues --  -10.24528 -10.24447 -10.23869 -10.23727 -10.23297
 Alpha  occ. eigenvalues --  -10.22877 -10.22527 -10.22344 -10.22094 -10.21882
 Alpha  occ. eigenvalues --  -10.21480 -10.21383 -10.21197 -10.20787 -10.20727
 Alpha  occ. eigenvalues --  -10.20606 -10.20473 -10.20450 -10.20027 -10.19662
 Alpha  occ. eigenvalues --  -10.19367 -10.19356 -10.19304 -10.19010 -10.18608
 Alpha  occ. eigenvalues --  -10.18432 -10.18049 -10.17499  -1.11827  -1.05147
 Alpha  occ. eigenvalues --   -1.03545  -1.02551  -1.01396  -1.00986  -1.00553
 Alpha  occ. eigenvalues --   -0.98705  -0.92910  -0.91231  -0.84297  -0.82265
 Alpha  occ. eigenvalues --   -0.81996  -0.81311  -0.80113  -0.79690  -0.79274
 Alpha  occ. eigenvalues --   -0.77178  -0.76661  -0.75747  -0.74591  -0.73112
 Alpha  occ. eigenvalues --   -0.71961  -0.70379  -0.70334  -0.69227  -0.68862
 Alpha  occ. eigenvalues --   -0.66160  -0.65905  -0.64276  -0.61899  -0.61202
 Alpha  occ. eigenvalues --   -0.60591  -0.58962  -0.58375  -0.57821  -0.57589
 Alpha  occ. eigenvalues --   -0.57097  -0.56415  -0.55681  -0.54500  -0.53319
 Alpha  occ. eigenvalues --   -0.52243  -0.51424  -0.51164  -0.50166  -0.49870
 Alpha  occ. eigenvalues --   -0.49537  -0.49231  -0.48734  -0.48018  -0.47531
 Alpha  occ. eigenvalues --   -0.47355  -0.47193  -0.46552  -0.46423  -0.46144
 Alpha  occ. eigenvalues --   -0.45684  -0.45174  -0.44574  -0.43824  -0.43776
 Alpha  occ. eigenvalues --   -0.43398  -0.43082  -0.42646  -0.42364  -0.42195
 Alpha  occ. eigenvalues --   -0.42007  -0.41844  -0.41751  -0.41087  -0.40729
 Alpha  occ. eigenvalues --   -0.40497  -0.40203  -0.40053  -0.39575  -0.39501
 Alpha  occ. eigenvalues --   -0.39200  -0.39061  -0.38886  -0.38780  -0.38490
 Alpha  occ. eigenvalues --   -0.37572  -0.37476  -0.37194  -0.37084  -0.36627
 Alpha  occ. eigenvalues --   -0.36411  -0.35831  -0.34937  -0.34758  -0.34465
 Alpha  occ. eigenvalues --   -0.34203  -0.33980  -0.33940  -0.33495  -0.31845
 Alpha  occ. eigenvalues --   -0.31483  -0.31149  -0.29267  -0.28953  -0.27586
 Alpha  occ. eigenvalues --   -0.27344  -0.27175  -0.26438  -0.25646  -0.24885
 Alpha  occ. eigenvalues --   -0.24169  -0.24140  -0.23665  -0.22458  -0.20337
 Alpha virt. eigenvalues --   -0.10368  -0.06415  -0.06239  -0.01095  -0.00185
 Alpha virt. eigenvalues --    0.00140   0.00937   0.01504   0.02502   0.03185
 Alpha virt. eigenvalues --    0.03931   0.04515   0.04839   0.05089   0.05790

 Mulliken charges:
               1
     1  O   -0.188462
     2  O   -0.229972
     3  O   -0.247863
     4  O   -0.125694
     5  O   -0.224164
     6  O   -0.205706
     7  N   -0.009145
     8  N   -0.261800
     9  N   -0.021725
    10  N   -0.326513
    11  C    0.094675
    12  C    0.141888
    13  C   -0.087867
    14  C   -0.134943
    15  C   -0.133191
    16  C   -0.026873
    17  C   -0.113055
    18  C    0.162871
    19  C    0.025044
    20  C   -0.139356
    21  C    0.186758
    22  C    0.172217
    23  C   -0.077667
    24  C    0.006165
    25  C   -0.048162
    26  C   -0.140355
    27  C    0.058654
    28  C   -0.051657
    29  C    0.215499
    30  C   -0.029110
    31  C   -0.008274
    32  C    0.128540
    33  C   -0.111425
    34  C    0.201975
    35  C    0.129185
    36  C   -0.062643
    37  C    0.101556
    38  C    0.071479
    39  C   -0.196524
    40  C    0.156362
    41  C   -0.057492
    42  C    0.090106
    43  C   -0.014504
    44  H    0.055567
    45  H    0.033688
    46  H    0.003140
    47  H    0.142925
    48  H    0.109074
    49  H    0.023496
    50  H   -0.013259
    51  H    0.027565
    52  H    0.025029
    53  H    0.026887
    54  H    0.044348
    55  H    0.034421
    56  H    0.035241
    57  H    0.029800
    58  H    0.013930
    59  H    0.000540
    60  H    0.166082
    61  H    0.003602
    62  H   -0.059703
    63  H   -0.013250
    64  H    0.004230
    65  H    0.042112
    66  H    0.054690
    67  H    0.005228
    68  H    0.047960
    69  H   -0.005874
    70  H    0.026906
    71  H    0.033768
    72  H    0.173526
    73  H    0.008048
    74  H    0.027427
    75  H    0.011705
    76  H    0.037965
    77  H    0.127426
    78  H    0.021981
    79  H    0.024951
 Sum of Mulliken charges =   0.00000

 Dipole moment (field-independent basis, Debye):
    X=             -0.0481    Y=              3.3457    Z=              1.8371  Tot=              3.8172
 Quadrupole moment (field-independent basis, Debye-Ang):
   XX=           -220.9503   YY=           -244.2865   ZZ=           -261.7179
   XY=            -14.7623   XZ=             33.7105   YZ=              5.6947

 Normal termination of Gaussian 09 at Mon Jul  8 09:12:27 2019.
