 Gaussian 09, Revision D.01,
 Gaussian 09:  ES64L-G09RevD.01 24-Apr-2013

 --------------------------
 # td=(NStates=1) B3LYP/SVP
 --------------------------

 --
 TD
 --
 Symbolic Z-matrix:
 Charge =  0 Multiplicity = 1

                         Standard orientation:
 ---------------------------------------------------------------------
 Center     Atomic      Atomic             Coordinates (Angstroms)
 Number     Number       Type             X           Y           Z
 ---------------------------------------------------------------------
      1          8           0        5.473926   -0.374141   -3.429337
      2          8           0       -2.920555   -3.038929    3.292753
      3          8           0       -3.354563   -0.865799    3.143598
      4          8           0       -1.744666    7.145242    1.488771
      5          8           0       -0.768942    7.024325   -0.545739
      6          8           0       -1.787355   -3.954197   -0.085827
      7          7           0        2.366763    0.963677    0.619706
      8          7           0        4.551490   -0.621059   -1.383740
      9          7           0       -1.922127    0.652781   -0.516722
     10          7           0       -2.632683   -1.857357   -0.592031
     11          6           0        4.917209   -1.071490    0.044218
     12          6           0        4.420897   -0.225303    1.222719
     13          6           0        2.975152    0.033133    1.420643
     14          6           0        1.930531   -0.641026    2.250582
     15          6           0        0.711871   -0.033621    1.822066
     16          6           0        0.979048    0.907620    0.836686
     17          6           0        6.374944   -1.134573   -0.156014
     18          6           0       -0.564926   -0.269978    2.554059
     19          6           0        6.839053   -0.865072   -1.451649
     20          6           0        0.197289    1.833911    0.093774
     21          6           0       -1.152449    1.719201   -0.379931
     22          6           0        5.593672   -0.537086   -2.223276
     23          6           0       -1.903605    2.841766   -0.753836
     24          6           0        2.282839   -1.599327    3.339992
     25          6           0        7.279232   -1.618516    0.996864
     26          6           0       -3.207142    2.375526   -1.146752
     27          6           0       -1.074312   -1.774869    2.592543
     28          6           0       -3.140005    0.844048   -1.043572
     29          6           0       -1.570412    4.332831   -0.983388
     30          6           0        8.089389   -0.711054   -2.006030
     31          6           0       -1.838652    5.044302    0.324560
     32          6           0       -4.320304    3.072724   -1.843853
     33          6           0       -4.125047   -0.045997   -1.254862
     34          6           0       -2.528855   -1.789176    3.076774
     35          6           0       -3.795684   -1.412702   -1.126975
     36          6           0        9.335317   -0.731193   -1.415273
     37          6           0       -1.455644    6.470569    0.318324
     38          6           0       -4.667152   -2.630962   -1.423980
     39          6           0       -3.946272   -3.743688   -1.083777
     40          6           0       -2.693293   -3.247863   -0.537916
     41          6           0       -5.992135   -2.435082   -1.939676
     42          6           0       -4.312885   -5.235801   -1.328070
     43          6           0       -6.816169   -3.348460   -2.556275
     44          1           0        4.447670   -2.107047    0.134141
     45          1           0        4.914405    0.816944    1.160115
     46          1           0        4.764348   -0.557761    2.023382
     47          1           0        2.662516    1.634719   -0.088703
     48          1           0        3.533337   -0.842500   -1.785254
     49          1           0       -0.460863   -0.071755    3.622289
     50          1           0       -1.289783    0.183884    2.109793
     51          1           0        0.951902    2.660926   -0.161979
     52          1           0        3.235492   -1.699672    3.679609
     53          1           0        1.515015   -1.197034    4.055332
     54          1           0        2.027653   -2.778869    3.213805
     55          1           0        6.612343   -2.342516    1.766612
     56          1           0        7.423960   -0.801179    1.563214
     57          1           0        8.080589   -2.246653    0.720821
     58          1           0       -1.022021   -2.016481    1.488708
     59          1           0       -0.216899   -2.487835    3.240344
     60          1           0       -1.757069   -0.378374   -0.319050
     61          1           0       -2.194766    4.875234   -1.900514
     62          1           0       -0.621714    4.600698   -1.252556
     63          1           0        7.984919   -0.523676   -3.117110
     64          1           0       -1.428664    4.595268    1.235070
     65          1           0       -2.846323    5.131727    0.635873
     66          1           0       -3.990458    4.160371   -2.139055
     67          1           0       -5.199342    3.196384   -1.061664
     68          1           0       -4.571678    2.622691   -2.802257
     69          1           0       -5.200307    0.382028   -1.690695
     70          1           0        9.579051   -1.096149   -0.332017
     71          1           0       10.115626   -0.723736   -2.047573
     72          1           0       -3.944523   -3.019978    3.407047
     73          1           0       -6.436152   -1.447448   -2.098114
     74          1           0       -4.372307   -5.445170   -2.451641
     75          1           0       -3.885368   -5.947682   -0.876223
     76          1           0       -5.237253   -5.485704   -0.948969
     77          1           0       -1.502912    8.155728    1.283749
     78          1           0       -7.761360   -3.065425   -2.898770
     79          1           0       -6.564916   -4.429011   -2.604200
 ---------------------------------------------------------------------

 SCF Done:  E(RB3LYP) =  -1947.81035318     A.U. after   20 cycles

 Excitation energies and oscillator strengths:

 Excited State   1:      Singlet-A      2.0057 eV  618.16 nm  f=0.5247  <S**2>=0.000
     154 ->156         0.11232
     155 ->156         0.69901
     155 <-156        -0.13975
 This state for optimization and/or second-order correction.
 Total Energy, E(TD-HF/TD-KS) =  -1947.73664489
 Copying the excited state density for this state as the 1-particle RhoCI density.

 The electronic state is 1-A.
 Alpha  occ. eigenvalues --  -19.18547 -19.17467 -19.12853 -19.11437 -19.09533
 Alpha  occ. eigenvalues --  -19.09299 -14.39476 -14.36250 -14.35890 -14.29242
 Alpha  occ. eigenvalues --  -10.32196 -10.31306 -10.27835 -10.26448 -10.25861
 Alpha  occ. eigenvalues --  -10.24985 -10.24717 -10.23996 -10.23679 -10.23357
 Alpha  occ. eigenvalues --  -10.23288 -10.22968 -10.21780 -10.21541 -10.21392
 Alpha  occ. eigenvalues --  -10.21271 -10.21152 -10.21096 -10.21077 -10.20926
 Alpha  occ. eigenvalues --  -10.20773 -10.20726 -10.20508 -10.20461 -10.20416
 Alpha  occ. eigenvalues --  -10.20285 -10.20242 -10.20218 -10.19998 -10.19841
 Alpha  occ. eigenvalues --  -10.19442 -10.18144 -10.17636  -1.08347  -1.07936
 Alpha  occ. eigenvalues --   -1.02060  -1.00301  -0.99739  -0.98985  -0.98858
 Alpha  occ. eigenvalues --   -0.97737  -0.92973  -0.91632  -0.82970  -0.82411
 Alpha  occ. eigenvalues --   -0.82348  -0.81960  -0.80787  -0.79866  -0.78103
 Alpha  occ. eigenvalues --   -0.77956  -0.76382  -0.75912  -0.74945  -0.72941
 Alpha  occ. eigenvalues --   -0.71913  -0.71447  -0.70388  -0.69684  -0.67959
 Alpha  occ. eigenvalues --   -0.67642  -0.67176  -0.64777  -0.62316  -0.61521
 Alpha  occ. eigenvalues --   -0.59458  -0.59164  -0.58214  -0.57838  -0.56982
 Alpha  occ. eigenvalues --   -0.56543  -0.55633  -0.54931  -0.54232  -0.53418
 Alpha  occ. eigenvalues --   -0.52059  -0.51710  -0.51179  -0.50216  -0.50075
 Alpha  occ. eigenvalues --   -0.48879  -0.48823  -0.48415  -0.47928  -0.47821
 Alpha  occ. eigenvalues --   -0.47548  -0.47014  -0.46763  -0.46641  -0.46016
 Alpha  occ. eigenvalues --   -0.45818  -0.45579  -0.45427  -0.44998  -0.43659
 Alpha  occ. eigenvalues --   -0.43455  -0.43379  -0.43140  -0.42896  -0.42661
 Alpha  occ. eigenvalues --   -0.42179  -0.42109  -0.41773  -0.41577  -0.41167
 Alpha  occ. eigenvalues --   -0.40896  -0.40265  -0.40030  -0.39784  -0.39584
 Alpha  occ. eigenvalues --   -0.39548  -0.39050  -0.38840  -0.38682  -0.38633
 Alpha  occ. eigenvalues --   -0.38495  -0.38358  -0.37816  -0.37446  -0.37308
 Alpha  occ. eigenvalues --   -0.35931  -0.35383  -0.34988  -0.34496  -0.34387
 Alpha  occ. eigenvalues --   -0.34258  -0.33907  -0.33477  -0.32491  -0.32013
 Alpha  occ. eigenvalues --   -0.31471  -0.30618  -0.28517  -0.28241  -0.27184
 Alpha  occ. eigenvalues --   -0.27010  -0.26272  -0.25643  -0.25046  -0.24896
 Alpha  occ. eigenvalues --   -0.24383  -0.23870  -0.23580  -0.22478  -0.18562
 Alpha virt. eigenvalues --   -0.11129  -0.07534  -0.07066  -0.01083  -0.00808
 Alpha virt. eigenvalues --   -0.00167   0.00297   0.00982   0.02025   0.02740
 Alpha virt. eigenvalues --    0.02909   0.03392   0.03989   0.04586   0.05161

 Mulliken charges:
               1
     1  O   -0.238920
     2  O   -0.184379
     3  O   -0.267860
     4  O   -0.253709
     5  O   -0.255693
     6  O   -0.219175
     7  N   -0.077433
     8  N   -0.247132
     9  N   -0.013332
    10  N   -0.312600
    11  C    0.138347
    12  C    0.311519
    13  C   -0.101815
    14  C   -0.090227
    15  C   -0.109371
    16  C    0.038686
    17  C   -0.222661
    18  C    0.192408
    19  C   -0.002459
    20  C   -0.126131
    21  C    0.122630
    22  C    0.132766
    23  C   -0.079301
    24  C    0.058447
    25  C    0.109419
    26  C   -0.140940
    27  C   -0.134854
    28  C    0.068434
    29  C    0.118994
    30  C   -0.061018
    31  C    0.044326
    32  C    0.039908
    33  C   -0.137167
    34  C    0.173034
    35  C    0.084291
    36  C   -0.006579
    37  C    0.129746
    38  C    0.096435
    39  C   -0.184460
    40  C    0.136300
    41  C   -0.064730
    42  C    0.216473
    43  C   -0.019457
    44  H    0.041173
    45  H    0.003740
    46  H   -0.108290
    47  H    0.125085
    48  H    0.165688
    49  H    0.014489
    50  H   -0.064901
    51  H    0.011499
    52  H   -0.014904
    53  H    0.037114
    54  H    0.049814
    55  H    0.017165
    56  H    0.007143
    57  H    0.044061
    58  H    0.097614
    59  H    0.060316
    60  H    0.156466
    61  H    0.045230
    62  H   -0.018348
    63  H    0.027879
    64  H    0.045311
    65  H    0.009803
    66  H    0.015169
    67  H    0.050713
    68  H    0.040451
    69  H    0.042835
    70  H    0.036391
    71  H   -0.000567
    72  H    0.204570
    73  H   -0.011556
    74  H    0.038092
    75  H   -0.061125
    76  H   -0.017526
    77  H    0.222728
    78  H    0.008584
    79  H    0.017334
 Sum of Mulliken charges =   0.00000

 Dipole moment (field-independent basis, Debye):
    X=              0.4808    Y=              1.4375    Z=              3.7058  Tot=              4.0038
 Quadrupole moment (field-independent basis, Debye-Ang):
   XX=           -218.2504   YY=           -248.8271   ZZ=           -265.1148
   XY=             -7.9006   XZ=             37.9009   YZ=              0.6956

 Normal termination of Gaussian 09 at Wed Jul 10 11:14:28 2019.
