 Gaussian 09, Revision D.01,
 Gaussian 09:  ES64L-G09RevD.01 24-Apr-2013

 --------------------------
 # td=(NStates=1) B3LYP/SVP
 --------------------------

 --
 TD
 --
 Symbolic Z-matrix:
 Charge =  0 Multiplicity = 1

                         Standard orientation:
 ---------------------------------------------------------------------
 Center     Atomic      Atomic             Coordinates (Angstroms)
 Number     Number       Type             X           Y           Z
 ---------------------------------------------------------------------
      1          8           0        5.266594   -0.420318   -3.353673
      2          8           0       -2.936116   -3.166836    3.151648
      3          8           0       -3.329977   -0.900167    3.146173
      4          8           0       -1.827149    7.126554    1.563822
      5          8           0       -0.450611    6.925860   -0.381785
      6          8           0       -1.809356   -3.950048   -0.108129
      7          7           0        2.355806    0.801386    0.493506
      8          7           0        4.368664   -0.666319   -1.210987
      9          7           0       -1.882550    0.730694   -0.413746
     10          7           0       -2.579895   -1.868276   -0.499869
     11          6           0        4.869293   -1.174305    0.031110
     12          6           0        4.405119   -0.316289    1.186603
     13          6           0        2.994152   -0.086738    1.324536
     14          6           0        2.084046   -0.633226    2.177424
     15          6           0        0.722690    0.022089    1.877137
     16          6           0        1.050480    0.914770    0.805911
     17          6           0        6.357892   -1.172017   -0.128082
     18          6           0       -0.635551   -0.302462    2.544507
     19          6           0        6.726506   -0.720112   -1.330202
     20          6           0        0.186319    1.821062    0.090770
     21          6           0       -1.179432    1.840329   -0.269761
     22          6           0        5.476663   -0.541310   -2.114404
     23          6           0       -1.912254    2.933215   -0.850279
     24          6           0        2.301241   -1.672227    3.148665
     25          6           0        7.303314   -1.710298    0.932420
     26          6           0       -3.169088    2.418091   -1.250791
     27          6           0       -1.139853   -1.733814    2.573180
     28          6           0       -3.123938    0.988902   -1.023396
     29          6           0       -1.451540    4.354502   -0.990175
     30          6           0        8.002235   -0.708722   -2.038956
     31          6           0       -1.842490    5.052419    0.334480
     32          6           0       -4.375041    3.112887   -1.912283
     33          6           0       -4.039595   -0.050285   -1.403741
     34          6           0       -2.558560   -1.809918    3.069218
     35          6           0       -3.733787   -1.387682   -1.026740
     36          6           0        9.234405   -0.584202   -1.573199
     37          6           0       -1.363868    6.473899    0.470739
     38          6           0       -4.658573   -2.497004   -1.344192
     39          6           0       -3.928483   -3.662461   -1.074472
     40          6           0       -2.692088   -3.262993   -0.529997
     41          6           0       -6.055748   -2.379308   -1.957763
     42          6           0       -4.437658   -5.069129   -1.116920
     43          6           0       -6.691695   -3.331060   -2.661235
     44          1           0        4.529422   -2.206459    0.405705
     45          1           0        4.813455    0.802984    1.036541
     46          1           0        4.704678   -0.890011    1.982155
     47          1           0        2.775872    1.167864   -0.239028
     48          1           0        3.358561   -0.992011   -1.650947
     49          1           0       -0.239777    0.044592    3.408163
     50          1           0       -1.487804    0.309021    2.025617
     51          1           0        0.690356    2.771040    0.165085
     52          1           0        3.451982   -1.715112    3.650220
     53          1           0        1.503270   -1.542683    3.941129
     54          1           0        2.328383   -2.751811    2.768331
     55          1           0        6.718415   -2.641249    1.431467
     56          1           0        7.355213   -0.769802    1.656043
     57          1           0        8.330737   -1.837693    0.379736
     58          1           0       -0.868734   -2.460614    1.620079
     59          1           0       -0.437221   -2.502517    2.966771
     60          1           0       -1.724971   -0.247051   -0.299037
     61          1           0       -2.063952    4.910710   -1.840431
     62          1           0       -0.399665    4.265512   -1.111186
     63          1           0        7.820277   -0.711187   -3.006945
     64          1           0       -1.400917    4.441547    1.301014
     65          1           0       -2.932156    5.194224    0.364990
     66          1           0       -4.060998    4.013599   -2.134184
     67          1           0       -5.382428    3.185356   -1.550576
     68          1           0       -4.555421    2.608271   -2.773460
     69          1           0       -4.949634    0.422048   -1.632334
     70          1           0        9.597797   -0.660755   -0.553700
     71          1           0       10.085501   -0.486452   -2.107867
     72          1           0       -3.914223   -2.978696    3.130481
     73          1           0       -6.309280   -1.309819   -1.833407
     74          1           0       -4.223711   -5.450783   -2.211643
     75          1           0       -3.905566   -5.778447   -0.614396
     76          1           0       -5.435588   -5.248101   -0.840019
     77          1           0       -1.458074    7.870112    1.638294
     78          1           0       -7.565177   -3.058508   -3.162885
     79          1           0       -6.240554   -4.429478   -2.857214
 ---------------------------------------------------------------------

 SCF Done:  E(RB3LYP) =  -1947.77061951     A.U. after   19 cycles

 Excitation energies and oscillator strengths:

 Excited State   1:      Singlet-A      1.9936 eV  621.90 nm  f=0.3752  <S**2>=0.000
     154 ->156         0.13454
     155 ->156         0.68355
     155 <-156        -0.11777
 This state for optimization and/or second-order correction.
 Total Energy, E(TD-HF/TD-KS) =  -1947.69735465
 Copying the excited state density for this state as the 1-particle RhoCI density.

 The electronic state is 1-A.
 Alpha  occ. eigenvalues --  -19.20162 -19.16117 -19.13174 -19.12603 -19.10665
 Alpha  occ. eigenvalues --  -19.09860 -14.36938 -14.36196 -14.35842 -14.28390
 Alpha  occ. eigenvalues --  -10.34092 -10.31012 -10.29366 -10.25260 -10.25153
 Alpha  occ. eigenvalues --  -10.24853 -10.24609 -10.23749 -10.23417 -10.23196
 Alpha  occ. eigenvalues --  -10.23109 -10.22627 -10.22008 -10.21980 -10.21919
 Alpha  occ. eigenvalues --  -10.21889 -10.21670 -10.21273 -10.21128 -10.20997
 Alpha  occ. eigenvalues --  -10.20810 -10.20321 -10.20249 -10.20179 -10.19842
 Alpha  occ. eigenvalues --  -10.19671 -10.19537 -10.19369 -10.19271 -10.19039
 Alpha  occ. eigenvalues --  -10.18927 -10.18836 -10.18085  -1.12661  -1.07602
 Alpha  occ. eigenvalues --   -1.02505  -1.00815  -0.99580  -0.99341  -0.99055
 Alpha  occ. eigenvalues --   -0.97352  -0.93701  -0.91527  -0.83142  -0.83070
 Alpha  occ. eigenvalues --   -0.82249  -0.81281  -0.80250  -0.79374  -0.78273
 Alpha  occ. eigenvalues --   -0.77750  -0.76491  -0.76230  -0.74977  -0.73909
 Alpha  occ. eigenvalues --   -0.72123  -0.71339  -0.70831  -0.69987  -0.69035
 Alpha  occ. eigenvalues --   -0.67650  -0.66598  -0.64278  -0.63135  -0.62739
 Alpha  occ. eigenvalues --   -0.60854  -0.58886  -0.57739  -0.57200  -0.56838
 Alpha  occ. eigenvalues --   -0.56342  -0.56170  -0.55173  -0.54440  -0.53880
 Alpha  occ. eigenvalues --   -0.52678  -0.52071  -0.51640  -0.50694  -0.50243
 Alpha  occ. eigenvalues --   -0.49806  -0.49029  -0.48949  -0.48676  -0.47640
 Alpha  occ. eigenvalues --   -0.47368  -0.47096  -0.46682  -0.45834  -0.45500
 Alpha  occ. eigenvalues --   -0.45108  -0.45033  -0.44486  -0.44284  -0.44141
 Alpha  occ. eigenvalues --   -0.43772  -0.43428  -0.43291  -0.43017  -0.42826
 Alpha  occ. eigenvalues --   -0.42453  -0.42146  -0.41768  -0.41634  -0.41267
 Alpha  occ. eigenvalues --   -0.41174  -0.40911  -0.40663  -0.40446  -0.40332
 Alpha  occ. eigenvalues --   -0.40021  -0.39616  -0.39302  -0.38725  -0.38673
 Alpha  occ. eigenvalues --   -0.38348  -0.37947  -0.37436  -0.37215  -0.37099
 Alpha  occ. eigenvalues --   -0.36735  -0.36245  -0.35642  -0.35258  -0.34375
 Alpha  occ. eigenvalues --   -0.34086  -0.32975  -0.32320  -0.31921  -0.31198
 Alpha  occ. eigenvalues --   -0.30516  -0.29769  -0.28218  -0.28074  -0.27719
 Alpha  occ. eigenvalues --   -0.26991  -0.26890  -0.25780  -0.25553  -0.25282
 Alpha  occ. eigenvalues --   -0.24071  -0.23622  -0.23344  -0.21972  -0.19237
 Alpha virt. eigenvalues --   -0.11393  -0.06946  -0.06182  -0.03477  -0.00611
 Alpha virt. eigenvalues --   -0.00530   0.00348   0.00958   0.02116   0.03306
 Alpha virt. eigenvalues --    0.03430   0.03850   0.04957   0.05284   0.05721

 Mulliken charges:
               1
     1  O   -0.259242
     2  O   -0.233585
     3  O   -0.210812
     4  O   -0.075805
     5  O   -0.322666
     6  O   -0.170961
     7  N    0.031581
     8  N   -0.267232
     9  N   -0.032767
    10  N   -0.290928
    11  C    0.071216
    12  C    0.259466
    13  C   -0.103936
    14  C   -0.100038
    15  C   -0.136455
    16  C    0.019360
    17  C   -0.181736
    18  C    0.143117
    19  C   -0.033131
    20  C   -0.078548
    21  C    0.089986
    22  C    0.171419
    23  C   -0.138708
    24  C   -0.031646
    25  C    0.011575
    26  C   -0.135998
    27  C   -0.080142
    28  C    0.012811
    29  C    0.154245
    30  C    0.085880
    31  C   -0.044272
    32  C    0.235457
    33  C   -0.061787
    34  C    0.195777
    35  C    0.128359
    36  C    0.001457
    37  C    0.169933
    38  C   -0.043651
    39  C   -0.192541
    40  C    0.119499
    41  C    0.031970
    42  C    0.133434
    43  C   -0.022446
    44  H    0.017875
    45  H    0.009690
    46  H   -0.071143
    47  H    0.048152
    48  H    0.189590
    49  H    0.000516
    50  H    0.050322
    51  H    0.004040
    52  H    0.021248
    53  H    0.039521
    54  H    0.040882
    55  H    0.057643
    56  H    0.068081
    57  H    0.065548
    58  H    0.094681
    59  H    0.006589
    60  H    0.114122
    61  H    0.046519
    62  H    0.013387
    63  H   -0.046320
    64  H    0.083765
    65  H    0.037624
    66  H   -0.059529
    67  H    0.021552
    68  H   -0.010978
    69  H   -0.031323
    70  H    0.005041
    71  H   -0.005083
    72  H    0.172548
    73  H   -0.006367
    74  H    0.028025
    75  H   -0.020145
    76  H    0.016987
    77  H    0.108839
    78  H    0.011385
    79  H    0.059211
 Sum of Mulliken charges =   0.00000

 Dipole moment (field-independent basis, Debye):
    X=              0.3714    Y=              2.3564    Z=              2.6057  Tot=              3.5327
 Quadrupole moment (field-independent basis, Debye-Ang):
   XX=           -210.3076   YY=           -246.8654   ZZ=           -268.3019
   XY=            -17.5227   XZ=             34.1002   YZ=              8.2363

 Normal termination of Gaussian 09 at Sun Jul  7 21:27:05 2019.
