 Gaussian 09, Revision D.01,
 Gaussian 09:  ES64L-G09RevD.01 24-Apr-2013

 --------------------------
 # td=(NStates=1) B3LYP/SVP
 --------------------------

 --
 TD
 --
 Symbolic Z-matrix:
 Charge =  0 Multiplicity = 1

                         Standard orientation:
 ---------------------------------------------------------------------
 Center     Atomic      Atomic             Coordinates (Angstroms)
 Number     Number       Type             X           Y           Z
 ---------------------------------------------------------------------
      1          8           0        5.380163   -0.258936   -3.449548
      2          8           0       -2.938430   -3.150676    3.226110
      3          8           0       -3.241138   -0.917150    3.104054
      4          8           0       -1.374086    7.202116    1.588402
      5          8           0       -0.295219    7.020941   -0.365935
      6          8           0       -2.093524   -3.911995   -0.057204
      7          7           0        2.422438    0.779962    0.603910
      8          7           0        4.410883   -0.790096   -1.253036
      9          7           0       -1.871294    0.665247   -0.350106
     10          7           0       -2.783467   -1.856937   -0.544209
     11          6           0        4.922919   -1.213213    0.008023
     12          6           0        4.461538   -0.475887    1.294741
     13          6           0        3.003073   -0.195816    1.377581
     14          6           0        1.964792   -0.792132    2.122763
     15          6           0        0.771094   -0.158875    1.767149
     16          6           0        0.977367    0.762715    0.787957
     17          6           0        6.313350   -1.384040   -0.187816
     18          6           0       -0.477533   -0.392398    2.597526
     19          6           0        6.709243   -0.909691   -1.432675
     20          6           0        0.228263    1.856412    0.190657
     21          6           0       -1.038163    1.870786   -0.214973
     22          6           0        5.468548   -0.584811   -2.236031
     23          6           0       -1.865390    2.945855   -0.802376
     24          6           0        2.140451   -1.886004    3.116241
     25          6           0        7.173085   -1.937559    0.854388
     26          6           0       -3.148410    2.496108   -1.198040
     27          6           0       -1.007502   -1.887610    2.669595
     28          6           0       -3.087562    0.967830   -0.956038
     29          6           0       -1.391212    4.340666   -0.815371
     30          6           0        8.091545   -0.820730   -2.107834
     31          6           0       -1.690121    5.103941    0.505921
     32          6           0       -4.283199    3.271797   -1.777925
     33          6           0       -4.036951    0.028890   -1.448284
     34          6           0       -2.577874   -1.867196    2.987466
     35          6           0       -3.920133   -1.313105   -1.108342
     36          6           0        9.270714   -0.602983   -1.591435
     37          6           0       -1.053335    6.550611    0.479905
     38          6           0       -4.833991   -2.377837   -1.535956
     39          6           0       -4.202133   -3.544454   -1.252249
     40          6           0       -2.926439   -3.148096   -0.529209
     41          6           0       -6.147638   -2.101419   -1.996792
     42          6           0       -4.631085   -4.947392   -1.299320
     43          6           0       -6.958567   -2.872057   -2.710187
     44          1           0        4.460845   -2.202070    0.265603
     45          1           0        5.050971    0.459932    1.305686
     46          1           0        4.692633   -1.049657    2.145846
     47          1           0        2.869994    1.566652    0.182103
     48          1           0        3.437742   -0.849249   -1.694115
     49          1           0       -0.156041   -0.197126    3.594973
     50          1           0       -1.303892    0.254852    2.378800
     51          1           0        0.542640    2.810268   -0.016684
     52          1           0        3.252411   -2.105769    3.264856
     53          1           0        1.653975   -1.575917    4.057812
     54          1           0        1.778444   -2.809843    2.685590
     55          1           0        6.470428   -2.656097    1.409376
     56          1           0        7.694381   -1.350821    1.564660
     57          1           0        8.005678   -2.384997    0.223799
     58          1           0       -1.174487   -2.131960    1.579389
     59          1           0       -0.565688   -2.801638    3.069735
     60          1           0       -1.686587   -0.370316   -0.259092
     61          1           0       -1.940134    4.722585   -1.747235
     62          1           0       -0.228239    4.480962   -0.996165
     63          1           0        7.611140   -0.703607   -3.084064
     64          1           0       -0.905203    4.759987    1.272954
     65          1           0       -2.673894    5.137050    0.911404
     66          1           0       -4.365931    4.461889   -1.463226
     67          1           0       -5.202604    2.944399   -1.318634
     68          1           0       -4.246313    3.103637   -3.035065
     69          1           0       -4.932815    0.593331   -1.760225
     70          1           0        9.408758   -0.808977   -0.702306
     71          1           0       10.187446   -0.447692   -2.101516
     72          1           0       -3.880154   -3.149141    3.469282
     73          1           0       -6.575371   -1.205265   -1.484935
     74          1           0       -4.764365   -5.140707   -2.373285
     75          1           0       -3.774356   -5.633461   -0.848974
     76          1           0       -5.646730   -5.268071   -0.730214
     77          1           0       -0.637412    7.963179    1.576905
     78          1           0       -7.987996   -2.677804   -3.065581
     79          1           0       -6.533771   -3.894027   -3.194759
 ---------------------------------------------------------------------

 SCF Done:  E(RB3LYP) =  -1947.87559693     A.U. after   24 cycles

 Excitation energies and oscillator strengths:

 Excited State   1:      Singlet-A      2.2799 eV  543.81 nm  f=0.3679  <S**2>=0.000
     154 ->156         0.20641
     155 ->156         0.66638
 This state for optimization and/or second-order correction.
 Total Energy, E(TD-HF/TD-KS) =  -1947.79181207
 Copying the excited state density for this state as the 1-particle RhoCI density.

 The electronic state is 1-A.
 Alpha  occ. eigenvalues --  -19.20382 -19.16510 -19.13736 -19.11780 -19.11140
 Alpha  occ. eigenvalues --  -19.08516 -14.37786 -14.36616 -14.35744 -14.28057
 Alpha  occ. eigenvalues --  -10.33376 -10.30312 -10.29466 -10.26153 -10.24716
 Alpha  occ. eigenvalues --  -10.24687 -10.24473 -10.23728 -10.23388 -10.23361
 Alpha  occ. eigenvalues --  -10.23283 -10.23218 -10.22763 -10.22673 -10.22381
 Alpha  occ. eigenvalues --  -10.21963 -10.21887 -10.21572 -10.21172 -10.20676
 Alpha  occ. eigenvalues --  -10.20120 -10.20028 -10.19849 -10.19705 -10.19425
 Alpha  occ. eigenvalues --  -10.19413 -10.19211 -10.19041 -10.18940 -10.18889
 Alpha  occ. eigenvalues --  -10.18753 -10.18582 -10.17805  -1.11075  -1.08913
 Alpha  occ. eigenvalues --   -1.01002  -1.00680  -1.00435  -1.00430  -0.97451
 Alpha  occ. eigenvalues --   -0.95480  -0.93944  -0.91884  -0.83402  -0.82138
 Alpha  occ. eigenvalues --   -0.82006  -0.81478  -0.80639  -0.80022  -0.78014
 Alpha  occ. eigenvalues --   -0.77592  -0.76602  -0.75275  -0.74593  -0.73158
 Alpha  occ. eigenvalues --   -0.71894  -0.71661  -0.69568  -0.69137  -0.67770
 Alpha  occ. eigenvalues --   -0.66864  -0.66245  -0.63923  -0.61933  -0.60168
 Alpha  occ. eigenvalues --   -0.59675  -0.59050  -0.58217  -0.57458  -0.56516
 Alpha  occ. eigenvalues --   -0.55778  -0.55190  -0.54812  -0.54333  -0.52913
 Alpha  occ. eigenvalues --   -0.52091  -0.51927  -0.51416  -0.51119  -0.49854
 Alpha  occ. eigenvalues --   -0.49814  -0.48669  -0.48336  -0.47686  -0.47466
 Alpha  occ. eigenvalues --   -0.47142  -0.46833  -0.46403  -0.46012  -0.45796
 Alpha  occ. eigenvalues --   -0.45292  -0.45200  -0.44731  -0.44506  -0.44237
 Alpha  occ. eigenvalues --   -0.44083  -0.43385  -0.43305  -0.42987  -0.42784
 Alpha  occ. eigenvalues --   -0.42416  -0.41895  -0.41828  -0.41437  -0.41350
 Alpha  occ. eigenvalues --   -0.40787  -0.40414  -0.40137  -0.39820  -0.39678
 Alpha  occ. eigenvalues --   -0.39500  -0.39036  -0.38920  -0.38840  -0.38609
 Alpha  occ. eigenvalues --   -0.38487  -0.37998  -0.37747  -0.37146  -0.36784
 Alpha  occ. eigenvalues --   -0.36446  -0.35530  -0.35167  -0.34725  -0.34080
 Alpha  occ. eigenvalues --   -0.33375  -0.33281  -0.33213  -0.32578  -0.31788
 Alpha  occ. eigenvalues --   -0.31329  -0.30784  -0.29101  -0.28615  -0.26824
 Alpha  occ. eigenvalues --   -0.26383  -0.26056  -0.25961  -0.25872  -0.24925
 Alpha  occ. eigenvalues --   -0.24381  -0.23560  -0.23282  -0.22120  -0.19958
 Alpha virt. eigenvalues --   -0.10729  -0.06394  -0.06054  -0.00973  -0.00546
 Alpha virt. eigenvalues --    0.00157   0.00506   0.01927   0.02589   0.03018
 Alpha virt. eigenvalues --    0.03757   0.03797   0.04346   0.04694   0.05453

 Mulliken charges:
               1
     1  O   -0.261054
     2  O   -0.186970
     3  O   -0.176830
     4  O   -0.199679
     5  O   -0.250042
     6  O   -0.222285
     7  N   -0.118240
     8  N   -0.266565
     9  N   -0.163354
    10  N   -0.238484
    11  C    0.120698
    12  C    0.255675
    13  C   -0.096935
    14  C   -0.167708
    15  C   -0.063132
    16  C    0.110116
    17  C   -0.158510
    18  C    0.157086
    19  C   -0.159164
    20  C    0.010434
    21  C    0.080645
    22  C    0.211775
    23  C   -0.051978
    24  C    0.131660
    25  C    0.065342
    26  C   -0.098776
    27  C   -0.074694
    28  C    0.055690
    29  C    0.003870
    30  C    0.042999
    31  C    0.018545
    32  C   -0.014671
    33  C   -0.075930
    34  C    0.106445
    35  C    0.111918
    36  C    0.100074
    37  C    0.123439
    38  C    0.062998
    39  C   -0.175644
    40  C    0.092453
    41  C   -0.025687
    42  C    0.005306
    43  C   -0.081459
    44  H    0.008778
    45  H   -0.012848
    46  H   -0.035398
    47  H    0.110760
    48  H    0.158939
    49  H   -0.004221
    50  H    0.004040
    51  H   -0.082626
    52  H   -0.005895
    53  H    0.029524
    54  H    0.037103
    55  H    0.027594
    56  H    0.033595
    57  H    0.048612
    58  H    0.063199
    59  H    0.031357
    60  H    0.169357
    61  H    0.041238
    62  H    0.051662
    63  H    0.009727
    64  H    0.050823
    65  H    0.038496
    66  H    0.048862
    67  H    0.037068
    68  H    0.080383
    69  H   -0.015085
    70  H   -0.074004
    71  H    0.021103
    72  H    0.166476
    73  H    0.007240
    74  H    0.031538
    75  H    0.051381
    76  H    0.048264
    77  H    0.217296
    78  H    0.031212
    79  H    0.035069
 Sum of Mulliken charges =   0.00000

 Dipole moment (field-independent basis, Debye):
    X=              0.1023    Y=              3.6822    Z=              4.6539  Tot=              5.9353
 Quadrupole moment (field-independent basis, Debye-Ang):
   XX=           -220.1195   YY=           -248.8093   ZZ=           -265.1289
   XY=            -11.2990   XZ=             35.2832   YZ=              4.7555

 Normal termination of Gaussian 09 at Mon Jul  8 08:42:38 2019.
