 Gaussian 09, Revision D.01,
 Gaussian 09:  ES64L-G09RevD.01 24-Apr-2013

 --------------------------
 # td=(NStates=1) B3LYP/SVP
 --------------------------

 --
 TD
 --
 Symbolic Z-matrix:
 Charge =  0 Multiplicity = 1

                         Standard orientation:
 ---------------------------------------------------------------------
 Center     Atomic      Atomic             Coordinates (Angstroms)
 Number     Number       Type             X           Y           Z
 ---------------------------------------------------------------------
      1          8           0        5.418827   -0.204497   -3.421744
      2          8           0       -2.807040   -3.143228    3.510150
      3          8           0       -3.145248   -0.982362    3.285354
      4          8           0       -1.495117    7.206405    1.567475
      5          8           0       -0.312177    6.965361   -0.337666
      6          8           0       -2.048991   -4.029780   -0.160885
      7          7           0        2.399131    0.789259    0.599755
      8          7           0        4.516470   -0.682954   -1.239823
      9          7           0       -1.979960    0.681012   -0.473864
     10          7           0       -2.703622   -1.771428   -0.699604
     11          6           0        4.873240   -1.236690    0.070639
     12          6           0        4.507338   -0.241789    1.201720
     13          6           0        3.018708   -0.087349    1.415608
     14          6           0        2.031517   -0.738185    2.122033
     15          6           0        0.797790   -0.141405    1.767132
     16          6           0        1.014481    0.815440    0.676756
     17          6           0        6.361356   -1.316652   -0.074472
     18          6           0       -0.488782   -0.445909    2.415376
     19          6           0        6.729511   -0.986066   -1.444453
     20          6           0        0.226888    1.759637    0.076839
     21          6           0       -1.057137    1.784827   -0.314169
     22          6           0        5.545518   -0.512122   -2.220966
     23          6           0       -1.846631    2.944691   -0.799825
     24          6           0        2.239344   -1.711636    3.264018
     25          6           0        7.208459   -1.858710    0.888030
     26          6           0       -3.057022    2.452436   -1.160372
     27          6           0       -1.088152   -1.915928    2.415146
     28          6           0       -3.141705    1.040684   -0.962912
     29          6           0       -1.478735    4.363949   -0.801464
     30          6           0        7.939644   -0.880176   -2.187820
     31          6           0       -1.714366    5.123969    0.449645
     32          6           0       -4.319408    3.204043   -1.637182
     33          6           0       -4.113767    0.174041   -1.290176
     34          6           0       -2.466233   -1.944509    3.082647
     35          6           0       -3.888827   -1.260671   -1.161440
     36          6           0        9.082001   -0.784862   -1.675613
     37          6           0       -1.057558    6.471227    0.471364
     38          6           0       -4.799261   -2.365441   -1.517141
     39          6           0       -4.262931   -3.561020   -1.216050
     40          6           0       -2.935567   -3.228342   -0.591020
     41          6           0       -6.137762   -2.152891   -2.127928
     42          6           0       -4.837417   -4.921973   -1.104857
     43          6           0       -6.954228   -3.003211   -2.739152
     44          1           0        4.533403   -2.274096    0.292190
     45          1           0        5.083181    0.649408    0.934769
     46          1           0        4.844663   -0.748505    2.211667
     47          1           0        2.934418    1.252797   -0.092039
     48          1           0        3.674463   -0.841729   -1.589307
     49          1           0       -0.303573   -0.244422    3.449262
     50          1           0       -1.221117    0.288955    2.190874
     51          1           0        0.871612    2.700651   -0.092283
     52          1           0        3.285590   -1.498205    3.927306
     53          1           0        1.353339   -1.819596    3.974403
     54          1           0        2.436416   -2.767710    2.759053
     55          1           0        6.707320   -2.580732    1.503985
     56          1           0        7.828080   -1.092080    1.555380
     57          1           0        8.014139   -2.363380    0.363986
     58          1           0       -1.198827   -2.633645    1.336203
     59          1           0       -0.386539   -2.643376    3.163987
     60          1           0       -1.585934   -0.240348   -0.340995
     61          1           0       -1.684275    4.817560   -1.660856
     62          1           0       -0.238300    4.319143   -0.988927
     63          1           0        7.933231   -0.883609   -3.303478
     64          1           0       -1.306252    4.573331    1.411820
     65          1           0       -2.811741    5.248200    0.884269
     66          1           0       -4.226382    4.282331   -1.987337
     67          1           0       -5.160017    3.156026   -0.829401
     68          1           0       -5.170862    2.640691   -2.603009
     69          1           0       -5.126911    0.536978   -1.560809
     70          1           0        9.230119   -0.817651   -0.677903
     71          1           0       10.104084   -0.881346   -2.337125
     72          1           0       -3.653807   -2.979324    3.653881
     73          1           0       -6.468715   -1.200041   -1.909583
     74          1           0       -4.577003   -5.488626   -2.131038
     75          1           0       -4.299228   -5.669268   -0.435135
     76          1           0       -5.966802   -4.615191   -1.176096
     77          1           0       -1.014922    8.009855    1.519106
     78          1           0       -7.892786   -2.847469   -3.112737
     79          1           0       -6.628083   -3.988435   -2.890447
 ---------------------------------------------------------------------

 SCF Done:  E(RB3LYP) =  -1947.81434578     A.U. after   16 cycles

 Excitation energies and oscillator strengths:

 Excited State   1:      Singlet-A      2.0829 eV  595.24 nm  f=0.3921  <S**2>=0.000
     154 ->156         0.16027
     155 ->156         0.68121
     155 <-156        -0.10217
 This state for optimization and/or second-order correction.
 Total Energy, E(TD-HF/TD-KS) =  -1947.73779923
 Copying the excited state density for this state as the 1-particle RhoCI density.

 The electronic state is 1-A.
 Alpha  occ. eigenvalues --  -19.17818 -19.16628 -19.14006 -19.11588 -19.11405
 Alpha  occ. eigenvalues --  -19.11122 -14.38220 -14.36140 -14.34837 -14.29217
 Alpha  occ. eigenvalues --  -10.32994 -10.30315 -10.29503 -10.27247 -10.25962
 Alpha  occ. eigenvalues --  -10.24368 -10.23694 -10.23648 -10.23484 -10.23447
 Alpha  occ. eigenvalues --  -10.23431 -10.23267 -10.23183 -10.23103 -10.22358
 Alpha  occ. eigenvalues --  -10.22162 -10.21394 -10.21390 -10.21351 -10.21262
 Alpha  occ. eigenvalues --  -10.21197 -10.20938 -10.20868 -10.20160 -10.19887
 Alpha  occ. eigenvalues --  -10.19848 -10.19726 -10.19389 -10.19003 -10.18997
 Alpha  occ. eigenvalues --  -10.18739 -10.18564 -10.18525  -1.12141  -1.09934
 Alpha  occ. eigenvalues --   -1.01688  -1.01336  -1.00671  -0.99659  -0.99185
 Alpha  occ. eigenvalues --   -0.98691  -0.94369  -0.90342  -0.83914  -0.83684
 Alpha  occ. eigenvalues --   -0.82654  -0.81389  -0.80833  -0.80493  -0.78947
 Alpha  occ. eigenvalues --   -0.78337  -0.76692  -0.75600  -0.75218  -0.72599
 Alpha  occ. eigenvalues --   -0.72172  -0.70818  -0.69861  -0.69183  -0.68194
 Alpha  occ. eigenvalues --   -0.68047  -0.66729  -0.64433  -0.61267  -0.60858
 Alpha  occ. eigenvalues --   -0.60016  -0.59378  -0.58681  -0.57860  -0.57243
 Alpha  occ. eigenvalues --   -0.56466  -0.55958  -0.55771  -0.54906  -0.54189
 Alpha  occ. eigenvalues --   -0.52963  -0.52442  -0.51580  -0.50561  -0.49923
 Alpha  occ. eigenvalues --   -0.49148  -0.48835  -0.48373  -0.48310  -0.47764
 Alpha  occ. eigenvalues --   -0.47467  -0.47118  -0.46585  -0.46330  -0.46124
 Alpha  occ. eigenvalues --   -0.45700  -0.45291  -0.44764  -0.44366  -0.44181
 Alpha  occ. eigenvalues --   -0.43744  -0.43504  -0.43333  -0.42739  -0.42488
 Alpha  occ. eigenvalues --   -0.42279  -0.42110  -0.41858  -0.41277  -0.41218
 Alpha  occ. eigenvalues --   -0.40942  -0.40742  -0.40178  -0.39858  -0.39620
 Alpha  occ. eigenvalues --   -0.39467  -0.39308  -0.39158  -0.38856  -0.38573
 Alpha  occ. eigenvalues --   -0.38369  -0.38130  -0.37412  -0.37240  -0.36855
 Alpha  occ. eigenvalues --   -0.36266  -0.35453  -0.35116  -0.34501  -0.34395
 Alpha  occ. eigenvalues --   -0.34015  -0.33391  -0.32894  -0.32321  -0.32036
 Alpha  occ. eigenvalues --   -0.31520  -0.31267  -0.29456  -0.28991  -0.27680
 Alpha  occ. eigenvalues --   -0.27327  -0.26856  -0.26241  -0.26144  -0.24686
 Alpha  occ. eigenvalues --   -0.24477  -0.24102  -0.23864  -0.22408  -0.19040
 Alpha virt. eigenvalues --   -0.10708  -0.07550  -0.06597  -0.01236  -0.00520
 Alpha virt. eigenvalues --    0.00645   0.01040   0.01813   0.02220   0.02670
 Alpha virt. eigenvalues --    0.03246   0.03411   0.04885   0.04970   0.05533

 Mulliken charges:
               1
     1  O   -0.236130
     2  O   -0.077672
     3  O   -0.231057
     4  O   -0.194144
     5  O   -0.209728
     6  O   -0.255751
     7  N   -0.034851
     8  N   -0.198441
     9  N   -0.052078
    10  N   -0.339757
    11  C    0.111115
    12  C    0.154481
    13  C   -0.076244
    14  C   -0.092844
    15  C   -0.093577
    16  C    0.067397
    17  C   -0.170659
    18  C    0.135134
    19  C   -0.046651
    20  C   -0.147778
    21  C    0.127746
    22  C    0.191233
    23  C   -0.078525
    24  C   -0.023464
    25  C    0.077332
    26  C   -0.052205
    27  C   -0.153281
    28  C    0.150021
    29  C    0.115375
    30  C    0.004582
    31  C   -0.031072
    32  C   -0.059430
    33  C   -0.137043
    34  C    0.109488
    35  C    0.107942
    36  C   -0.029079
    37  C    0.135866
    38  C    0.033516
    39  C   -0.181799
    40  C    0.186859
    41  C    0.009631
    42  C    0.038638
    43  C    0.037651
    44  H    0.036774
    45  H    0.003558
    46  H    0.017950
    47  H    0.093989
    48  H    0.080785
    49  H   -0.011371
    50  H   -0.004762
    51  H    0.015848
    52  H    0.038609
    53  H    0.047228
    54  H    0.041102
    55  H    0.012627
    56  H    0.057813
    57  H    0.028520
    58  H    0.139800
    59  H    0.039693
    60  H    0.145103
    61  H   -0.019538
    62  H    0.025458
    63  H    0.021607
    64  H    0.060077
    65  H    0.064726
    66  H    0.042676
    67  H    0.049582
    68  H    0.036659
    69  H   -0.016583
    70  H   -0.037651
    71  H    0.039122
    72  H    0.105760
    73  H   -0.040847
    74  H    0.036776
    75  H    0.052523
    76  H    0.050894
    77  H    0.158303
    78  H   -0.000863
    79  H   -0.002696
 Sum of Mulliken charges =   0.00000

 Dipole moment (field-independent basis, Debye):
    X=              1.4031    Y=              1.4408    Z=              3.3996  Tot=              3.9499
 Quadrupole moment (field-independent basis, Debye-Ang):
   XX=           -213.4508   YY=           -249.8429   ZZ=           -268.3151
   XY=            -12.5942   XZ=             33.1125   YZ=              4.8963

 Normal termination of Gaussian 09 at Mon Jul  8 08:29:03 2019.
