 Gaussian 09, Revision D.01,
 Gaussian 09:  ES64L-G09RevD.01 24-Apr-2013

 --------------------------
 # td=(NStates=1) B3LYP/SVP
 --------------------------

 --
 TD
 --
 Symbolic Z-matrix:
 Charge =  0 Multiplicity = 1

                         Standard orientation:
 ---------------------------------------------------------------------
 Center     Atomic      Atomic             Coordinates (Angstroms)
 Number     Number       Type             X           Y           Z
 ---------------------------------------------------------------------
      1          8           0        5.411940   -0.430949   -3.453033
      2          8           0       -2.867277   -2.839768    3.371469
      3          8           0       -3.197798   -0.632748    3.286667
      4          8           0       -1.352571    7.219821    1.437803
      5          8           0       -0.937966    7.016372   -0.936897
      6          8           0       -1.930497   -4.138498   -0.056922
      7          7           0        2.379687    0.854102    0.428699
      8          7           0        4.473189   -0.808533   -1.369502
      9          7           0       -1.829470    0.632644   -0.240759
     10          7           0       -2.713711   -1.952620   -0.454768
     11          6           0        4.878379   -1.171540    0.063039
     12          6           0        4.499605   -0.306201    1.229941
     13          6           0        3.014658   -0.033840    1.276159
     14          6           0        1.950991   -0.554294    2.219757
     15          6           0        0.832531    0.028606    1.814458
     16          6           0        0.920410    0.919305    0.715697
     17          6           0        6.461153   -1.255036   -0.112112
     18          6           0       -0.496063   -0.101895    2.529522
     19          6           0        6.758524   -0.953117   -1.406202
     20          6           0        0.186408    1.865807    0.110606
     21          6           0       -1.164354    1.755859   -0.305545
     22          6           0        5.520321   -0.638542   -2.243354
     23          6           0       -2.005697    2.831478   -0.860955
     24          6           0        2.339936   -1.527544    3.296469
     25          6           0        7.261804   -1.688408    1.012419
     26          6           0       -3.144893    2.282151   -1.199743
     27          6           0       -1.191040   -1.536603    2.661140
     28          6           0       -3.123451    0.824167   -0.801462
     29          6           0       -1.526866    4.271809   -1.019920
     30          6           0        8.015937   -0.869994   -2.067674
     31          6           0       -1.741242    5.058932    0.361474
     32          6           0       -4.377233    2.988802   -1.752068
     33          6           0       -4.123683   -0.101978   -1.084533
     34          6           0       -2.523322   -1.607837    3.187860
     35          6           0       -3.927252   -1.440370   -0.935621
     36          6           0        9.219741   -0.658592   -1.532043
     37          6           0       -1.337025    6.534137    0.182027
     38          6           0       -4.715944   -2.565375   -1.462346
     39          6           0       -4.077504   -3.789872   -1.112454
     40          6           0       -2.839324   -3.369720   -0.461564
     41          6           0       -5.926474   -2.392484   -2.224123
     42          6           0       -4.414621   -5.150908   -1.299006
     43          6           0       -6.909906   -3.188997   -2.603541
     44          1           0        4.593471   -2.230156    0.195321
     45          1           0        4.955519    0.713820    1.201658
     46          1           0        4.825457   -0.676664    2.182030
     47          1           0        2.782510    1.294628   -0.346396
     48          1           0        3.440942   -0.955233   -1.623569
     49          1           0       -0.515123    0.337308    3.625596
     50          1           0       -1.345708    0.516343    2.187708
     51          1           0        0.829387    2.811802   -0.152711
     52          1           0        3.448356   -1.168684    3.444003
     53          1           0        1.612285   -1.292586    4.275833
     54          1           0        2.135672   -2.672210    3.244239
     55          1           0        6.750758   -2.391048    1.672189
     56          1           0        7.855594   -0.993819    1.645812
     57          1           0        8.315358   -2.168568    0.781227
     58          1           0       -1.197857   -1.832655    1.363676
     59          1           0       -0.662997   -2.246664    3.242923
     60          1           0       -1.549078   -0.278112   -0.186308
     61          1           0       -2.031972    4.743442   -1.882233
     62          1           0       -0.433152    4.440691   -1.260117
     63          1           0        7.955647   -0.925768   -3.069642
     64          1           0       -1.194157    4.449363    1.030521
     65          1           0       -2.867952    5.094264    0.558331
     66          1           0       -4.240375    3.853976   -2.059879
     67          1           0       -5.177137    2.925644   -1.041250
     68          1           0       -4.484946    2.449722   -2.541860
     69          1           0       -5.126304    0.154940   -1.653608
     70          1           0        9.520621   -0.361618   -0.572713
     71          1           0       10.009488   -0.679732   -2.056770
     72          1           0       -3.832267   -2.982392    3.739630
     73          1           0       -6.349015   -1.345250   -2.295065
     74          1           0       -4.702148   -5.534680   -2.483516
     75          1           0       -3.561450   -5.779311   -0.857991
     76          1           0       -5.210345   -5.594645   -0.711451
     77          1           0       -0.953096    8.198823    1.229759
     78          1           0       -7.812953   -2.890512   -3.089428
     79          1           0       -6.724562   -4.364883   -2.532158
 ---------------------------------------------------------------------

 SCF Done:  E(RB3LYP) =  -1947.77883731     A.U. after   24 cycles

 Excitation energies and oscillator strengths:

 Excited State   1:      Singlet-A      1.8114 eV  684.47 nm  f=0.2997  <S**2>=0.000
     154 ->156         0.32676
     155 ->156         0.62534
     155 <-156        -0.12663
 This state for optimization and/or second-order correction.
 Total Energy, E(TD-HF/TD-KS) =  -1947.71226984
 Copying the excited state density for this state as the 1-particle RhoCI density.

 The electronic state is 1-A.
 Alpha  occ. eigenvalues --  -19.20092 -19.17539 -19.14720 -19.10519 -19.09698
 Alpha  occ. eigenvalues --  -19.09233 -14.39193 -14.37331 -14.36644 -14.28211
 Alpha  occ. eigenvalues --  -10.34434 -10.29303 -10.29023 -10.26376 -10.25467
 Alpha  occ. eigenvalues --  -10.25405 -10.25223 -10.24292 -10.23251 -10.23235
 Alpha  occ. eigenvalues --  -10.22853 -10.22624 -10.22482 -10.22407 -10.22142
 Alpha  occ. eigenvalues --  -10.21944 -10.21567 -10.20571 -10.20542 -10.20471
 Alpha  occ. eigenvalues --  -10.20319 -10.20256 -10.20037 -10.19866 -10.19667
 Alpha  occ. eigenvalues --  -10.19459 -10.19374 -10.19330 -10.19152 -10.19072
 Alpha  occ. eigenvalues --  -10.18325 -10.17920 -10.17193  -1.09185  -1.05964
 Alpha  occ. eigenvalues --   -1.01888  -0.99959  -0.99667  -0.98787  -0.98301
 Alpha  occ. eigenvalues --   -0.97401  -0.92711  -0.89601  -0.83482  -0.82707
 Alpha  occ. eigenvalues --   -0.82502  -0.81766  -0.80582  -0.79433  -0.78326
 Alpha  occ. eigenvalues --   -0.77646  -0.76673  -0.75573  -0.75134  -0.74110
 Alpha  occ. eigenvalues --   -0.72218  -0.71764  -0.69906  -0.68594  -0.68138
 Alpha  occ. eigenvalues --   -0.67181  -0.66798  -0.63675  -0.62938  -0.61262
 Alpha  occ. eigenvalues --   -0.59654  -0.59491  -0.58948  -0.57873  -0.57648
 Alpha  occ. eigenvalues --   -0.56763  -0.56110  -0.54739  -0.54454  -0.53044
 Alpha  occ. eigenvalues --   -0.52018  -0.51209  -0.51062  -0.50321  -0.50020
 Alpha  occ. eigenvalues --   -0.49689  -0.49039  -0.48440  -0.48208  -0.47752
 Alpha  occ. eigenvalues --   -0.46902  -0.46671  -0.46625  -0.46396  -0.46231
 Alpha  occ. eigenvalues --   -0.45987  -0.45262  -0.44937  -0.44674  -0.44227
 Alpha  occ. eigenvalues --   -0.44121  -0.43654  -0.43355  -0.43043  -0.42855
 Alpha  occ. eigenvalues --   -0.42048  -0.41958  -0.41519  -0.41376  -0.41226
 Alpha  occ. eigenvalues --   -0.40542  -0.40242  -0.39968  -0.39575  -0.39479
 Alpha  occ. eigenvalues --   -0.38822  -0.38508  -0.38430  -0.38337  -0.38070
 Alpha  occ. eigenvalues --   -0.37916  -0.37567  -0.37224  -0.36740  -0.36396
 Alpha  occ. eigenvalues --   -0.36074  -0.35597  -0.35505  -0.34143  -0.33813
 Alpha  occ. eigenvalues --   -0.33113  -0.32725  -0.32027  -0.31663  -0.31390
 Alpha  occ. eigenvalues --   -0.31138  -0.30596  -0.29267  -0.28476  -0.27218
 Alpha  occ. eigenvalues --   -0.26977  -0.26350  -0.26113  -0.25849  -0.25415
 Alpha  occ. eigenvalues --   -0.24337  -0.24023  -0.23071  -0.20938  -0.18207
 Alpha virt. eigenvalues --   -0.11203  -0.06601  -0.06130  -0.03328  -0.01524
 Alpha virt. eigenvalues --    0.00534   0.00694   0.01665   0.02254   0.02657
 Alpha virt. eigenvalues --    0.03276   0.03715   0.04260   0.04566   0.05001

 Mulliken charges:
               1
     1  O   -0.230299
     2  O   -0.173760
     3  O   -0.224388
     4  O   -0.277851
     5  O   -0.275440
     6  O   -0.245194
     7  N   -0.120473
     8  N   -0.255744
     9  N    0.035038
    10  N   -0.349616
    11  C    0.080442
    12  C    0.248784
    13  C   -0.122378
    14  C   -0.063118
    15  C   -0.015634
    16  C    0.139128
    17  C   -0.124105
    18  C   -0.003749
    19  C   -0.051389
    20  C   -0.156641
    21  C    0.031695
    22  C    0.193207
    23  C   -0.036862
    24  C   -0.018500
    25  C    0.030455
    26  C   -0.232031
    27  C   -0.091474
    28  C    0.132379
    29  C    0.052557
    30  C    0.039269
    31  C    0.003748
    32  C    0.354191
    33  C   -0.150633
    34  C    0.110892
    35  C    0.104832
    36  C    0.058756
    37  C    0.220954
    38  C    0.074944
    39  C   -0.109453
    40  C    0.163152
    41  C   -0.043790
    42  C   -0.007218
    43  C   -0.071431
    44  H    0.035563
    45  H    0.011150
    46  H   -0.013451
    47  H    0.098354
    48  H    0.156255
    49  H    0.006586
    50  H    0.016497
    51  H    0.023342
    52  H    0.034529
    53  H    0.038588
    54  H    0.069719
    55  H    0.027187
    56  H    0.034169
    57  H    0.027249
    58  H    0.131764
    59  H   -0.002356
    60  H    0.104311
    61  H    0.021912
    62  H    0.024607
    63  H   -0.035419
    64  H    0.043427
    65  H    0.060497
    66  H   -0.088050
    67  H    0.028978
    68  H   -0.034358
    69  H    0.018022
    70  H   -0.012884
    71  H   -0.039468
    72  H    0.214183
    73  H   -0.007311
    74  H    0.050364
    75  H    0.031935
    76  H    0.023387
    77  H    0.232121
    78  H    0.020152
    79  H    0.025196
 Sum of Mulliken charges =   0.00000

 Dipole moment (field-independent basis, Debye):
    X=              1.8662    Y=              2.9512    Z=              4.1870  Tot=              5.4519
 Quadrupole moment (field-independent basis, Debye-Ang):
   XX=           -209.7496   YY=           -248.2328   ZZ=           -265.4222
   XY=             -3.8769   XZ=             34.2060   YZ=             -2.1739

 Normal termination of Gaussian 09 at Wed Jul 10 11:42:51 2019.
