 Gaussian 09, Revision D.01,
 Gaussian 09:  ES64L-G09RevD.01 24-Apr-2013

 --------------------------
 # td=(NStates=1) B3LYP/SVP
 --------------------------

 --
 TD
 --
 Symbolic Z-matrix:
 Charge =  0 Multiplicity = 1

                         Standard orientation:
 ---------------------------------------------------------------------
 Center     Atomic      Atomic             Coordinates (Angstroms)
 Number     Number       Type             X           Y           Z
 ---------------------------------------------------------------------
      1          8           0        5.343434   -0.002274   -3.318817
      2          8           0       -2.780738   -3.089206    3.143835
      3          8           0       -3.289293   -0.911167    3.179129
      4          8           0       -2.208827    7.263824    1.380908
      5          8           0       -0.612246    6.819755   -0.330232
      6          8           0       -1.847734   -4.081512   -0.024673
      7          7           0        2.421525    0.897549    0.597134
      8          7           0        4.385750   -0.464736   -1.302603
      9          7           0       -1.798759    0.586680   -0.445128
     10          7           0       -2.615327   -1.927640   -0.541538
     11          6           0        4.755731   -1.145369   -0.048190
     12          6           0        4.452430   -0.288682    1.188751
     13          6           0        2.989074   -0.011265    1.390229
     14          6           0        2.108704   -0.553622    2.260678
     15          6           0        0.809540    0.034526    1.923984
     16          6           0        1.056064    0.887731    0.829923
     17          6           0        6.280431   -1.263560   -0.229363
     18          6           0       -0.489925   -0.270090    2.585763
     19          6           0        6.660660   -0.775875   -1.470588
     20          6           0        0.213337    1.903124    0.271449
     21          6           0       -1.066981    1.774162   -0.255186
     22          6           0        5.445880   -0.383794   -2.177154
     23          6           0       -1.795959    2.878078   -0.848178
     24          6           0        2.416324   -1.584547    3.342036
     25          6           0        7.080945   -1.870664    0.839140
     26          6           0       -3.103260    2.377299   -1.304453
     27          6           0       -0.985283   -1.663932    2.543807
     28          6           0       -2.912839    0.842230   -1.131511
     29          6           0       -1.514182    4.438731   -0.861286
     30          6           0        7.885817   -0.592943   -2.055191
     31          6           0       -1.943038    5.035233    0.488840
     32          6           0       -4.214665    3.056105   -2.041491
     33          6           0       -3.934565   -0.147714   -1.411260
     34          6           0       -2.457095   -1.824435    3.066301
     35          6           0       -3.684596   -1.487434   -1.158675
     36          6           0        9.195400   -0.813486   -1.545173
     37          6           0       -1.493354    6.421163    0.465330
     38          6           0       -4.660133   -2.595782   -1.497550
     39          6           0       -3.997061   -3.783030   -1.172582
     40          6           0       -2.738206   -3.384119   -0.549007
     41          6           0       -5.979754   -2.388735   -1.942367
     42          6           0       -4.410481   -5.187615   -1.162541
     43          6           0       -6.834370   -3.215299   -2.544942
     44          1           0        4.452045   -2.085053    0.219686
     45          1           0        4.911887    0.503477    0.962424
     46          1           0        4.844532   -0.701758    2.116180
     47          1           0        2.716154    1.331879   -0.334057
     48          1           0        3.256626   -0.501447   -1.506473
     49          1           0       -0.352526    0.169991    3.721359
     50          1           0       -1.229254    0.287066    2.206613
     51          1           0        0.566959    2.946687    0.159073
     52          1           0        3.378919   -1.463745    3.626023
     53          1           0        1.696040   -1.287478    4.241355
     54          1           0        1.995346   -2.546575    3.193421
     55          1           0        6.568231   -2.584310    1.531885
     56          1           0        7.728146   -0.951381    1.267238
     57          1           0        7.865891   -2.485488    0.420341
     58          1           0       -1.095084   -2.264908    1.504178
     59          1           0       -0.470343   -2.487908    3.079238
     60          1           0       -1.543235   -0.504770   -0.205152
     61          1           0       -2.000452    4.783395   -1.643585
     62          1           0       -0.589145    4.494490   -1.170194
     63          1           0        7.960460   -0.504274   -3.159350
     64          1           0       -1.442056    4.643974    1.503273
     65          1           0       -2.931361    5.085821    0.749970
     66          1           0       -3.942618    4.015948   -2.127656
     67          1           0       -5.147257    3.028501   -1.602180
     68          1           0       -4.207781    2.600668   -3.015032
     69          1           0       -5.214786    0.316440   -1.591999
     70          1           0        9.427944   -1.143869   -0.537039
     71          1           0       10.175047   -0.648767   -2.138187
     72          1           0       -3.678822   -3.114381    3.415891
     73          1           0       -6.208912   -1.314606   -1.946621
     74          1           0       -4.566374   -5.795227   -2.242884
     75          1           0       -3.723889   -5.802314   -0.705650
     76          1           0       -5.575760   -5.238044   -0.844967
     77          1           0       -1.820514    8.127194    1.086861
     78          1           0       -7.860117   -2.994558   -2.726471
     79          1           0       -6.340572   -4.051358   -2.641046
 ---------------------------------------------------------------------

 SCF Done:  E(RB3LYP) =  -1947.78897118     A.U. after   17 cycles

 Excitation energies and oscillator strengths:

 Excited State   1:      Singlet-A      2.0821 eV  595.49 nm  f=0.4084  <S**2>=0.000
     155 ->156         0.69360
 This state for optimization and/or second-order correction.
 Total Energy, E(TD-HF/TD-KS) =  -1947.71245663
 Copying the excited state density for this state as the 1-particle RhoCI density.

 The electronic state is 1-A.
 Alpha  occ. eigenvalues --  -19.19258 -19.17644 -19.14324 -19.10700 -19.10416
 Alpha  occ. eigenvalues --  -19.09670 -14.38350 -14.37162 -14.36536 -14.29204
 Alpha  occ. eigenvalues --  -10.33341 -10.30650 -10.28360 -10.26677 -10.25423
 Alpha  occ. eigenvalues --  -10.24694 -10.24122 -10.22736 -10.22621 -10.22450
 Alpha  occ. eigenvalues --  -10.22351 -10.22318 -10.22270 -10.22116 -10.22108
 Alpha  occ. eigenvalues --  -10.22062 -10.20911 -10.20632 -10.20541 -10.20400
 Alpha  occ. eigenvalues --  -10.20278 -10.20230 -10.20074 -10.19951 -10.19780
 Alpha  occ. eigenvalues --  -10.19643 -10.19621 -10.19500 -10.19419 -10.19329
 Alpha  occ. eigenvalues --  -10.19082 -10.18773 -10.18298  -1.10279  -1.07828
 Alpha  occ. eigenvalues --   -1.02906  -1.00258  -0.99981  -0.99451  -0.98023
 Alpha  occ. eigenvalues --   -0.97450  -0.93702  -0.91591  -0.83070  -0.82564
 Alpha  occ. eigenvalues --   -0.81886  -0.81389  -0.81249  -0.79615  -0.78820
 Alpha  occ. eigenvalues --   -0.77523  -0.76776  -0.75976  -0.74364  -0.73247
 Alpha  occ. eigenvalues --   -0.71747  -0.71296  -0.70323  -0.69462  -0.69196
 Alpha  occ. eigenvalues --   -0.67834  -0.66285  -0.63857  -0.61954  -0.61147
 Alpha  occ. eigenvalues --   -0.59628  -0.57931  -0.57844  -0.57476  -0.57310
 Alpha  occ. eigenvalues --   -0.56662  -0.55764  -0.55261  -0.54446  -0.53699
 Alpha  occ. eigenvalues --   -0.52735  -0.51599  -0.51210  -0.50805  -0.49997
 Alpha  occ. eigenvalues --   -0.49358  -0.48588  -0.48252  -0.48046  -0.47709
 Alpha  occ. eigenvalues --   -0.47361  -0.46953  -0.46514  -0.46373  -0.46165
 Alpha  occ. eigenvalues --   -0.45765  -0.45442  -0.44893  -0.44435  -0.44334
 Alpha  occ. eigenvalues --   -0.43810  -0.43652  -0.43256  -0.42797  -0.42661
 Alpha  occ. eigenvalues --   -0.42598  -0.42164  -0.41809  -0.41700  -0.41384
 Alpha  occ. eigenvalues --   -0.41251  -0.40951  -0.40745  -0.40490  -0.40202
 Alpha  occ. eigenvalues --   -0.40014  -0.39548  -0.39370  -0.38823  -0.38533
 Alpha  occ. eigenvalues --   -0.38316  -0.37739  -0.37683  -0.37511  -0.37072
 Alpha  occ. eigenvalues --   -0.36682  -0.36038  -0.35129  -0.34939  -0.34063
 Alpha  occ. eigenvalues --   -0.33950  -0.33601  -0.33060  -0.32174  -0.31559
 Alpha  occ. eigenvalues --   -0.31053  -0.30596  -0.29427  -0.28842  -0.27692
 Alpha  occ. eigenvalues --   -0.27005  -0.26219  -0.25671  -0.25305  -0.24488
 Alpha  occ. eigenvalues --   -0.24217  -0.23478  -0.22968  -0.22193  -0.19087
 Alpha virt. eigenvalues --   -0.10646  -0.07130  -0.06893  -0.02443  -0.00350
 Alpha virt. eigenvalues --    0.00401   0.01401   0.01793   0.02041   0.02312
 Alpha virt. eigenvalues --    0.03162   0.03849   0.04458   0.04942   0.05448

 Mulliken charges:
               1
     1  O   -0.204324
     2  O   -0.107371
     3  O   -0.274085
     4  O   -0.240155
     5  O   -0.263540
     6  O   -0.232005
     7  N   -0.074272
     8  N   -0.259650
     9  N   -0.119961
    10  N   -0.313157
    11  C    0.117585
    12  C    0.355493
    13  C   -0.132288
    14  C   -0.160749
    15  C   -0.094908
    16  C    0.046651
    17  C   -0.193605
    18  C    0.192414
    19  C    0.047929
    20  C   -0.118199
    21  C    0.100216
    22  C    0.151751
    23  C   -0.184764
    24  C    0.164022
    25  C    0.061313
    26  C   -0.183653
    27  C   -0.085103
    28  C    0.063297
    29  C    0.314810
    30  C   -0.068629
    31  C    0.069905
    32  C    0.231279
    33  C   -0.200091
    34  C    0.112509
    35  C    0.122805
    36  C   -0.092115
    37  C    0.148061
    38  C    0.065805
    39  C   -0.150327
    40  C    0.166938
    41  C   -0.085347
    42  C    0.034713
    43  C    0.105994
    44  H   -0.020093
    45  H   -0.108196
    46  H   -0.011894
    47  H    0.150426
    48  H    0.176696
    49  H    0.028967
    50  H   -0.045360
    51  H    0.003166
    52  H   -0.015625
    53  H    0.008977
    54  H    0.022810
    55  H    0.035086
    56  H    0.063813
    57  H    0.028877
    58  H    0.101891
    59  H    0.008749
    60  H    0.223064
    61  H   -0.050924
    62  H   -0.037505
    63  H    0.028471
    64  H    0.075797
    65  H    0.004668
    66  H   -0.042101
    67  H    0.010605
    68  H    0.029909
    69  H    0.062459
    70  H    0.004738
    71  H    0.047745
    72  H    0.156496
    73  H   -0.032093
    74  H    0.039711
    75  H    0.009964
    76  H    0.040911
    77  H    0.188628
    78  H    0.021030
    79  H   -0.045060
 Sum of Mulliken charges =   0.00000

 Dipole moment (field-independent basis, Debye):
    X=             -0.0590    Y=              1.7215    Z=              2.7079  Tot=              3.2093
 Quadrupole moment (field-independent basis, Debye-Ang):
   XX=           -219.6022   YY=           -244.2276   ZZ=           -264.9251
   XY=            -15.5510   XZ=             33.9504   YZ=             -3.1072

 Normal termination of Gaussian 09 at Wed Jul 10 03:21:34 2019.
