 Gaussian 09, Revision D.01,
 Gaussian 09:  ES64L-G09RevD.01 24-Apr-2013

 --------------------------
 # td=(NStates=1) B3LYP/SVP
 --------------------------

 --
 TD
 --
 Symbolic Z-matrix:
 Charge =  0 Multiplicity = 1

                         Standard orientation:
 ---------------------------------------------------------------------
 Center     Atomic      Atomic             Coordinates (Angstroms)
 Number     Number       Type             X           Y           Z
 ---------------------------------------------------------------------
      1          8           0        5.223635   -0.171533   -3.292334
      2          8           0       -2.829599   -3.274932    2.919553
      3          8           0       -3.382827   -1.030976    3.109642
      4          8           0       -1.445525    7.206439    1.601350
      5          8           0       -0.897832    7.130303   -0.693522
      6          8           0       -1.643240   -4.018973   -0.336895
      7          7           0        2.447431    0.928165    0.750585
      8          7           0        4.368124   -0.544646   -1.264334
      9          7           0       -1.934390    0.613829   -0.305751
     10          7           0       -2.649116   -1.901423   -0.489706
     11          6           0        4.844110   -1.159896   -0.073315
     12          6           0        4.486250   -0.244650    1.134369
     13          6           0        2.999165    0.003019    1.441604
     14          6           0        2.008012   -0.739074    2.136283
     15          6           0        0.778882   -0.083174    1.895187
     16          6           0        0.996836    0.895905    0.858955
     17          6           0        6.381238   -1.220545   -0.214480
     18          6           0       -0.521904   -0.328456    2.593939
     19          6           0        6.676439   -0.825032   -1.416695
     20          6           0        0.208970    1.890682    0.192711
     21          6           0       -1.207639    1.751753   -0.199591
     22          6           0        5.343272   -0.473732   -2.186572
     23          6           0       -1.848727    2.839629   -0.819721
     24          6           0        2.347415   -1.699878    3.273154
     25          6           0        7.154210   -1.792412    0.899152
     26          6           0       -3.088801    2.368162   -1.181997
     27          6           0       -1.078729   -1.684480    2.462374
     28          6           0       -3.067341    0.929974   -0.874890
     29          6           0       -1.473214    4.341303   -1.028924
     30          6           0        8.007933   -0.703642   -2.156405
     31          6           0       -1.800183    5.081383    0.348886
     32          6           0       -4.335351    3.044408   -1.698211
     33          6           0       -4.047736   -0.059645   -1.107867
     34          6           0       -2.505498   -1.910725    2.829276
     35          6           0       -3.804474   -1.400220   -0.923191
     36          6           0        9.226540   -0.872092   -1.506801
     37          6           0       -1.364324    6.599487    0.324123
     38          6           0       -4.636868   -2.458823   -1.405676
     39          6           0       -4.045648   -3.660769   -1.155012
     40          6           0       -2.629291   -3.208858   -0.669887
     41          6           0       -6.086472   -2.228181   -1.902595
     42          6           0       -4.440941   -5.104019   -1.223688
     43          6           0       -6.795010   -3.216450   -2.491816
     44          1           0        4.492419   -2.040187    0.206286
     45          1           0        5.063701    0.722259    0.988846
     46          1           0        4.855243   -0.672294    1.936767
     47          1           0        2.899230    1.486952    0.050016
     48          1           0        3.353463   -0.964388   -1.588709
     49          1           0       -0.560952    0.098640    3.483735
     50          1           0       -1.335693    0.370920    2.050028
     51          1           0        0.766360    2.798730    0.215669
     52          1           0        3.448284   -1.538326    3.601442
     53          1           0        1.790588   -1.398946    4.080070
     54          1           0        2.084335   -2.786122    2.755198
     55          1           0        6.567213   -2.454056    1.609193
     56          1           0        7.598547   -1.136618    1.580974
     57          1           0        7.989175   -2.371514    0.694831
     58          1           0       -1.112147   -2.017784    1.427708
     59          1           0       -0.611254   -2.424705    3.173686
     60          1           0       -1.763080   -0.495841   -0.158939
     61          1           0       -2.085125    4.825394   -1.848651
     62          1           0       -0.504519    4.299524   -1.263068
     63          1           0        8.059476   -0.534686   -3.165824
     64          1           0       -1.364731    4.707843    1.248123
     65          1           0       -2.745338    5.008964    0.636221
     66          1           0       -3.955125    3.985342   -2.037666
     67          1           0       -5.098307    3.317557   -0.812218
     68          1           0       -4.759689    2.445507   -2.406358
     69          1           0       -5.134423    0.105642   -1.482642
     70          1           0        9.180237   -0.986998   -0.390856
     71          1           0       10.263714   -0.659604   -2.039093
     72          1           0       -3.798619   -3.287878    3.109953
     73          1           0       -6.285759   -1.277014   -1.953890
     74          1           0       -4.687692   -5.589358   -2.359430
     75          1           0       -3.532827   -5.721554   -0.811584
     76          1           0       -5.423198   -5.276442   -0.933564
     77          1           0       -1.065183    8.162085    1.420725
     78          1           0       -7.682497   -2.828174   -2.962577
     79          1           0       -6.813785   -4.292670   -2.268393
 ---------------------------------------------------------------------

 SCF Done:  E(RB3LYP) =  -1947.80720163     A.U. after   24 cycles

 Excitation energies and oscillator strengths:

 Excited State   1:      Singlet-A      2.1336 eV  581.09 nm  f=0.5158  <S**2>=0.000
     153 ->156        -0.13346
     154 ->156         0.15240
     155 ->156         0.68270
     155 <-156        -0.13613
 This state for optimization and/or second-order correction.
 Total Energy, E(TD-HF/TD-KS) =  -1947.72879201
 Copying the excited state density for this state as the 1-particle RhoCI density.

 The electronic state is 1-A.
 Alpha  occ. eigenvalues --  -19.19835 -19.16535 -19.14540 -19.11253 -19.11235
 Alpha  occ. eigenvalues --  -19.08124 -14.39290 -14.36735 -14.36625 -14.28734
 Alpha  occ. eigenvalues --  -10.33859 -10.31132 -10.28935 -10.25370 -10.25041
 Alpha  occ. eigenvalues --  -10.24131 -10.24059 -10.24034 -10.23822 -10.23490
 Alpha  occ. eigenvalues --  -10.22075 -10.21967 -10.21926 -10.21464 -10.21447
 Alpha  occ. eigenvalues --  -10.21232 -10.21218 -10.21058 -10.20985 -10.20884
 Alpha  occ. eigenvalues --  -10.20781 -10.20677 -10.20128 -10.20076 -10.19798
 Alpha  occ. eigenvalues --  -10.19619 -10.19352 -10.19286 -10.19266 -10.19209
 Alpha  occ. eigenvalues --  -10.19145 -10.18813 -10.18655  -1.07640  -1.06984
 Alpha  occ. eigenvalues --   -1.05339  -1.00714  -1.00489  -1.00245  -0.96915
 Alpha  occ. eigenvalues --   -0.96305  -0.96141  -0.90892  -0.83146  -0.83050
 Alpha  occ. eigenvalues --   -0.82818  -0.81144  -0.79584  -0.79331  -0.78166
 Alpha  occ. eigenvalues --   -0.77955  -0.77284  -0.75584  -0.74196  -0.73179
 Alpha  occ. eigenvalues --   -0.72563  -0.71561  -0.69926  -0.69124  -0.68755
 Alpha  occ. eigenvalues --   -0.68314  -0.66705  -0.63855  -0.60487  -0.60402
 Alpha  occ. eigenvalues --   -0.59609  -0.59187  -0.58606  -0.58258  -0.57380
 Alpha  occ. eigenvalues --   -0.57084  -0.56036  -0.55855  -0.55224  -0.53867
 Alpha  occ. eigenvalues --   -0.53391  -0.52523  -0.51295  -0.50240  -0.49916
 Alpha  occ. eigenvalues --   -0.49256  -0.48840  -0.48472  -0.47938  -0.47864
 Alpha  occ. eigenvalues --   -0.47537  -0.46638  -0.46475  -0.46200  -0.45769
 Alpha  occ. eigenvalues --   -0.45250  -0.44853  -0.44642  -0.44128  -0.43976
 Alpha  occ. eigenvalues --   -0.43749  -0.43439  -0.43241  -0.43103  -0.42953
 Alpha  occ. eigenvalues --   -0.42653  -0.42388  -0.42095  -0.41785  -0.41494
 Alpha  occ. eigenvalues --   -0.41198  -0.40964  -0.40758  -0.40627  -0.40369
 Alpha  occ. eigenvalues --   -0.39751  -0.39612  -0.39171  -0.39118  -0.38611
 Alpha  occ. eigenvalues --   -0.38346  -0.37852  -0.37464  -0.37372  -0.37074
 Alpha  occ. eigenvalues --   -0.36782  -0.35825  -0.35352  -0.35121  -0.35026
 Alpha  occ. eigenvalues --   -0.33759  -0.33283  -0.32544  -0.32322  -0.32155
 Alpha  occ. eigenvalues --   -0.30314  -0.29836  -0.29327  -0.28696  -0.27822
 Alpha  occ. eigenvalues --   -0.26951  -0.26660  -0.26361  -0.26121  -0.25552
 Alpha  occ. eigenvalues --   -0.25112  -0.23639  -0.22367  -0.21852  -0.18848
 Alpha virt. eigenvalues --   -0.11000  -0.06035  -0.05496  -0.01746  -0.00961
 Alpha virt. eigenvalues --    0.00011   0.00518   0.01071   0.02123   0.02517
 Alpha virt. eigenvalues --    0.03599   0.03998   0.04325   0.04580   0.05232

 Mulliken charges:
               1
     1  O   -0.130422
     2  O   -0.222569
     3  O   -0.291978
     4  O   -0.259009
     5  O   -0.242912
     6  O   -0.325873
     7  N   -0.016283
     8  N   -0.195481
     9  N   -0.050145
    10  N   -0.249376
    11  C    0.126968
    12  C    0.219828
    13  C   -0.095948
    14  C   -0.174008
    15  C   -0.065398
    16  C    0.037216
    17  C   -0.133308
    18  C    0.121028
    19  C   -0.076593
    20  C   -0.079192
    21  C    0.070219
    22  C    0.097389
    23  C   -0.140049
    24  C    0.059590
    25  C    0.127768
    26  C   -0.161992
    27  C    0.047920
    28  C    0.087481
    29  C    0.205563
    30  C    0.026700
    31  C    0.060766
    32  C    0.159290
    33  C   -0.145858
    34  C    0.144079
    35  C    0.076743
    36  C   -0.066190
    37  C    0.179121
    38  C   -0.038853
    39  C   -0.157335
    40  C    0.147966
    41  C    0.090396
    42  C    0.037215
    43  C   -0.009672
    44  H   -0.038146
    45  H   -0.001791
    46  H   -0.075224
    47  H    0.112529
    48  H    0.182731
    49  H   -0.035184
    50  H    0.019277
    51  H    0.000429
    52  H    0.025425
    53  H    0.009053
    54  H    0.075243
    55  H    0.014669
    56  H    0.009072
    57  H    0.006542
    58  H    0.069430
    59  H    0.036572
    60  H    0.208617
    61  H    0.041771
    62  H   -0.024035
    63  H   -0.021613
    64  H    0.018332
    65  H   -0.012475
    66  H   -0.011637
    67  H    0.048512
    68  H    0.011149
    69  H    0.008187
    70  H    0.017612
    71  H    0.057832
    72  H    0.188323
    73  H   -0.089683
    74  H    0.024672
    75  H    0.069098
    76  H    0.005372
    77  H    0.215437
    78  H    0.010120
    79  H    0.028984
 Sum of Mulliken charges =   0.00000

 Dipole moment (field-independent basis, Debye):
    X=              3.2844    Y=              3.8389    Z=              3.6214  Tot=              6.2160
 Quadrupole moment (field-independent basis, Debye-Ang):
   XX=           -215.1236   YY=           -253.0029   ZZ=           -265.0811
   XY=             -9.3054   XZ=             29.5269   YZ=              3.5934

 Normal termination of Gaussian 09 at Sun Jul  7 22:47:55 2019.
