 Gaussian 09, Revision D.01,
 Gaussian 09:  ES64L-G09RevD.01 24-Apr-2013

 --------------------------
 # td=(NStates=1) B3LYP/SVP
 --------------------------

 --
 TD
 --
 Symbolic Z-matrix:
 Charge =  0 Multiplicity = 1

                         Standard orientation:
 ---------------------------------------------------------------------
 Center     Atomic      Atomic             Coordinates (Angstroms)
 Number     Number       Type             X           Y           Z
 ---------------------------------------------------------------------
      1          8           0        5.346388   -0.540979   -3.404349
      2          8           0       -2.868801   -3.055422    3.306224
      3          8           0       -3.116744   -0.790638    3.159684
      4          8           0       -0.944564    7.192733    1.565318
      5          8           0        0.008892    6.806931   -0.475200
      6          8           0       -2.286552   -4.000129   -0.161941
      7          7           0        2.386485    0.796582    0.507155
      8          7           0        4.416263   -0.867060   -1.216252
      9          7           0       -1.880282    0.734569   -0.350753
     10          7           0       -2.879625   -1.762334   -0.530836
     11          6           0        4.832546   -1.445799   -0.014444
     12          6           0        4.511061   -0.428980    1.163445
     13          6           0        2.955152   -0.153007    1.326065
     14          6           0        2.021760   -0.648187    2.052495
     15          6           0        0.741674   -0.090626    1.741535
     16          6           0        1.043511    0.844478    0.705327
     17          6           0        6.419054   -1.451851   -0.214150
     18          6           0       -0.551079   -0.412503    2.473564
     19          6           0        6.708269   -1.049787   -1.405292
     20          6           0        0.239819    1.863014    0.112094
     21          6           0       -1.054726    1.856710   -0.223163
     22          6           0        5.465667   -0.780198   -2.209799
     23          6           0       -1.859897    2.903546   -0.758021
     24          6           0        2.194036   -1.769100    3.157410
     25          6           0        7.208306   -2.031426    0.826573
     26          6           0       -3.024806    2.516813   -1.125216
     27          6           0       -0.988747   -1.817446    2.455513
     28          6           0       -3.038332    1.067851   -0.887850
     29          6           0       -1.434297    4.370185   -0.826060
     30          6           0        8.025577   -0.957293   -2.122478
     31          6           0       -1.464827    5.122266    0.476245
     32          6           0       -4.238270    3.320764   -1.670093
     33          6           0       -4.087043    0.155222   -1.286845
     34          6           0       -2.461766   -1.772525    3.021701
     35          6           0       -3.924786   -1.253899   -1.172479
     36          6           0        9.166537   -0.927213   -1.551145
     37          6           0       -0.739492    6.426459    0.387876
     38          6           0       -5.073590   -2.260786   -1.515621
     39          6           0       -4.510902   -3.456889   -1.063275
     40          6           0       -3.085783   -3.125025   -0.493573
     41          6           0       -6.374969   -1.951794   -2.102717
     42          6           0       -4.907332   -4.819832   -1.156032
     43          6           0       -7.253100   -2.809145   -2.485464
     44          1           0        4.438345   -2.326192    0.243267
     45          1           0        5.080961    0.481743    1.222579
     46          1           0        4.790600   -0.880954    2.057807
     47          1           0        2.853944    1.300971   -0.330632
     48          1           0        3.441415   -1.015863   -1.601342
     49          1           0       -0.435232   -0.259996    3.598951
     50          1           0       -1.318475    0.396194    2.146264
     51          1           0        0.572441    2.691829   -0.163322
     52          1           0        3.167265   -1.800515    3.635835
     53          1           0        1.550418   -1.279390    3.870930
     54          1           0        1.755805   -2.836575    2.980071
     55          1           0        6.879394   -2.631786    1.624637
     56          1           0        7.848306   -1.255901    1.417479
     57          1           0        8.147186   -2.556083    0.469706
     58          1           0       -0.971520   -2.321653    1.489920
     59          1           0       -0.415731   -2.458410    3.117861
     60          1           0       -1.632134   -0.320774   -0.315069
     61          1           0       -2.048275    4.643536   -1.682278
     62          1           0       -0.422385    4.432004   -1.258799
     63          1           0        8.020112   -1.004644   -3.175946
     64          1           0       -0.881821    4.516505    1.241602
     65          1           0       -2.374937    5.280875    1.074682
     66          1           0       -3.741489    4.278788   -1.934308
     67          1           0       -5.029871    3.558473   -0.866672
     68          1           0       -4.630225    2.698091   -2.437588
     69          1           0       -4.861674    0.783025   -1.750126
     70          1           0        9.522696   -0.960791   -0.508216
     71          1           0        9.961572   -0.570099   -2.399439
     72          1           0       -3.807284   -2.934948    3.444349
     73          1           0       -6.562108   -0.847208   -2.143458
     74          1           0       -4.962243   -5.190276   -2.135638
     75          1           0       -4.219133   -5.447355   -0.536982
     76          1           0       -5.970106   -5.088557   -0.779529
     77          1           0       -0.452426    7.944132    1.274023
     78          1           0       -8.178513   -2.510144   -2.981442
     79          1           0       -7.279060   -3.924312   -2.389027
 ---------------------------------------------------------------------

 SCF Done:  E(RB3LYP) =  -1947.90147682     A.U. after   16 cycles

 Excitation energies and oscillator strengths:

 Excited State   1:      Singlet-A      2.3661 eV  524.01 nm  f=0.4659  <S**2>=0.000
     154 ->156         0.15421
     155 ->156         0.68566
 This state for optimization and/or second-order correction.
 Total Energy, E(TD-HF/TD-KS) =  -1947.81452586
 Copying the excited state density for this state as the 1-particle RhoCI density.

 The electronic state is 1-A.
 Alpha  occ. eigenvalues --  -19.18060 -19.16814 -19.14850 -19.12509 -19.11613
 Alpha  occ. eigenvalues --  -19.09946 -14.37959 -14.36606 -14.35462 -14.29343
 Alpha  occ. eigenvalues --  -10.33327 -10.30886 -10.29536 -10.26289 -10.24380
 Alpha  occ. eigenvalues --  -10.24375 -10.23905 -10.23530 -10.22909 -10.22603
 Alpha  occ. eigenvalues --  -10.22041 -10.21868 -10.21412 -10.21254 -10.21213
 Alpha  occ. eigenvalues --  -10.21001 -10.20255 -10.20125 -10.20050 -10.20008
 Alpha  occ. eigenvalues --  -10.19987 -10.19958 -10.19909 -10.19736 -10.19604
 Alpha  occ. eigenvalues --  -10.19404 -10.19321 -10.19157 -10.18987 -10.18744
 Alpha  occ. eigenvalues --  -10.18437 -10.18076 -10.17747  -1.10081  -1.08691
 Alpha  occ. eigenvalues --   -1.02642  -1.01688  -1.00759  -1.00391  -0.99638
 Alpha  occ. eigenvalues --   -0.98770  -0.94524  -0.91686  -0.84322  -0.83318
 Alpha  occ. eigenvalues --   -0.82474  -0.81008  -0.80441  -0.79403  -0.78857
 Alpha  occ. eigenvalues --   -0.77806  -0.76369  -0.76152  -0.75214  -0.72895
 Alpha  occ. eigenvalues --   -0.72200  -0.70964  -0.69514  -0.69411  -0.68960
 Alpha  occ. eigenvalues --   -0.66031  -0.65914  -0.63991  -0.60808  -0.60107
 Alpha  occ. eigenvalues --   -0.59358  -0.59074  -0.58487  -0.58007  -0.57469
 Alpha  occ. eigenvalues --   -0.56031  -0.55443  -0.54847  -0.54239  -0.53232
 Alpha  occ. eigenvalues --   -0.52888  -0.52236  -0.51872  -0.50731  -0.49830
 Alpha  occ. eigenvalues --   -0.49526  -0.48850  -0.48303  -0.47845  -0.47773
 Alpha  occ. eigenvalues --   -0.47401  -0.47283  -0.47173  -0.46439  -0.46190
 Alpha  occ. eigenvalues --   -0.45827  -0.45200  -0.45013  -0.44643  -0.44364
 Alpha  occ. eigenvalues --   -0.43562  -0.43403  -0.43214  -0.42890  -0.42516
 Alpha  occ. eigenvalues --   -0.42384  -0.42091  -0.41867  -0.41710  -0.41365
 Alpha  occ. eigenvalues --   -0.41322  -0.40677  -0.40615  -0.40145  -0.39921
 Alpha  occ. eigenvalues --   -0.39599  -0.39401  -0.39301  -0.39164  -0.38845
 Alpha  occ. eigenvalues --   -0.38489  -0.37811  -0.37518  -0.37289  -0.36981
 Alpha  occ. eigenvalues --   -0.35988  -0.35635  -0.35139  -0.34447  -0.34068
 Alpha  occ. eigenvalues --   -0.33870  -0.33480  -0.33362  -0.32503  -0.31705
 Alpha  occ. eigenvalues --   -0.31617  -0.31542  -0.30183  -0.29496  -0.27828
 Alpha  occ. eigenvalues --   -0.27735  -0.27616  -0.27333  -0.26262  -0.25599
 Alpha  occ. eigenvalues --   -0.24735  -0.23921  -0.23451  -0.22086  -0.19367
 Alpha virt. eigenvalues --   -0.09996  -0.05509  -0.05058  -0.01680  -0.00002
 Alpha virt. eigenvalues --    0.00907   0.01902   0.02833   0.03420   0.03491
 Alpha virt. eigenvalues --    0.04116   0.04635   0.05643   0.05879   0.06171

 Mulliken charges:
               1
     1  O   -0.210562
     2  O   -0.181651
     3  O   -0.199131
     4  O   -0.209710
     5  O   -0.208786
     6  O   -0.220726
     7  N   -0.093849
     8  N   -0.244074
     9  N   -0.064472
    10  N   -0.260341
    11  C    0.156099
    12  C    0.240950
    13  C   -0.113128
    14  C   -0.122268
    15  C   -0.065401
    16  C    0.071899
    17  C   -0.135135
    18  C    0.032350
    19  C   -0.020443
    20  C    0.028136
    21  C    0.061233
    22  C    0.168681
    23  C   -0.099845
    24  C    0.073250
    25  C    0.052572
    26  C   -0.146281
    27  C    0.004700
    28  C   -0.018838
    29  C    0.118559
    30  C    0.043743
    31  C    0.046297
    32  C    0.122158
    33  C   -0.085407
    34  C    0.134345
    35  C    0.115164
    36  C   -0.072287
    37  C    0.134124
    38  C    0.030671
    39  C   -0.206926
    40  C    0.157642
    41  C    0.034110
    42  C    0.067287
    43  C   -0.049007
    44  H   -0.025823
    45  H   -0.011807
    46  H   -0.047319
    47  H    0.149277
    48  H    0.142842
    49  H    0.009100
    50  H    0.044975
    51  H   -0.150965
    52  H   -0.000440
    53  H    0.004162
    54  H    0.060668
    55  H    0.010260
    56  H    0.027681
    57  H    0.025852
    58  H    0.055562
    59  H    0.013581
    60  H    0.182456
    61  H    0.004797
    62  H    0.014390
    63  H    0.003083
    64  H    0.053020
    65  H    0.036625
    66  H    0.010645
    67  H    0.051768
    68  H    0.036133
    69  H   -0.039916
    70  H    0.019199
    71  H    0.037850
    72  H    0.160136
    73  H   -0.000582
    74  H    0.016987
    75  H    0.031817
    76  H    0.019939
    77  H    0.154157
    78  H    0.013022
    79  H    0.021166
 Sum of Mulliken charges =   0.00000

 Dipole moment (field-independent basis, Debye):
    X=              1.4160    Y=              2.5864    Z=              2.5847  Tot=              3.9211
 Quadrupole moment (field-independent basis, Debye-Ang):
   XX=           -215.8476   YY=           -251.9204   ZZ=           -264.2116
   XY=            -12.4858   XZ=             31.4144   YZ=             -3.1114

 Normal termination of Gaussian 09 at Wed Jul 10 11:05:33 2019.
