 Gaussian 09, Revision D.01,
 Gaussian 09:  ES64L-G09RevD.01 24-Apr-2013

 --------------------------
 # td=(NStates=1) B3LYP/SVP
 --------------------------

 --
 TD
 --
 Symbolic Z-matrix:
 Charge =  0 Multiplicity = 1

                         Standard orientation:
 ---------------------------------------------------------------------
 Center     Atomic      Atomic             Coordinates (Angstroms)
 Number     Number       Type             X           Y           Z
 ---------------------------------------------------------------------
      1          8           0        5.475747   -0.257729   -3.361468
      2          8           0       -2.942168   -3.132308    3.078872
      3          8           0       -3.129784   -0.911687    3.350021
      4          8           0       -1.501767    7.186162    1.460688
      5          8           0       -0.479038    7.106987   -0.494261
      6          8           0       -1.851621   -3.981593   -0.240065
      7          7           0        2.356174    0.919854    0.614892
      8          7           0        4.442726   -0.497299   -1.314531
      9          7           0       -1.932019    0.614177   -0.368028
     10          7           0       -2.786301   -1.835410   -0.443339
     11          6           0        4.794843   -1.228404   -0.096014
     12          6           0        4.449481   -0.301233    1.102207
     13          6           0        2.947189   -0.116643    1.374320
     14          6           0        1.994381   -0.698939    2.219166
     15          6           0        0.805200   -0.051070    1.881355
     16          6           0        0.992868    0.912481    0.908453
     17          6           0        6.264042   -1.455535   -0.238171
     18          6           0       -0.575462   -0.313429    2.630326
     19          6           0        6.724827   -0.873874   -1.368945
     20          6           0        0.141157    1.913414    0.335378
     21          6           0       -1.141073    1.843538   -0.211405
     22          6           0        5.523890   -0.417001   -2.166922
     23          6           0       -1.969803    2.872292   -0.812150
     24          6           0        2.260325   -1.705028    3.228345
     25          6           0        7.176889   -1.988644    0.764362
     26          6           0       -3.108500    2.410159   -1.216816
     27          6           0       -1.115838   -1.836825    2.336285
     28          6           0       -3.105247    0.912506   -0.920777
     29          6           0       -1.462423    4.326383   -0.858485
     30          6           0        7.985945   -0.929884   -2.061805
     31          6           0       -1.596285    5.177239    0.327767
     32          6           0       -4.208365    3.180981   -1.829727
     33          6           0       -4.236137    0.051801   -1.196950
     34          6           0       -2.387580   -1.892773    2.950696
     35          6           0       -3.928932   -1.375045   -1.004232
     36          6           0        9.186977   -0.780798   -1.510630
     37          6           0       -1.056363    6.470522    0.343472
     38          6           0       -4.822346   -2.452912   -1.451362
     39          6           0       -4.156643   -3.652332   -1.089596
     40          6           0       -2.722412   -3.210753   -0.523902
     41          6           0       -6.119521   -2.187125   -2.062400
     42          6           0       -4.535638   -5.060042   -1.319385
     43          6           0       -6.842062   -3.223988   -2.593947
     44          1           0        4.219902   -2.167742    0.049619
     45          1           0        5.017361    0.643479    1.133341
     46          1           0        4.921051   -0.818353    2.095235
     47          1           0        2.666825    1.250300   -0.313829
     48          1           0        3.440747   -0.903290   -1.678305
     49          1           0       -0.349818   -0.265533    3.926902
     50          1           0       -1.337262    0.592395    2.391534
     51          1           0        0.514197    2.839859    0.197952
     52          1           0        3.473400   -1.512829    3.817007
     53          1           0        1.550850   -1.978540    4.166148
     54          1           0        2.259487   -2.820123    2.925844
     55          1           0        6.799295   -2.604750    1.614881
     56          1           0        7.575574   -1.288479    1.548134
     57          1           0        8.024235   -2.529028    0.372740
     58          1           0       -1.230665   -2.057780    1.269588
     59          1           0       -0.407304   -2.633629    2.781064
     60          1           0       -1.806077   -0.413931   -0.346259
     61          1           0       -2.028197    4.963062   -1.639836
     62          1           0       -0.442391    4.514679   -1.076701
     63          1           0        7.954003   -0.986368   -3.068584
     64          1           0       -1.001360    4.628419    1.220581
     65          1           0       -2.654182    5.255379    0.718554
     66          1           0       -3.956804    4.418111   -2.140359
     67          1           0       -5.183089    3.009375   -1.247414
     68          1           0       -4.629521    2.651449   -2.785262
     69          1           0       -5.104856    0.347618   -1.798429
     70          1           0        9.221616   -0.430805   -0.370523
     71          1           0       10.108302   -0.764240   -2.209002
     72          1           0       -3.876302   -2.861048    3.542319
     73          1           0       -6.474327   -1.139817   -2.128915
     74          1           0       -4.400562   -5.426074   -2.280464
     75          1           0       -3.979157   -5.589984   -0.461145
     76          1           0       -5.487609   -5.327373   -0.959555
     77          1           0       -1.182616    8.198076    1.513430
     78          1           0       -7.905727   -2.967588   -3.149832
     79          1           0       -6.388345   -4.227036   -2.614782
 ---------------------------------------------------------------------

 SCF Done:  E(RB3LYP) =  -1947.81630232     A.U. after   16 cycles

 Excitation energies and oscillator strengths:

 Excited State   1:      Singlet-A      2.2654 eV  547.28 nm  f=0.3806  <S**2>=0.000
     154 ->156         0.22183
     155 ->156         0.66748
 This state for optimization and/or second-order correction.
 Total Energy, E(TD-HF/TD-KS) =  -1947.73304875
 Copying the excited state density for this state as the 1-particle RhoCI density.

 The electronic state is 1-A.
 Alpha  occ. eigenvalues --  -19.17023 -19.16673 -19.12994 -19.11533 -19.10857
 Alpha  occ. eigenvalues --  -19.10343 -14.38206 -14.36992 -14.36382 -14.29813
 Alpha  occ. eigenvalues --  -10.32113 -10.30506 -10.28874 -10.27659 -10.26256
 Alpha  occ. eigenvalues --  -10.25671 -10.25361 -10.24619 -10.23870 -10.23323
 Alpha  occ. eigenvalues --  -10.23159 -10.22833 -10.22672 -10.22649 -10.22284
 Alpha  occ. eigenvalues --  -10.22147 -10.22138 -10.21580 -10.21541 -10.21349
 Alpha  occ. eigenvalues --  -10.20911 -10.20881 -10.20822 -10.20628 -10.20611
 Alpha  occ. eigenvalues --  -10.20406 -10.20399 -10.20227 -10.20098 -10.20051
 Alpha  occ. eigenvalues --  -10.19676 -10.19262 -10.18233  -1.08233  -1.05948
 Alpha  occ. eigenvalues --   -1.03695  -1.03183  -0.98528  -0.98414  -0.97807
 Alpha  occ. eigenvalues --   -0.94652  -0.94497  -0.92196  -0.84770  -0.83030
 Alpha  occ. eigenvalues --   -0.81493  -0.81136  -0.80913  -0.80137  -0.78898
 Alpha  occ. eigenvalues --   -0.77401  -0.76660  -0.75844  -0.74606  -0.72740
 Alpha  occ. eigenvalues --   -0.71586  -0.71150  -0.69863  -0.69019  -0.68698
 Alpha  occ. eigenvalues --   -0.65713  -0.65572  -0.63651  -0.61022  -0.60518
 Alpha  occ. eigenvalues --   -0.59303  -0.58493  -0.57989  -0.57044  -0.56542
 Alpha  occ. eigenvalues --   -0.55846  -0.55445  -0.54229  -0.53855  -0.52967
 Alpha  occ. eigenvalues --   -0.52613  -0.52199  -0.51633  -0.51093  -0.50232
 Alpha  occ. eigenvalues --   -0.48973  -0.48762  -0.48080  -0.47445  -0.47107
 Alpha  occ. eigenvalues --   -0.47048  -0.46723  -0.46528  -0.46090  -0.45959
 Alpha  occ. eigenvalues --   -0.45706  -0.45163  -0.44617  -0.44406  -0.43968
 Alpha  occ. eigenvalues --   -0.43749  -0.43548  -0.43284  -0.42765  -0.42336
 Alpha  occ. eigenvalues --   -0.42004  -0.41954  -0.41603  -0.41425  -0.41070
 Alpha  occ. eigenvalues --   -0.40600  -0.40033  -0.39678  -0.39522  -0.39483
 Alpha  occ. eigenvalues --   -0.39309  -0.38896  -0.38676  -0.38319  -0.38251
 Alpha  occ. eigenvalues --   -0.38033  -0.37709  -0.37380  -0.36887  -0.36139
 Alpha  occ. eigenvalues --   -0.35973  -0.35404  -0.35303  -0.35115  -0.34175
 Alpha  occ. eigenvalues --   -0.33885  -0.33534  -0.33001  -0.31805  -0.31658
 Alpha  occ. eigenvalues --   -0.31367  -0.29170  -0.28864  -0.28542  -0.28163
 Alpha  occ. eigenvalues --   -0.27944  -0.27367  -0.25925  -0.25684  -0.25370
 Alpha  occ. eigenvalues --   -0.24946  -0.24210  -0.23790  -0.22091  -0.20158
 Alpha virt. eigenvalues --   -0.10854  -0.06713  -0.05669  -0.01563  -0.01094
 Alpha virt. eigenvalues --   -0.00610  -0.00305   0.00157   0.01548   0.02009
 Alpha virt. eigenvalues --    0.02830   0.02910   0.03247   0.04351   0.04386

 Mulliken charges:
               1
     1  O   -0.201079
     2  O   -0.239900
     3  O   -0.329618
     4  O   -0.296286
     5  O   -0.203433
     6  O   -0.178199
     7  N   -0.118759
     8  N   -0.236732
     9  N   -0.081680
    10  N   -0.332803
    11  C    0.100125
    12  C    0.110050
    13  C   -0.058853
    14  C    0.020083
    15  C   -0.066584
    16  C    0.108269
    17  C   -0.097560
    18  C   -0.058726
    19  C   -0.064779
    20  C   -0.041671
    21  C    0.078280
    22  C    0.144328
    23  C   -0.003239
    24  C   -0.105100
    25  C    0.049967
    26  C   -0.094116
    27  C    0.043056
    28  C    0.066805
    29  C    0.094353
    30  C    0.022038
    31  C   -0.048593
    32  C    0.001375
    33  C   -0.082576
    34  C    0.164049
    35  C    0.079998
    36  C   -0.069767
    37  C    0.135440
    38  C    0.040395
    39  C   -0.246601
    40  C    0.175971
    41  C   -0.025117
    42  C    0.121427
    43  C   -0.052193
    44  H    0.027470
    45  H    0.009653
    46  H    0.002322
    47  H    0.139360
    48  H    0.171873
    49  H    0.037899
    50  H    0.072067
    51  H   -0.062970
    52  H    0.038023
    53  H    0.042439
    54  H    0.043579
    55  H   -0.003944
    56  H    0.029044
    57  H    0.035364
    58  H    0.081897
    59  H    0.045254
    60  H    0.150777
    61  H    0.015689
    62  H    0.001739
    63  H   -0.022850
    64  H    0.058653
    65  H    0.059121
    66  H    0.070446
    67  H    0.036709
    68  H    0.030353
    69  H   -0.007313
    70  H    0.047252
    71  H    0.045934
    72  H    0.221183
    73  H   -0.001025
    74  H    0.036172
    75  H    0.027364
    76  H    0.001636
    77  H    0.226850
    78  H    0.048338
    79  H    0.021594
 Sum of Mulliken charges =   0.00000

 Dipole moment (field-independent basis, Debye):
    X=              0.6427    Y=              1.1103    Z=              1.5351  Tot=              2.0006
 Quadrupole moment (field-independent basis, Debye-Ang):
   XX=           -222.4434   YY=           -251.1509   ZZ=           -266.7660
   XY=            -11.6367   XZ=             33.9050   YZ=              2.5299

 Normal termination of Gaussian 09 at Tue Jul  9 21:52:22 2019.
