 Gaussian 09, Revision D.01,
 Gaussian 09:  ES64L-G09RevD.01 24-Apr-2013

 --------------------------
 # td=(NStates=1) B3LYP/SVP
 --------------------------

 --
 TD
 --
 Symbolic Z-matrix:
 Charge =  0 Multiplicity = 1

                         Standard orientation:
 ---------------------------------------------------------------------
 Center     Atomic      Atomic             Coordinates (Angstroms)
 Number     Number       Type             X           Y           Z
 ---------------------------------------------------------------------
      1          8           0        5.267597   -0.137271   -3.307374
      2          8           0       -2.771115   -3.152750    3.215097
      3          8           0       -3.211280   -1.003274    3.308131
      4          8           0       -2.037807    7.198096    1.394288
      5          8           0       -0.575046    6.858307   -0.332318
      6          8           0       -1.777722   -3.967043   -0.018139
      7          7           0        2.343181    0.955357    0.519376
      8          7           0        4.462634   -0.490163   -1.199365
      9          7           0       -1.883250    0.689879   -0.412748
     10          7           0       -2.596082   -1.898432   -0.590708
     11          6           0        4.929884   -1.045331    0.052313
     12          6           0        4.464786   -0.094120    1.234509
     13          6           0        2.972117    0.077754    1.348794
     14          6           0        2.009129   -0.630813    2.149969
     15          6           0        0.685082    0.054391    1.881908
     16          6           0        0.953879    0.943462    0.853265
     17          6           0        6.365281   -1.183467   -0.177994
     18          6           0       -0.617535   -0.289609    2.574127
     19          6           0        6.713136   -0.697171   -1.395757
     20          6           0        0.189493    1.890115    0.126221
     21          6           0       -1.152998    1.866347   -0.248635
     22          6           0        5.469878   -0.395619   -2.110403
     23          6           0       -1.985713    2.896261   -0.833245
     24          6           0        2.221559   -1.566262    3.335564
     25          6           0        7.366241   -1.734450    0.916570
     26          6           0       -3.180439    2.324244   -1.315708
     27          6           0       -1.105593   -1.767567    2.578769
     28          6           0       -3.106933    0.913024   -1.038201
     29          6           0       -1.609254    4.401213   -0.929929
     30          6           0        8.019508   -0.783880   -2.193595
     31          6           0       -2.130687    5.123551    0.371376
     32          6           0       -4.272067    2.986257   -1.998164
     33          6           0       -3.979073   -0.134549   -1.312728
     34          6           0       -2.453821   -1.833421    3.071938
     35          6           0       -3.642835   -1.501252   -1.146963
     36          6           0        9.221654   -0.868810   -1.544743
     37          6           0       -1.465103    6.423395    0.373874
     38          6           0       -4.631164   -2.606669   -1.561236
     39          6           0       -3.909637   -3.763115   -1.230559
     40          6           0       -2.612764   -3.297260   -0.632596
     41          6           0       -5.869423   -2.478729   -2.162640
     42          6           0       -4.169455   -5.262064   -1.255820
     43          6           0       -6.806005   -3.439376   -2.314421
     44          1           0        4.300161   -1.962511    0.239540
     45          1           0        5.011151    0.824268    1.052475
     46          1           0        4.754909   -0.493695    2.305082
     47          1           0        2.668197    1.340354   -0.377866
     48          1           0        3.473337   -0.507580   -1.768478
     49          1           0       -0.562661   -0.028757    3.646443
     50          1           0       -1.389505    0.406471    2.243905
     51          1           0        0.681717    2.955675    0.244900
     52          1           0        3.338206   -1.834034    3.512432
     53          1           0        1.875087   -1.087733    4.310904
     54          1           0        1.629857   -2.593943    3.196517
     55          1           0        6.841146   -2.018998    1.931220
     56          1           0        8.109059   -0.772850    1.172356
     57          1           0        7.888800   -2.514012    0.227414
     58          1           0       -1.036046   -2.308053    1.660549
     59          1           0       -0.435303   -2.442919    3.099991
     60          1           0       -1.752075   -0.208875   -0.190573
     61          1           0       -2.191105    4.868333   -1.661410
     62          1           0       -0.605078    4.562879   -1.145754
     63          1           0        7.795756   -0.628772   -3.242272
     64          1           0       -1.828564    4.672824    1.352057
     65          1           0       -3.197925    5.347072    0.455377
     66          1           0       -4.090150    4.042675   -2.013831
     67          1           0       -5.316246    2.789847   -1.422219
     68          1           0       -4.476779    2.618443   -3.109167
     69          1           0       -4.899438    0.016501   -1.737558
     70          1           0        9.226736   -1.005988   -0.514170
     71          1           0       10.104146   -0.739015   -2.051107
     72          1           0       -3.618135   -3.221999    3.611006
     73          1           0       -5.918639   -1.330622   -2.816497
     74          1           0       -4.733240   -5.679514   -2.416981
     75          1           0       -3.144348   -5.892527   -0.852407
     76          1           0       -5.073509   -5.652931   -0.340092
     77          1           0       -1.737063    8.134588    1.238911
     78          1           0       -7.697115   -3.204424   -3.110339
     79          1           0       -6.724505   -4.774059   -1.818894
 ---------------------------------------------------------------------

 SCF Done:  E(RB3LYP) =  -1947.81135251     A.U. after   17 cycles

 Excitation energies and oscillator strengths:

 Excited State   1:      Singlet-A      2.0524 eV  604.08 nm  f=0.4503  <S**2>=0.000
     155 ->156         0.69763
     155 <-156        -0.10296
 This state for optimization and/or second-order correction.
 Total Energy, E(TD-HF/TD-KS) =  -1947.73592640
 Copying the excited state density for this state as the 1-particle RhoCI density.

 The electronic state is 1-A.
 Alpha  occ. eigenvalues --  -19.17918 -19.14791 -19.14180 -19.11541 -19.11048
 Alpha  occ. eigenvalues --  -19.09305 -14.37854 -14.35747 -14.35427 -14.29125
 Alpha  occ. eigenvalues --  -10.32756 -10.29568 -10.27613 -10.27049 -10.25420
 Alpha  occ. eigenvalues --  -10.24889 -10.24537 -10.24263 -10.24072 -10.23626
 Alpha  occ. eigenvalues --  -10.23429 -10.23064 -10.22718 -10.22600 -10.22289
 Alpha  occ. eigenvalues --  -10.22274 -10.22196 -10.22057 -10.22005 -10.21694
 Alpha  occ. eigenvalues --  -10.21528 -10.21109 -10.21056 -10.21000 -10.20884
 Alpha  occ. eigenvalues --  -10.20766 -10.20470 -10.20179 -10.20146 -10.19470
 Alpha  occ. eigenvalues --  -10.19133 -10.18209 -10.17842  -1.09804  -1.08682
 Alpha  occ. eigenvalues --   -1.01623  -1.01598  -1.00685  -1.00512  -0.98154
 Alpha  occ. eigenvalues --   -0.97272  -0.94061  -0.93984  -0.83134  -0.81713
 Alpha  occ. eigenvalues --   -0.81490  -0.81189  -0.80369  -0.79583  -0.78806
 Alpha  occ. eigenvalues --   -0.76807  -0.76601  -0.75176  -0.74065  -0.72914
 Alpha  occ. eigenvalues --   -0.71130  -0.70524  -0.69645  -0.68867  -0.67878
 Alpha  occ. eigenvalues --   -0.67449  -0.65844  -0.63273  -0.61037  -0.60271
 Alpha  occ. eigenvalues --   -0.59062  -0.58496  -0.57905  -0.56977  -0.56553
 Alpha  occ. eigenvalues --   -0.56384  -0.55822  -0.55315  -0.54175  -0.52819
 Alpha  occ. eigenvalues --   -0.51876  -0.51280  -0.51084  -0.50508  -0.50474
 Alpha  occ. eigenvalues --   -0.50078  -0.48462  -0.48218  -0.47727  -0.47437
 Alpha  occ. eigenvalues --   -0.46962  -0.46668  -0.46481  -0.46027  -0.45019
 Alpha  occ. eigenvalues --   -0.44812  -0.44508  -0.44043  -0.43567  -0.43416
 Alpha  occ. eigenvalues --   -0.43064  -0.42493  -0.42283  -0.42168  -0.41745
 Alpha  occ. eigenvalues --   -0.41580  -0.41347  -0.41059  -0.40961  -0.40832
 Alpha  occ. eigenvalues --   -0.40601  -0.40222  -0.40082  -0.39794  -0.39470
 Alpha  occ. eigenvalues --   -0.39346  -0.39269  -0.38817  -0.38357  -0.37944
 Alpha  occ. eigenvalues --   -0.37897  -0.37740  -0.37189  -0.37171  -0.37070
 Alpha  occ. eigenvalues --   -0.36653  -0.36006  -0.35935  -0.35454  -0.34639
 Alpha  occ. eigenvalues --   -0.34517  -0.32931  -0.32673  -0.32305  -0.31398
 Alpha  occ. eigenvalues --   -0.31241  -0.31206  -0.29515  -0.29132  -0.27877
 Alpha  occ. eigenvalues --   -0.27606  -0.25860  -0.25572  -0.25156  -0.24991
 Alpha  occ. eigenvalues --   -0.24921  -0.24337  -0.23313  -0.22571  -0.19259
 Alpha virt. eigenvalues --   -0.11141  -0.07358  -0.05984  -0.01303  -0.00974
 Alpha virt. eigenvalues --    0.00156   0.00517   0.00898   0.02358   0.02523
 Alpha virt. eigenvalues --    0.02934   0.03273   0.03450   0.03555   0.04661

 Mulliken charges:
               1
     1  O   -0.264179
     2  O   -0.187846
     3  O   -0.160898
     4  O   -0.246934
     5  O   -0.221624
     6  O   -0.206689
     7  N   -0.105630
     8  N   -0.258197
     9  N   -0.037453
    10  N   -0.179466
    11  C    0.116169
    12  C    0.159907
    13  C   -0.072192
    14  C   -0.124216
    15  C   -0.074072
    16  C    0.076338
    17  C   -0.158577
    18  C    0.112303
    19  C   -0.071437
    20  C   -0.136319
    21  C    0.110550
    22  C    0.123314
    23  C   -0.112584
    24  C   -0.007043
    25  C   -0.022200
    26  C   -0.087628
    27  C    0.041486
    28  C    0.119146
    29  C    0.181471
    30  C    0.007074
    31  C   -0.001229
    32  C    0.038594
    33  C   -0.068609
    34  C    0.085150
    35  C    0.029448
    36  C    0.046757
    37  C    0.130945
    38  C    0.039713
    39  C   -0.112483
    40  C    0.153242
    41  C   -0.063914
    42  C   -0.138987
    43  C   -0.144978
    44  H    0.027898
    45  H   -0.013196
    46  H    0.019989
    47  H    0.130238
    48  H    0.178825
    49  H   -0.002201
    50  H    0.004254
    51  H    0.038888
    52  H    0.014589
    53  H    0.040620
    54  H    0.058227
    55  H    0.051736
    56  H    0.077360
    57  H    0.082443
    58  H    0.040908
    59  H    0.001417
    60  H    0.067770
    61  H   -0.013654
    62  H    0.015732
    63  H    0.017113
    64  H    0.060080
    65  H    0.046443
    66  H    0.000957
    67  H    0.047014
    68  H    0.050816
    69  H   -0.087536
    70  H   -0.009895
    71  H    0.007909
    72  H    0.146643
    73  H    0.053333
    74  H    0.062416
    75  H    0.085886
    76  H    0.057310
    77  H    0.190097
    78  H    0.058233
    79  H    0.085116
 Sum of Mulliken charges =   0.00000

 Dipole moment (field-independent basis, Debye):
    X=             -0.2332    Y=              2.4563    Z=              2.5076  Tot=              3.5180
 Quadrupole moment (field-independent basis, Debye-Ang):
   XX=           -222.2127   YY=           -245.4429   ZZ=           -262.1302
   XY=            -13.4761   XZ=             33.3528   YZ=             -1.4099

 Normal termination of Gaussian 09 at Mon Jul  8 03:54:38 2019.
