 Gaussian 09, Revision D.01,
 Gaussian 09:  ES64L-G09RevD.01 24-Apr-2013

 --------------------------
 # td=(NStates=1) B3LYP/SVP
 --------------------------

 --
 TD
 --
 Symbolic Z-matrix:
 Charge =  0 Multiplicity = 1

                         Standard orientation:
 ---------------------------------------------------------------------
 Center     Atomic      Atomic             Coordinates (Angstroms)
 Number     Number       Type             X           Y           Z
 ---------------------------------------------------------------------
      1          8           0        5.232103   -0.094357   -3.318933
      2          8           0       -2.915221   -3.005911    3.338256
      3          8           0       -3.162195   -0.794862    3.404836
      4          8           0       -1.357885    7.323402    1.379116
      5          8           0       -0.163741    6.856040   -0.408060
      6          8           0       -2.148109   -4.009838    0.189152
      7          7           0        2.402002    0.953137    0.672270
      8          7           0        4.308296   -0.601907   -1.222414
      9          7           0       -1.934704    0.678005   -0.297534
     10          7           0       -2.709429   -1.789284   -0.424876
     11          6           0        4.741650   -1.296061    0.008685
     12          6           0        4.413009   -0.404823    1.186684
     13          6           0        2.909167   -0.013646    1.344723
     14          6           0        1.985616   -0.767279    2.124938
     15          6           0        0.739551   -0.137308    1.823341
     16          6           0        0.978852    0.945907    0.837585
     17          6           0        6.216573   -1.424883   -0.241755
     18          6           0       -0.572487   -0.347269    2.613509
     19          6           0        6.591012   -0.873771   -1.483778
     20          6           0        0.200908    1.907976    0.212292
     21          6           0       -1.144522    1.883261   -0.195122
     22          6           0        5.309356   -0.492732   -2.139567
     23          6           0       -1.890137    2.989838   -0.751877
     24          6           0        2.245524   -1.752267    3.182376
     25          6           0        7.053431   -2.091209    0.943987
     26          6           0       -2.991169    2.500801   -1.213955
     27          6           0       -1.164143   -1.782765    2.721949
     28          6           0       -3.087902    1.022125   -0.867101
     29          6           0       -1.353164    4.385989   -0.833945
     30          6           0        7.803016   -0.869306   -2.213786
     31          6           0       -1.777134    5.114263    0.459613
     32          6           0       -4.142676    3.219973   -1.865618
     33          6           0       -4.005689   -0.001814   -1.373351
     34          6           0       -2.547773   -1.743343    3.098446
     35          6           0       -3.721713   -1.394337   -1.083402
     36          6           0        9.102808   -1.085163   -1.739564
     37          6           0       -0.926836    6.502615    0.438804
     38          6           0       -4.621653   -2.518929   -1.627491
     39          6           0       -4.092530   -3.674949   -1.239834
     40          6           0       -2.848373   -3.178093   -0.425645
     41          6           0       -5.947758   -2.281843   -2.301073
     42          6           0       -4.528978   -5.078833   -1.385721
     43          6           0       -6.641377   -3.119156   -2.922784
     44          1           0        4.111070   -2.395152    0.002824
     45          1           0        4.861100    0.518896    1.187734
     46          1           0        4.859537   -1.018395    2.130335
     47          1           0        3.004666    1.458121   -0.006595
     48          1           0        3.340516   -0.409474   -1.431803
     49          1           0       -0.434706    0.071874    3.651325
     50          1           0       -1.402406    0.331643    2.193027
     51          1           0        0.863099    2.776217   -0.023782
     52          1           0        3.377011   -1.810551    3.443634
     53          1           0        1.553497   -1.736219    3.939192
     54          1           0        2.085000   -2.921234    2.892480
     55          1           0        6.351940   -2.970664    1.111632
     56          1           0        7.276343   -1.382237    1.702425
     57          1           0        7.892202   -2.457704    0.351358
     58          1           0       -0.842941   -2.535492    1.735476
     59          1           0       -0.463623   -2.430594    3.298251
     60          1           0       -1.600378   -0.327554   -0.267814
     61          1           0       -1.843185    4.838830   -1.863503
     62          1           0       -0.191744    4.437455   -1.066878
     63          1           0        7.703930   -0.493781   -3.053171
     64          1           0       -1.480998    4.489491    1.050081
     65          1           0       -2.818783    5.132276    0.471062
     66          1           0       -3.946048    4.389325   -1.850280
     67          1           0       -5.293117    2.900906   -1.600196
     68          1           0       -4.081824    2.879509   -3.025138
     69          1           0       -4.814407    0.468811   -1.875877
     70          1           0        9.232197   -1.394965   -0.613868
     71          1           0       10.119780   -0.974163   -2.506021
     72          1           0       -3.958028   -2.986740    3.252049
     73          1           0       -6.420998   -1.184327   -1.908179
     74          1           0       -4.533428   -5.480839   -2.428301
     75          1           0       -3.983752   -5.723436   -0.746160
     76          1           0       -5.539848   -4.935700   -0.806439
     77          1           0       -1.044768    8.171493    1.116654
     78          1           0       -7.735987   -2.975470   -3.464071
     79          1           0       -6.250456   -4.053411   -3.307894
 ---------------------------------------------------------------------

 SCF Done:  E(RB3LYP) =  -1947.75458724     A.U. after   17 cycles

 Excitation energies and oscillator strengths:

 Excited State   1:      Singlet-A      2.2956 eV  540.10 nm  f=0.5609  <S**2>=0.000
     155 ->156         0.70512
     155 <-156        -0.10949
 This state for optimization and/or second-order correction.
 Total Energy, E(TD-HF/TD-KS) =  -1947.67022674
 Copying the excited state density for this state as the 1-particle RhoCI density.

 The electronic state is 1-A.
 Alpha  occ. eigenvalues --  -19.19387 -19.16090 -19.14283 -19.11272 -19.10065
 Alpha  occ. eigenvalues --  -19.09794 -14.40480 -14.36656 -14.36205 -14.29730
 Alpha  occ. eigenvalues --  -10.33562 -10.29610 -10.28760 -10.27071 -10.26867
 Alpha  occ. eigenvalues --  -10.24519 -10.24311 -10.24028 -10.23903 -10.23387
 Alpha  occ. eigenvalues --  -10.23382 -10.23152 -10.22965 -10.22728 -10.22256
 Alpha  occ. eigenvalues --  -10.22093 -10.22071 -10.21237 -10.21067 -10.20909
 Alpha  occ. eigenvalues --  -10.20412 -10.20336 -10.20086 -10.20001 -10.19774
 Alpha  occ. eigenvalues --  -10.19668 -10.19437 -10.19366 -10.19264 -10.19252
 Alpha  occ. eigenvalues --  -10.19182 -10.19021 -10.18481  -1.12871  -1.08803
 Alpha  occ. eigenvalues --   -1.02886  -1.01583  -1.01010  -1.00056  -0.99977
 Alpha  occ. eigenvalues --   -0.97717  -0.94354  -0.93411  -0.84065  -0.82451
 Alpha  occ. eigenvalues --   -0.81765  -0.81377  -0.81042  -0.79238  -0.78660
 Alpha  occ. eigenvalues --   -0.76816  -0.76208  -0.75855  -0.74614  -0.72015
 Alpha  occ. eigenvalues --   -0.71806  -0.70921  -0.69473  -0.68758  -0.67497
 Alpha  occ. eigenvalues --   -0.66990  -0.65807  -0.63520  -0.62194  -0.61955
 Alpha  occ. eigenvalues --   -0.59540  -0.58853  -0.58230  -0.57722  -0.57029
 Alpha  occ. eigenvalues --   -0.56542  -0.55313  -0.54508  -0.54177  -0.53095
 Alpha  occ. eigenvalues --   -0.51921  -0.51438  -0.51037  -0.50839  -0.50466
 Alpha  occ. eigenvalues --   -0.50249  -0.49780  -0.48761  -0.48515  -0.48065
 Alpha  occ. eigenvalues --   -0.47291  -0.46938  -0.46607  -0.46238  -0.45767
 Alpha  occ. eigenvalues --   -0.45501  -0.44829  -0.44674  -0.44529  -0.44153
 Alpha  occ. eigenvalues --   -0.43712  -0.43452  -0.43242  -0.42929  -0.42579
 Alpha  occ. eigenvalues --   -0.42486  -0.42231  -0.41738  -0.41301  -0.40559
 Alpha  occ. eigenvalues --   -0.40089  -0.39956  -0.39814  -0.39564  -0.39503
 Alpha  occ. eigenvalues --   -0.39219  -0.38860  -0.38658  -0.38540  -0.38313
 Alpha  occ. eigenvalues --   -0.38082  -0.37798  -0.37573  -0.37159  -0.36809
 Alpha  occ. eigenvalues --   -0.36026  -0.35505  -0.35287  -0.34690  -0.33757
 Alpha  occ. eigenvalues --   -0.33572  -0.33289  -0.32474  -0.31881  -0.31395
 Alpha  occ. eigenvalues --   -0.30951  -0.30545  -0.30151  -0.29669  -0.28186
 Alpha  occ. eigenvalues --   -0.27369  -0.26819  -0.26713  -0.25410  -0.25175
 Alpha  occ. eigenvalues --   -0.24143  -0.23900  -0.23399  -0.23076  -0.18298
 Alpha virt. eigenvalues --   -0.09419  -0.07598  -0.05254  -0.00887  -0.00003
 Alpha virt. eigenvalues --    0.00248   0.01067   0.01552   0.02296   0.02571
 Alpha virt. eigenvalues --    0.02986   0.03421   0.04338   0.04579   0.04941

 Mulliken charges:
               1
     1  O   -0.259024
     2  O   -0.215901
     3  O   -0.185431
     4  O   -0.127737
     5  O   -0.206562
     6  O   -0.236025
     7  N   -0.023201
     8  N   -0.210208
     9  N   -0.096049
    10  N   -0.211791
    11  C    0.062206
    12  C    0.171848
    13  C   -0.150427
    14  C   -0.089761
    15  C   -0.072526
    16  C    0.061532
    17  C   -0.222450
    18  C    0.045058
    19  C   -0.012598
    20  C   -0.123591
    21  C    0.097851
    22  C    0.148780
    23  C   -0.046304
    24  C    0.074163
    25  C    0.099566
    26  C   -0.111494
    27  C   -0.116072
    28  C    0.055798
    29  C   -0.067840
    30  C    0.098664
    31  C    0.197417
    32  C   -0.039230
    33  C   -0.097698
    34  C    0.168889
    35  C    0.090261
    36  C   -0.102174
    37  C    0.131354
    38  C    0.000706
    39  C   -0.217964
    40  C    0.144525
    41  C    0.020351
    42  C    0.093024
    43  C   -0.099672
    44  H    0.071430
    45  H   -0.030376
    46  H    0.026909
    47  H    0.136479
    48  H    0.124598
    49  H    0.025077
    50  H    0.036526
    51  H   -0.007216
    52  H    0.018971
    53  H    0.006356
    54  H    0.024152
    55  H    0.039124
    56  H    0.058108
    57  H    0.033290
    58  H    0.090562
    59  H    0.022265
    60  H    0.179520
    61  H    0.036688
    62  H    0.055605
    63  H   -0.095658
    64  H   -0.066450
    65  H    0.020026
    66  H    0.041152
    67  H    0.065801
    68  H    0.045492
    69  H   -0.048854
    70  H    0.041583
    71  H    0.074980
    72  H    0.201314
    73  H    0.034038
    74  H    0.054291
    75  H    0.004981
    76  H    0.043056
    77  H    0.158838
    78  H    0.043066
    79  H    0.014011
 Sum of Mulliken charges =   0.00000

 Dipole moment (field-independent basis, Debye):
    X=              1.9127    Y=              2.6258    Z=              2.4429  Tot=              4.0646
 Quadrupole moment (field-independent basis, Debye-Ang):
   XX=           -224.3262   YY=           -239.3501   ZZ=           -271.8715
   XY=            -12.3577   XZ=             33.9830   YZ=              4.2684

 Normal termination of Gaussian 09 at Sun Jul  7 20:25:18 2019.
