 Gaussian 09, Revision D.01,
 Gaussian 09:  ES64L-G09RevD.01 24-Apr-2013

 --------------------------
 # td=(NStates=1) B3LYP/SVP
 --------------------------

 --
 TD
 --
 Symbolic Z-matrix:
 Charge =  0 Multiplicity = 1

                         Standard orientation:
 ---------------------------------------------------------------------
 Center     Atomic      Atomic             Coordinates (Angstroms)
 Number     Number       Type             X           Y           Z
 ---------------------------------------------------------------------
      1          8           0        5.615460    0.098912   -3.255607
      2          8           0       -2.722111   -3.252110    3.384476
      3          8           0       -3.401515   -1.058856    3.110232
      4          8           0       -1.725000    7.217049    1.585640
      5          8           0       -0.627129    7.156491   -0.372361
      6          8           0       -1.902239   -4.069526   -0.150613
      7          7           0        2.360911    0.846109    0.586782
      8          7           0        4.459565   -0.533198   -1.267788
      9          7           0       -1.937631    0.707065   -0.439239
     10          7           0       -2.618044   -1.809853   -0.581707
     11          6           0        4.866389   -1.193286    0.011357
     12          6           0        4.515155   -0.371255    1.226301
     13          6           0        3.016715   -0.076150    1.290396
     14          6           0        1.990511   -0.695730    2.122265
     15          6           0        0.775193   -0.110121    1.781255
     16          6           0        0.996112    0.775518    0.649236
     17          6           0        6.369512   -1.354140   -0.229982
     18          6           0       -0.620317   -0.316481    2.497589
     19          6           0        6.827251   -0.781379   -1.435888
     20          6           0        0.114498    1.802529    0.117351
     21          6           0       -1.133535    1.768762   -0.297559
     22          6           0        5.566001   -0.367879   -2.153255
     23          6           0       -1.982989    2.848300   -0.718033
     24          6           0        2.159897   -1.859531    3.074223
     25          6           0        7.102885   -1.985395    0.870922
     26          6           0       -3.138478    2.467948   -1.176851
     27          6           0       -1.088182   -1.744592    2.491898
     28          6           0       -3.097535    0.946954   -0.965138
     29          6           0       -1.479167    4.306322   -0.728244
     30          6           0        8.030533   -0.662863   -2.013837
     31          6           0       -1.903600    5.158928    0.547577
     32          6           0       -4.226755    3.269614   -1.744927
     33          6           0       -4.020895   -0.055135   -1.445342
     34          6           0       -2.464260   -1.897930    2.935496
     35          6           0       -3.749412   -1.385892   -1.216709
     36          6           0        9.257653   -0.692997   -1.364347
     37          6           0       -1.362053    6.643411    0.442509
     38          6           0       -4.683643   -2.610396   -1.531970
     39          6           0       -4.056315   -3.714222   -1.128769
     40          6           0       -2.698623   -3.237727   -0.565496
     41          6           0       -5.938254   -2.362586   -2.079139
     42          6           0       -4.503103   -5.073072   -1.193037
     43          6           0       -6.739588   -3.300367   -2.729673
     44          1           0        4.409290   -2.199264    0.302607
     45          1           0        4.953709    0.722418    1.244322
     46          1           0        4.983261   -0.960507    2.114285
     47          1           0        2.692670    1.279351   -0.279181
     48          1           0        3.590501   -0.557753   -1.925329
     49          1           0       -0.585287   -0.028785    3.490304
     50          1           0       -1.481730    0.235776    2.037836
     51          1           0        0.561420    2.870455    0.100077
     52          1           0        3.165702   -1.738216    3.629285
     53          1           0        1.544665   -1.554280    3.888685
     54          1           0        1.784928   -2.860769    2.634381
     55          1           0        6.594020   -2.350967    1.799694
     56          1           0        7.873652   -1.212957    1.390433
     57          1           0        7.770016   -2.782744    0.347293
     58          1           0       -1.224256   -2.375271    1.436968
     59          1           0       -0.480869   -2.394798    3.097527
     60          1           0       -1.615688   -0.304334   -0.510912
     61          1           0       -1.942651    4.768582   -1.622314
     62          1           0       -0.301678    4.328556   -0.965854
     63          1           0        7.765007   -0.277323   -3.010794
     64          1           0       -1.575205    4.735979    1.430611
     65          1           0       -3.015733    5.365487    0.542984
     66          1           0       -4.033200    4.236982   -1.889946
     67          1           0       -5.295957    3.129582   -1.093072
     68          1           0       -4.459894    2.962153   -2.795941
     69          1           0       -5.037613    0.209464   -1.680687
     70          1           0        9.183538   -0.727113   -0.282462
     71          1           0       10.068118   -0.678846   -1.902345
     72          1           0       -3.650843   -3.089170    3.913111
     73          1           0       -6.393731   -1.277006   -1.827831
     74          1           0       -4.371947   -5.598559   -2.144477
     75          1           0       -3.947234   -5.663447   -0.364570
     76          1           0       -5.668565   -5.287180   -1.049123
     77          1           0       -1.472946    8.166954    1.491408
     78          1           0       -7.857912   -2.864755   -3.209072
     79          1           0       -6.490502   -4.269195   -2.879451
 ---------------------------------------------------------------------

 SCF Done:  E(RB3LYP) =  -1947.84511978     A.U. after   16 cycles

 Excitation energies and oscillator strengths:

 Excited State   1:      Singlet-A      2.3978 eV  517.08 nm  f=0.4697  <S**2>=0.000
     154 ->156         0.13085
     155 ->156         0.68767
 This state for optimization and/or second-order correction.
 Total Energy, E(TD-HF/TD-KS) =  -1947.75700350
 Copying the excited state density for this state as the 1-particle RhoCI density.

 The electronic state is 1-A.
 Alpha  occ. eigenvalues --  -19.19636 -19.15444 -19.13967 -19.11614 -19.11495
 Alpha  occ. eigenvalues --  -19.10349 -14.39335 -14.36850 -14.36610 -14.29629
 Alpha  occ. eigenvalues --  -10.33107 -10.30746 -10.28984 -10.26837 -10.26510
 Alpha  occ. eigenvalues --  -10.25670 -10.23908 -10.23766 -10.23405 -10.23237
 Alpha  occ. eigenvalues --  -10.23023 -10.22898 -10.22819 -10.22401 -10.22132
 Alpha  occ. eigenvalues --  -10.22085 -10.21158 -10.20816 -10.20790 -10.20609
 Alpha  occ. eigenvalues --  -10.20351 -10.20330 -10.19898 -10.19720 -10.19529
 Alpha  occ. eigenvalues --  -10.19351 -10.19342 -10.19317 -10.19270 -10.19158
 Alpha  occ. eigenvalues --  -10.18999 -10.18810 -10.18703  -1.11385  -1.04375
 Alpha  occ. eigenvalues --   -1.03231  -1.01740  -1.01719  -1.00812  -1.00064
 Alpha  occ. eigenvalues --   -0.94726  -0.93230  -0.90693  -0.83529  -0.82919
 Alpha  occ. eigenvalues --   -0.82376  -0.81236  -0.80737  -0.80275  -0.77865
 Alpha  occ. eigenvalues --   -0.77537  -0.77064  -0.75946  -0.74246  -0.72912
 Alpha  occ. eigenvalues --   -0.71572  -0.71229  -0.70141  -0.68702  -0.68213
 Alpha  occ. eigenvalues --   -0.66735  -0.66246  -0.64185  -0.62197  -0.60969
 Alpha  occ. eigenvalues --   -0.60498  -0.58694  -0.57788  -0.57182  -0.56949
 Alpha  occ. eigenvalues --   -0.55572  -0.55439  -0.54346  -0.53404  -0.52831
 Alpha  occ. eigenvalues --   -0.51849  -0.51419  -0.51085  -0.50455  -0.49471
 Alpha  occ. eigenvalues --   -0.49223  -0.49047  -0.48808  -0.48173  -0.47363
 Alpha  occ. eigenvalues --   -0.47085  -0.46742  -0.46559  -0.46109  -0.45964
 Alpha  occ. eigenvalues --   -0.45394  -0.44946  -0.44838  -0.44320  -0.43955
 Alpha  occ. eigenvalues --   -0.43474  -0.43279  -0.42713  -0.42532  -0.42275
 Alpha  occ. eigenvalues --   -0.42077  -0.41780  -0.41486  -0.41186  -0.41085
 Alpha  occ. eigenvalues --   -0.40906  -0.40756  -0.40339  -0.40276  -0.40027
 Alpha  occ. eigenvalues --   -0.39465  -0.39411  -0.38837  -0.38779  -0.38688
 Alpha  occ. eigenvalues --   -0.38168  -0.37881  -0.37652  -0.36942  -0.36866
 Alpha  occ. eigenvalues --   -0.36425  -0.36139  -0.35109  -0.34909  -0.34199
 Alpha  occ. eigenvalues --   -0.33955  -0.33612  -0.33348  -0.32411  -0.32152
 Alpha  occ. eigenvalues --   -0.31129  -0.29246  -0.29216  -0.28822  -0.27708
 Alpha  occ. eigenvalues --   -0.27543  -0.27122  -0.26708  -0.26240  -0.25249
 Alpha  occ. eigenvalues --   -0.23795  -0.23502  -0.22760  -0.22053  -0.19716
 Alpha virt. eigenvalues --   -0.09920  -0.07420  -0.05711  -0.01084  -0.00395
 Alpha virt. eigenvalues --    0.00020   0.00160   0.00447   0.02379   0.02865
 Alpha virt. eigenvalues --    0.03056   0.03826   0.04168   0.04339   0.05080

 Mulliken charges:
               1
     1  O   -0.202815
     2  O   -0.305569
     3  O   -0.290522
     4  O   -0.168620
     5  O   -0.219713
     6  O   -0.220536
     7  N   -0.015308
     8  N   -0.285354
     9  N    0.017686
    10  N   -0.345502
    11  C    0.110259
    12  C    0.130954
    13  C   -0.083930
    14  C   -0.198785
    15  C   -0.057663
    16  C   -0.011570
    17  C   -0.137555
    18  C    0.141996
    19  C   -0.012743
    20  C   -0.135298
    21  C    0.092188
    22  C    0.150520
    23  C   -0.051000
    24  C    0.107884
    25  C   -0.020297
    26  C   -0.111984
    27  C   -0.031474
    28  C    0.034830
    29  C    0.009684
    30  C   -0.074653
    31  C    0.025111
    32  C    0.112819
    33  C   -0.079856
    34  C    0.164118
    35  C    0.084383
    36  C    0.066850
    37  C    0.122029
    38  C    0.117165
    39  C   -0.147456
    40  C    0.184996
    41  C   -0.098711
    42  C   -0.004187
    43  C   -0.043664
    44  H    0.037885
    45  H    0.019675
    46  H    0.020575
    47  H    0.119672
    48  H    0.161165
    49  H   -0.012079
    50  H    0.029196
    51  H    0.015594
    52  H    0.006460
    53  H   -0.000872
    54  H    0.078952
    55  H    0.035481
    56  H    0.056407
    57  H    0.065184
    58  H    0.113822
    59  H    0.014692
    60  H    0.166984
    61  H    0.014742
    62  H    0.043682
    63  H    0.013641
    64  H    0.028912
    65  H    0.047635
    66  H   -0.033270
    67  H    0.054291
    68  H    0.028361
    69  H   -0.028417
    70  H    0.014439
    71  H   -0.017802
    72  H    0.216509
    73  H    0.036635
    74  H    0.033411
    75  H    0.045203
    76  H    0.030332
    77  H    0.182107
    78  H    0.048985
    79  H   -0.006896
 Sum of Mulliken charges =   0.00000

 Dipole moment (field-independent basis, Debye):
    X=              1.2745    Y=              3.4744    Z=              2.6976  Tot=              4.5796
 Quadrupole moment (field-independent basis, Debye-Ang):
   XX=           -230.3657   YY=           -246.9569   ZZ=           -260.7164
   XY=            -21.9179   XZ=             32.5617   YZ=              6.7700

 Normal termination of Gaussian 09 at Wed Jul 10 20:13:52 2019.
