 Gaussian 09, Revision D.01,
 Gaussian 09:  ES64L-G09RevD.01 24-Apr-2013

 --------------------------
 # td=(NStates=1) B3LYP/SVP
 --------------------------

 --
 TD
 --
 Symbolic Z-matrix:
 Charge =  0 Multiplicity = 1

                         Standard orientation:
 ---------------------------------------------------------------------
 Center     Atomic      Atomic             Coordinates (Angstroms)
 Number     Number       Type             X           Y           Z
 ---------------------------------------------------------------------
      1          8           0        5.316943   -0.496669   -3.383586
      2          8           0       -2.864941   -2.967336    3.169058
      3          8           0       -3.103378   -0.792754    3.366060
      4          8           0       -1.510613    7.185617    1.468376
      5          8           0       -0.375709    7.000779   -0.482177
      6          8           0       -2.217612   -4.063673   -0.061885
      7          7           0        2.462477    0.916896    0.533451
      8          7           0        4.376605   -0.751956   -1.183722
      9          7           0       -1.833331    0.613917   -0.391751
     10          7           0       -2.815152   -1.876427   -0.530841
     11          6           0        4.819856   -1.269772   -0.060070
     12          6           0        4.495402   -0.323279    1.187503
     13          6           0        3.040289   -0.107750    1.316619
     14          6           0        2.123342   -0.597719    2.108957
     15          6           0        0.755242   -0.120593    1.661393
     16          6           0        1.081177    0.999628    0.736105
     17          6           0        6.355683   -1.407416   -0.176563
     18          6           0       -0.458713   -0.349634    2.486604
     19          6           0        6.600518   -1.009520   -1.464671
     20          6           0        0.206411    1.896286    0.060404
     21          6           0       -1.066678    1.794152   -0.362790
     22          6           0        5.365969   -0.690971   -2.129452
     23          6           0       -1.874983    2.939909   -0.811729
     24          6           0        2.307925   -1.705022    3.163667
     25          6           0        7.351622   -1.900900    0.842550
     26          6           0       -3.108993    2.462479   -1.259068
     27          6           0       -1.041315   -1.720874    2.509746
     28          6           0       -3.037715    0.965944   -0.992538
     29          6           0       -1.355083    4.355419   -0.889009
     30          6           0        8.004168   -0.957949   -2.090658
     31          6           0       -1.546954    5.080213    0.460347
     32          6           0       -4.282096    3.176470   -1.736431
     33          6           0       -4.072993    0.082297   -1.320871
     34          6           0       -2.439862   -1.793144    3.047236
     35          6           0       -3.951316   -1.302987   -1.069294
     36          6           0        9.231360   -0.680511   -1.526273
     37          6           0       -1.087065    6.540971    0.418995
     38          6           0       -4.892581   -2.369465   -1.383590
     39          6           0       -4.382341   -3.596728   -1.099561
     40          6           0       -3.063704   -3.229795   -0.455531
     41          6           0       -6.218708   -2.152800   -2.025306
     42          6           0       -4.817164   -5.026588   -1.060709
     43          6           0       -6.985669   -3.050233   -2.588615
     44          1           0        4.312924   -2.329322    0.305485
     45          1           0        5.146816    0.471837    0.674745
     46          1           0        5.011671   -0.941039    2.146355
     47          1           0        3.033396    1.322180   -0.207874
     48          1           0        3.530053   -1.066104   -1.520347
     49          1           0       -0.220798   -0.276506    3.659360
     50          1           0       -1.121258    0.511083    2.341227
     51          1           0        0.705773    2.713778    0.076213
     52          1           0        3.351023   -1.493816    3.716504
     53          1           0        1.408139   -1.580879    3.862632
     54          1           0        2.492121   -3.018220    2.630860
     55          1           0        6.983740   -2.701860    1.477335
     56          1           0        7.726966   -1.046374    1.487949
     57          1           0        8.129804   -2.385675    0.372111
     58          1           0       -1.041408   -2.167611    1.570468
     59          1           0       -0.285064   -2.303825    3.172066
     60          1           0       -1.423155   -0.324499   -0.468453
     61          1           0       -2.055037    4.948986   -1.800970
     62          1           0       -0.339166    4.613309   -1.124118
     63          1           0        7.831694   -0.956233   -3.219253
     64          1           0       -0.901891    4.534890    1.272613
     65          1           0       -2.574326    4.861297    0.852089
     66          1           0       -4.091237    4.332494   -1.610882
     67          1           0       -5.176512    2.624110   -1.137760
     68          1           0       -4.539853    2.952000   -2.796547
     69          1           0       -4.998802    0.224576   -1.701595
     70          1           0        9.568642   -0.596545   -0.517326
     71          1           0       10.140123   -0.722024   -2.278072
     72          1           0       -3.684471   -2.796724    3.704781
     73          1           0       -6.546394   -1.057604   -2.039805
     74          1           0       -4.475580   -5.552616   -2.090671
     75          1           0       -4.027323   -5.431447   -0.319754
     76          1           0       -5.786615   -5.223549   -0.825746
     77          1           0       -1.223736    8.192468    1.455347
     78          1           0       -7.865556   -3.103767   -3.054809
     79          1           0       -6.616603   -4.052201   -2.645253
 ---------------------------------------------------------------------

 SCF Done:  E(RB3LYP) =  -1947.79925177     A.U. after   17 cycles

 Excitation energies and oscillator strengths:

 Excited State   1:      Singlet-A      2.1067 eV  588.54 nm  f=0.3417  <S**2>=0.000
     153 ->156        -0.13761
     154 ->156         0.18244
     155 ->156         0.66734
 This state for optimization and/or second-order correction.
 Total Energy, E(TD-HF/TD-KS) =  -1947.72183377
 Copying the excited state density for this state as the 1-particle RhoCI density.

 The electronic state is 1-A.
 Alpha  occ. eigenvalues --  -19.20802 -19.18435 -19.13225 -19.10824 -19.09871
 Alpha  occ. eigenvalues --  -19.09738 -14.38051 -14.37612 -14.36777 -14.28375
 Alpha  occ. eigenvalues --  -10.33331 -10.29964 -10.29463 -10.26205 -10.25725
 Alpha  occ. eigenvalues --  -10.25440 -10.24582 -10.24085 -10.23416 -10.23332
 Alpha  occ. eigenvalues --  -10.23092 -10.22917 -10.22501 -10.22501 -10.22409
 Alpha  occ. eigenvalues --  -10.22337 -10.22236 -10.22104 -10.21858 -10.21136
 Alpha  occ. eigenvalues --  -10.21121 -10.20817 -10.20267 -10.20204 -10.20198
 Alpha  occ. eigenvalues --  -10.19687 -10.19339 -10.19083 -10.18954 -10.18939
 Alpha  occ. eigenvalues --  -10.18893 -10.17941 -10.17592  -1.12327  -1.11212
 Alpha  occ. eigenvalues --   -1.03627  -1.00646  -0.99336  -0.97778  -0.97595
 Alpha  occ. eigenvalues --   -0.97398  -0.96735  -0.90896  -0.83105  -0.82967
 Alpha  occ. eigenvalues --   -0.82251  -0.80682  -0.80005  -0.79662  -0.77989
 Alpha  occ. eigenvalues --   -0.77119  -0.76647  -0.75092  -0.74690  -0.73341
 Alpha  occ. eigenvalues --   -0.72892  -0.70758  -0.69869  -0.68384  -0.67970
 Alpha  occ. eigenvalues --   -0.67205  -0.66236  -0.63640  -0.62506  -0.61135
 Alpha  occ. eigenvalues --   -0.60974  -0.59676  -0.59271  -0.58618  -0.57235
 Alpha  occ. eigenvalues --   -0.56082  -0.55335  -0.54768  -0.54252  -0.53663
 Alpha  occ. eigenvalues --   -0.52696  -0.52309  -0.52172  -0.51144  -0.50125
 Alpha  occ. eigenvalues --   -0.49489  -0.49137  -0.48940  -0.48391  -0.48012
 Alpha  occ. eigenvalues --   -0.47565  -0.47073  -0.46706  -0.46225  -0.45541
 Alpha  occ. eigenvalues --   -0.45290  -0.44865  -0.44726  -0.44680  -0.44063
 Alpha  occ. eigenvalues --   -0.43926  -0.43613  -0.43048  -0.42761  -0.42583
 Alpha  occ. eigenvalues --   -0.42220  -0.41822  -0.41576  -0.41297  -0.40766
 Alpha  occ. eigenvalues --   -0.40222  -0.40190  -0.39932  -0.39741  -0.39331
 Alpha  occ. eigenvalues --   -0.38976  -0.38719  -0.38529  -0.38293  -0.38167
 Alpha  occ. eigenvalues --   -0.37975  -0.37202  -0.37165  -0.36800  -0.36179
 Alpha  occ. eigenvalues --   -0.35979  -0.35634  -0.34635  -0.33899  -0.33722
 Alpha  occ. eigenvalues --   -0.33162  -0.33078  -0.32710  -0.31420  -0.31206
 Alpha  occ. eigenvalues --   -0.31026  -0.30170  -0.29057  -0.28545  -0.27548
 Alpha  occ. eigenvalues --   -0.26474  -0.26255  -0.26025  -0.26016  -0.25081
 Alpha  occ. eigenvalues --   -0.24176  -0.23845  -0.23441  -0.21956  -0.19419
 Alpha virt. eigenvalues --   -0.10930  -0.06557  -0.06235  -0.01280  -0.00979
 Alpha virt. eigenvalues --   -0.00831  -0.00535   0.00646   0.01845   0.02260
 Alpha virt. eigenvalues --    0.02798   0.03711   0.04591   0.04776   0.05244

 Mulliken charges:
               1
     1  O   -0.263741
     2  O   -0.079609
     3  O   -0.289264
     4  O   -0.173343
     5  O   -0.255672
     6  O   -0.245064
     7  N   -0.104108
     8  N   -0.028481
     9  N   -0.067989
    10  N   -0.284997
    11  C   -0.079983
    12  C    0.062793
    13  C    0.045995
    14  C   -0.151739
    15  C   -0.080841
    16  C    0.040714
    17  C   -0.158435
    18  C    0.000884
    19  C   -0.068080
    20  C   -0.020849
    21  C    0.156492
    22  C    0.131103
    23  C   -0.045458
    24  C   -0.043119
    25  C    0.129599
    26  C   -0.116605
    27  C    0.041030
    28  C    0.195012
    29  C    0.028057
    30  C    0.001940
    31  C   -0.072697
    32  C    0.040338
    33  C   -0.051820
    34  C    0.095595
    35  C    0.041778
    36  C   -0.056567
    37  C    0.163463
    38  C    0.033126
    39  C   -0.197182
    40  C    0.136807
    41  C   -0.011287
    42  C    0.092297
    43  C    0.025631
    44  H    0.043504
    45  H    0.004436
    46  H    0.038317
    47  H    0.115645
    48  H    0.119636
    49  H    0.014098
    50  H    0.019186
    51  H   -0.090854
    52  H    0.034947
    53  H    0.047716
    54  H    0.050806
    55  H    0.012499
    56  H    0.052637
    57  H    0.009009
    58  H    0.027041
    59  H    0.032350
    60  H    0.163909
    61  H    0.043143
    62  H    0.024942
    63  H    0.042244
    64  H    0.059827
    65  H    0.040502
    66  H    0.050995
    67  H    0.057957
    68  H    0.039258
    69  H   -0.103832
    70  H    0.018575
    71  H    0.047480
    72  H    0.178214
    73  H   -0.003857
    74  H    0.043650
    75  H    0.048127
    76  H    0.010407
    77  H    0.225037
    78  H   -0.024282
    79  H   -0.008993
 Sum of Mulliken charges =   0.00000

 Dipole moment (field-independent basis, Debye):
    X=              0.7969    Y=              3.1417    Z=              3.2732  Tot=              4.6064
 Quadrupole moment (field-independent basis, Debye-Ang):
   XX=           -216.6362   YY=           -239.1567   ZZ=           -265.3712
   XY=            -14.7474   XZ=             32.5577   YZ=              4.6911

 Normal termination of Gaussian 09 at Tue Jul  9 02:31:21 2019.
