 Gaussian 09, Revision D.01,
 Gaussian 09:  ES64L-G09RevD.01 24-Apr-2013

 --------------------------
 # td=(NStates=1) B3LYP/SVP
 --------------------------

 --
 TD
 --
 Symbolic Z-matrix:
 Charge =  0 Multiplicity = 1

                         Standard orientation:
 ---------------------------------------------------------------------
 Center     Atomic      Atomic             Coordinates (Angstroms)
 Number     Number       Type             X           Y           Z
 ---------------------------------------------------------------------
      1          8           0        5.444115    0.050568   -3.281919
      2          8           0       -2.976386   -3.102971    3.096962
      3          8           0       -3.250270   -0.901262    3.205604
      4          8           0       -1.265951    7.283242    1.598279
      5          8           0        0.023652    6.866965   -0.157056
      6          8           0       -2.289858   -3.928076   -0.017563
      7          7           0        2.453451    0.776051    0.616805
      8          7           0        4.469278   -0.761164   -1.320985
      9          7           0       -1.876994    0.676837   -0.332059
     10          7           0       -2.823800   -1.758335   -0.568441
     11          6           0        4.868486   -1.426167   -0.122459
     12          6           0        4.454752   -0.690051    1.233857
     13          6           0        3.011530   -0.426026    1.247053
     14          6           0        2.005111   -0.870076    2.100354
     15          6           0        0.768387   -0.271281    1.768589
     16          6           0        1.006861    0.714953    0.796329
     17          6           0        6.359481   -1.452634   -0.257714
     18          6           0       -0.539549   -0.388604    2.427376
     19          6           0        6.757198   -0.858374   -1.455411
     20          6           0        0.287402    1.706722    0.161147
     21          6           0       -1.071427    1.775244   -0.264463
     22          6           0        5.611276   -0.411465   -2.134987
     23          6           0       -1.816371    2.943578   -0.632511
     24          6           0        2.136709   -2.014847    3.173188
     25          6           0        7.144616   -2.174842    0.811444
     26          6           0       -3.061819    2.538435   -1.105519
     27          6           0       -1.167647   -1.900479    2.382709
     28          6           0       -3.056724    1.086818   -0.953239
     29          6           0       -1.255963    4.298346   -0.735159
     30          6           0        8.077232   -0.729586   -2.102917
     31          6           0       -1.633333    5.146797    0.548211
     32          6           0       -4.155529    3.214545   -1.756836
     33          6           0       -4.096155    0.201193   -1.325235
     34          6           0       -2.577038   -1.885639    3.028039
     35          6           0       -3.916783   -1.211159   -1.105565
     36          6           0        9.298218   -0.907375   -1.496556
     37          6           0       -0.830003    6.570460    0.602622
     38          6           0       -4.940286   -2.197282   -1.543972
     39          6           0       -4.414906   -3.476713   -1.077026
     40          6           0       -3.089111   -3.134596   -0.544157
     41          6           0       -6.131339   -1.905807   -2.202287
     42          6           0       -4.981766   -4.803859   -1.216883
     43          6           0       -7.012288   -2.757766   -2.878842
     44          1           0        4.455702   -2.504440   -0.082702
     45          1           0        4.975885    0.395626    1.148993
     46          1           0        4.579906   -1.287833    2.109860
     47          1           0        2.988769    1.201818   -0.161058
     48          1           0        3.559252   -0.842904   -1.670930
     49          1           0       -0.599964   -0.150935    3.542571
     50          1           0       -1.368312    0.247172    2.024246
     51          1           0        0.712564    2.676547    0.046883
     52          1           0        3.086412   -1.910473    3.855220
     53          1           0        1.217741   -1.842717    3.995424
     54          1           0        2.120822   -3.053388    2.604951
     55          1           0        6.388918   -2.934481    1.254404
     56          1           0        7.579591   -1.512710    1.475951
     57          1           0        8.003808   -2.863063    0.210225
     58          1           0       -1.392025   -2.207858    1.372768
     59          1           0       -0.322776   -2.505066    2.954628
     60          1           0       -1.614834   -0.274277   -0.439812
     61          1           0       -1.798793    4.777553   -1.757451
     62          1           0       -0.122665    4.386157   -0.947889
     63          1           0        7.986729   -0.384107   -3.119035
     64          1           0       -1.182040    4.704247    1.505346
     65          1           0       -2.705491    5.395227    0.412351
     66          1           0       -4.012106    4.421944   -1.701119
     67          1           0       -5.139558    3.257869   -1.382452
     68          1           0       -4.251809    2.820964   -2.720962
     69          1           0       -4.939499    0.705498   -1.790775
     70          1           0        9.440087   -0.924874   -0.400932
     71          1           0       10.251015   -0.650521   -2.066225
     72          1           0       -3.967114   -3.253900    3.484465
     73          1           0       -6.265568   -0.835638   -2.095065
     74          1           0       -4.799910   -5.092682   -2.261270
     75          1           0       -4.426720   -5.513432   -0.509973
     76          1           0       -5.909144   -4.884616   -0.877450
     77          1           0       -0.811835    8.076264    1.861529
     78          1           0       -8.000278   -2.228993   -3.320483
     79          1           0       -6.988036   -3.904203   -3.090989
 ---------------------------------------------------------------------

 SCF Done:  E(RB3LYP) =  -1947.88630251     A.U. after   23 cycles

 Excitation energies and oscillator strengths:

 Excited State   1:      Singlet-A      1.9377 eV  639.86 nm  f=0.4603  <S**2>=0.000
     154 ->156         0.20830
     155 ->156         0.67458
     155 <-156        -0.12095
 This state for optimization and/or second-order correction.
 Total Energy, E(TD-HF/TD-KS) =  -1947.81509367
 Copying the excited state density for this state as the 1-particle RhoCI density.

 The electronic state is 1-A.
 Alpha  occ. eigenvalues --  -19.19235 -19.17437 -19.12802 -19.10383 -19.09961
 Alpha  occ. eigenvalues --  -19.09208 -14.37406 -14.35578 -14.34750 -14.28441
 Alpha  occ. eigenvalues --  -10.32426 -10.29544 -10.28878 -10.25631 -10.25406
 Alpha  occ. eigenvalues --  -10.23816 -10.23592 -10.23377 -10.23324 -10.23183
 Alpha  occ. eigenvalues --  -10.22988 -10.22886 -10.22850 -10.22771 -10.22227
 Alpha  occ. eigenvalues --  -10.22140 -10.21541 -10.21162 -10.21036 -10.21028
 Alpha  occ. eigenvalues --  -10.20949 -10.20854 -10.20559 -10.20268 -10.20212
 Alpha  occ. eigenvalues --  -10.19990 -10.19672 -10.19483 -10.19453 -10.18958
 Alpha  occ. eigenvalues --  -10.18522 -10.18183 -10.17699  -1.11918  -1.08666
 Alpha  occ. eigenvalues --   -1.02740  -1.01406  -0.99484  -0.98587  -0.98004
 Alpha  occ. eigenvalues --   -0.95171  -0.93813  -0.90883  -0.82727  -0.82423
 Alpha  occ. eigenvalues --   -0.81476  -0.80277  -0.79968  -0.79564  -0.77334
 Alpha  occ. eigenvalues --   -0.76422  -0.75647  -0.74380  -0.73878  -0.72668
 Alpha  occ. eigenvalues --   -0.72528  -0.70254  -0.69009  -0.68744  -0.67757
 Alpha  occ. eigenvalues --   -0.66197  -0.65993  -0.63617  -0.62399  -0.61599
 Alpha  occ. eigenvalues --   -0.60419  -0.58907  -0.58271  -0.57527  -0.56713
 Alpha  occ. eigenvalues --   -0.55447  -0.54606  -0.54227  -0.53602  -0.52675
 Alpha  occ. eigenvalues --   -0.51658  -0.51308  -0.50918  -0.50110  -0.48881
 Alpha  occ. eigenvalues --   -0.48766  -0.48123  -0.47941  -0.47554  -0.47266
 Alpha  occ. eigenvalues --   -0.46576  -0.46316  -0.46112  -0.45627  -0.45455
 Alpha  occ. eigenvalues --   -0.45114  -0.44843  -0.44607  -0.44416  -0.44332
 Alpha  occ. eigenvalues --   -0.43416  -0.43255  -0.42894  -0.42373  -0.42314
 Alpha  occ. eigenvalues --   -0.42078  -0.41763  -0.41362  -0.40790  -0.40704
 Alpha  occ. eigenvalues --   -0.40185  -0.40067  -0.39885  -0.39766  -0.39308
 Alpha  occ. eigenvalues --   -0.39090  -0.39067  -0.38432  -0.38407  -0.38011
 Alpha  occ. eigenvalues --   -0.37839  -0.37255  -0.36879  -0.36545  -0.36063
 Alpha  occ. eigenvalues --   -0.35142  -0.34668  -0.34554  -0.34316  -0.34206
 Alpha  occ. eigenvalues --   -0.33701  -0.33698  -0.32863  -0.31603  -0.31205
 Alpha  occ. eigenvalues --   -0.30420  -0.30240  -0.27983  -0.27944  -0.27030
 Alpha  occ. eigenvalues --   -0.26343  -0.25908  -0.25741  -0.25604  -0.24649
 Alpha  occ. eigenvalues --   -0.24532  -0.23634  -0.23236  -0.20923  -0.18275
 Alpha virt. eigenvalues --   -0.10803  -0.07455  -0.07049  -0.01322  -0.00819
 Alpha virt. eigenvalues --   -0.00109   0.01863   0.02359   0.02742   0.03077
 Alpha virt. eigenvalues --    0.03480   0.04186   0.04600   0.04997   0.05243

 Mulliken charges:
               1
     1  O   -0.246106
     2  O   -0.174628
     3  O   -0.238182
     4  O   -0.140271
     5  O   -0.188260
     6  O   -0.228528
     7  N   -0.195816
     8  N   -0.202438
     9  N   -0.031254
    10  N   -0.272874
    11  C    0.031838
    12  C    0.191989
    13  C   -0.060119
    14  C   -0.105240
    15  C    0.006095
    16  C    0.179857
    17  C   -0.179874
    18  C   -0.027483
    19  C   -0.019218
    20  C   -0.070784
    21  C    0.010566
    22  C    0.164294
    23  C   -0.017536
    24  C   -0.045112
    25  C    0.049487
    26  C   -0.081373
    27  C   -0.072063
    28  C    0.045730
    29  C   -0.058981
    30  C    0.014694
    31  C   -0.021268
    32  C    0.089876
    33  C   -0.124373
    34  C    0.122271
    35  C    0.140222
    36  C   -0.056236
    37  C    0.088933
    38  C    0.001871
    39  C   -0.207311
    40  C    0.147436
    41  C   -0.006283
    42  C    0.155387
    43  C   -0.096201
    44  H    0.039368
    45  H    0.032758
    46  H   -0.014375
    47  H    0.126769
    48  H    0.111306
    49  H    0.017692
    50  H    0.035948
    51  H   -0.031684
    52  H    0.036656
    53  H    0.062301
    54  H    0.074648
    55  H    0.039574
    56  H    0.039462
    57  H    0.067982
    58  H    0.073842
    59  H    0.034736
    60  H    0.135075
    61  H    0.044766
    62  H    0.051239
    63  H    0.011798
    64  H    0.061520
    65  H    0.047729
    66  H    0.018839
    67  H    0.014406
    68  H    0.023943
    69  H   -0.030233
    70  H    0.028714
    71  H    0.043367
    72  H    0.220269
    73  H   -0.012623
    74  H    0.041541
    75  H    0.019887
    76  H   -0.015861
    77  H    0.178110
    78  H    0.040973
    79  H    0.056825
 Sum of Mulliken charges =   0.00000

 Dipole moment (field-independent basis, Debye):
    X=              1.0433    Y=              2.1283    Z=              3.7683  Tot=              4.4517
 Quadrupole moment (field-independent basis, Debye-Ang):
   XX=           -217.3609   YY=           -234.0428   ZZ=           -259.8309
   XY=            -14.5974   XZ=             31.6139   YZ=              5.4579

 Normal termination of Gaussian 09 at Sun Jul  7 19:10:14 2019.
