 Gaussian 09, Revision D.01,
 Gaussian 09:  ES64L-G09RevD.01 24-Apr-2013

 --------------------------
 # td=(NStates=1) B3LYP/SVP
 --------------------------

 --
 TD
 --
 Symbolic Z-matrix:
 Charge =  0 Multiplicity = 1

                         Standard orientation:
 ---------------------------------------------------------------------
 Center     Atomic      Atomic             Coordinates (Angstroms)
 Number     Number       Type             X           Y           Z
 ---------------------------------------------------------------------
      1          8           0        5.508153   -0.067761   -3.330316
      2          8           0       -2.929710   -2.971413    3.439586
      3          8           0       -3.243254   -0.645555    3.049453
      4          8           0       -1.567311    7.118516    1.584211
      5          8           0       -0.398220    7.031573   -0.479739
      6          8           0       -2.154204   -4.040733   -0.050387
      7          7           0        2.365630    0.795663    0.516783
      8          7           0        4.559365   -0.736731   -1.245275
      9          7           0       -1.867530    0.637280   -0.405158
     10          7           0       -2.845493   -1.912590   -0.617150
     11          6           0        4.950074   -1.229897    0.045663
     12          6           0        4.484642   -0.434087    1.194216
     13          6           0        2.997549   -0.158923    1.302189
     14          6           0        2.046784   -0.654436    2.100648
     15          6           0        0.765570   -0.078651    1.771504
     16          6           0        0.994883    0.782046    0.732229
     17          6           0        6.445088   -1.424975   -0.089116
     18          6           0       -0.562122   -0.293928    2.564654
     19          6           0        6.855502   -0.990376   -1.354692
     20          6           0        0.324790    1.874094    0.095437
     21          6           0       -1.078637    1.748997   -0.261063
     22          6           0        5.598774   -0.498962   -2.147129
     23          6           0       -1.832988    2.920513   -0.835047
     24          6           0        2.145888   -1.727390    3.154059
     25          6           0        7.210293   -2.030006    0.948419
     26          6           0       -3.043435    2.451751   -1.175381
     27          6           0       -1.204802   -1.662813    2.450568
     28          6           0       -3.107714    1.047533   -0.942435
     29          6           0       -1.340365    4.272240   -0.973755
     30          6           0        8.156730   -0.926840   -2.084403
     31          6           0       -1.542563    5.085956    0.366988
     32          6           0       -4.229680    3.143978   -1.767577
     33          6           0       -4.108084    0.047389   -1.328798
     34          6           0       -2.598687   -1.695781    3.009053
     35          6           0       -3.887438   -1.376765   -1.118682
     36          6           0        9.320312   -0.874990   -1.512823
     37          6           0       -1.076489    6.546294    0.393380
     38          6           0       -4.879083   -2.446242   -1.417071
     39          6           0       -4.304974   -3.621557   -1.093771
     40          6           0       -2.991864   -3.242095   -0.593340
     41          6           0       -6.147308   -2.170297   -1.986397
     42          6           0       -4.794347   -5.131225   -1.261007
     43          6           0       -7.117463   -3.009052   -2.552773
     44          1           0        4.483709   -2.464953    0.173544
     45          1           0        5.024178    0.585173    1.188752
     46          1           0        4.863024   -1.092511    2.031659
     47          1           0        2.919163    1.425084   -0.177585
     48          1           0        3.624574   -0.738136   -1.664789
     49          1           0       -0.290296    0.089695    3.566718
     50          1           0       -1.271121    0.549148    2.180346
     51          1           0        0.924341    2.797654    0.100266
     52          1           0        3.124570   -1.847404    3.432185
     53          1           0        1.570857   -1.046113    4.103368
     54          1           0        1.638374   -2.668885    3.103112
     55          1           0        6.631997   -2.981484    1.347814
     56          1           0        7.420160   -1.343682    1.673804
     57          1           0        8.272708   -2.304716    0.685290
     58          1           0       -1.246963   -1.995628    1.339107
     59          1           0       -0.629826   -2.307469    3.069252
     60          1           0       -1.590636   -0.223430   -0.239434
     61          1           0       -1.994077    4.860826   -1.606685
     62          1           0       -0.413948    4.429815   -1.306987
     63          1           0        8.114635   -0.822740   -3.266033
     64          1           0       -1.208003    4.413533    1.210910
     65          1           0       -2.494415    5.016294    0.650802
     66          1           0       -3.924408    4.123754   -2.244447
     67          1           0       -4.924026    3.330872   -0.946814
     68          1           0       -4.534903    2.594847   -2.861838
     69          1           0       -4.975023    0.098719   -1.805837
     70          1           0        9.472593   -1.034189   -0.378300
     71          1           0       10.254178   -0.897322   -2.037208
     72          1           0       -3.740957   -2.733991    3.863126
     73          1           0       -6.419830   -1.128861   -1.735035
     74          1           0       -4.474465   -5.184366   -2.411838
     75          1           0       -4.024311   -5.900683   -0.826700
     76          1           0       -5.824522   -5.363132   -1.232881
     77          1           0       -1.162821    7.974737    1.494346
     78          1           0       -8.114492   -2.505357   -3.108953
     79          1           0       -6.980474   -4.036491   -2.612397
 ---------------------------------------------------------------------

 SCF Done:  E(RB3LYP) =  -1947.83240707     A.U. after   19 cycles

 Excitation energies and oscillator strengths:

 Excited State   1:      Singlet-A      2.0852 eV  594.60 nm  f=0.4761  <S**2>=0.000
     154 ->156         0.16711
     155 ->156         0.68388
     155 <-156        -0.12057
 This state for optimization and/or second-order correction.
 Total Energy, E(TD-HF/TD-KS) =  -1947.75577836
 Copying the excited state density for this state as the 1-particle RhoCI density.

 The electronic state is 1-A.
 Alpha  occ. eigenvalues --  -19.19797 -19.18166 -19.15656 -19.12360 -19.10587
 Alpha  occ. eigenvalues --  -19.09617 -14.37845 -14.37436 -14.35808 -14.28300
 Alpha  occ. eigenvalues --  -10.34290 -10.31296 -10.29264 -10.26737 -10.26378
 Alpha  occ. eigenvalues --  -10.25678 -10.25631 -10.22945 -10.22921 -10.22799
 Alpha  occ. eigenvalues --  -10.22553 -10.22525 -10.22367 -10.21987 -10.21658
 Alpha  occ. eigenvalues --  -10.21468 -10.21008 -10.20871 -10.20851 -10.20821
 Alpha  occ. eigenvalues --  -10.20711 -10.20706 -10.20348 -10.20172 -10.19956
 Alpha  occ. eigenvalues --  -10.19733 -10.19693 -10.19472 -10.19371 -10.19013
 Alpha  occ. eigenvalues --  -10.18893 -10.18454 -10.18426  -1.10257  -1.08365
 Alpha  occ. eigenvalues --   -1.03287  -1.00409  -1.00028  -0.99672  -0.98964
 Alpha  occ. eigenvalues --   -0.97989  -0.93907  -0.93233  -0.84576  -0.82606
 Alpha  occ. eigenvalues --   -0.81608  -0.80549  -0.80297  -0.80102  -0.78502
 Alpha  occ. eigenvalues --   -0.77560  -0.76270  -0.75917  -0.73876  -0.72567
 Alpha  occ. eigenvalues --   -0.71662  -0.71134  -0.70236  -0.69304  -0.68506
 Alpha  occ. eigenvalues --   -0.66616  -0.66232  -0.63898  -0.61382  -0.60726
 Alpha  occ. eigenvalues --   -0.60020  -0.59553  -0.59065  -0.57879  -0.57323
 Alpha  occ. eigenvalues --   -0.56517  -0.55898  -0.55225  -0.54360  -0.52923
 Alpha  occ. eigenvalues --   -0.52544  -0.52004  -0.51414  -0.50681  -0.50348
 Alpha  occ. eigenvalues --   -0.50124  -0.48848  -0.48451  -0.48134  -0.47507
 Alpha  occ. eigenvalues --   -0.47390  -0.46891  -0.46567  -0.46491  -0.45965
 Alpha  occ. eigenvalues --   -0.45926  -0.45436  -0.45020  -0.44304  -0.44025
 Alpha  occ. eigenvalues --   -0.43649  -0.43430  -0.43177  -0.43148  -0.42634
 Alpha  occ. eigenvalues --   -0.42435  -0.42238  -0.41931  -0.41835  -0.41701
 Alpha  occ. eigenvalues --   -0.41386  -0.41004  -0.40697  -0.40245  -0.39977
 Alpha  occ. eigenvalues --   -0.39576  -0.38666  -0.38464  -0.38323  -0.38087
 Alpha  occ. eigenvalues --   -0.37948  -0.37714  -0.37504  -0.36455  -0.36163
 Alpha  occ. eigenvalues --   -0.35967  -0.35680  -0.35224  -0.34920  -0.34622
 Alpha  occ. eigenvalues --   -0.34501  -0.33496  -0.32778  -0.32433  -0.31884
 Alpha  occ. eigenvalues --   -0.31710  -0.30708  -0.30322  -0.28529  -0.27190
 Alpha  occ. eigenvalues --   -0.27077  -0.26305  -0.26244  -0.25542  -0.24534
 Alpha  occ. eigenvalues --   -0.24258  -0.23939  -0.23716  -0.22191  -0.19345
 Alpha virt. eigenvalues --   -0.11362  -0.06808  -0.06114  -0.02041  -0.01091
 Alpha virt. eigenvalues --    0.00420   0.00740   0.01059   0.02785   0.03136
 Alpha virt. eigenvalues --    0.03717   0.03808   0.04473   0.04724   0.04869

 Mulliken charges:
               1
     1  O   -0.263721
     2  O   -0.163604
     3  O   -0.247693
     4  O   -0.193535
     5  O   -0.201900
     6  O   -0.261624
     7  N   -0.154035
     8  N   -0.203177
     9  N   -0.004864
    10  N   -0.148934
    11  C    0.011682
    12  C    0.192775
    13  C   -0.046894
    14  C   -0.135203
    15  C   -0.101214
    16  C    0.078961
    17  C   -0.159843
    18  C    0.041401
    19  C   -0.066445
    20  C   -0.116181
    21  C    0.076456
    22  C    0.172034
    23  C   -0.113830
    24  C    0.087597
    25  C    0.104693
    26  C   -0.127551
    27  C    0.040219
    28  C    0.179515
    29  C    0.209061
    30  C   -0.007442
    31  C   -0.008458
    32  C    0.058221
    33  C    0.004314
    34  C    0.147395
    35  C   -0.041147
    36  C   -0.046567
    37  C    0.189519
    38  C    0.044472
    39  C   -0.175579
    40  C    0.106607
    41  C   -0.058836
    42  C    0.055663
    43  C   -0.048536
    44  H    0.043585
    45  H    0.009678
    46  H    0.002902
    47  H    0.144514
    48  H    0.135979
    49  H    0.009376
    50  H    0.022416
    51  H    0.024106
    52  H   -0.029223
    53  H    0.022111
    54  H    0.050669
    55  H    0.046051
    56  H    0.008117
    57  H    0.026898
    58  H    0.106807
    59  H    0.002403
    60  H    0.072212
    61  H   -0.008877
    62  H   -0.021691
    63  H    0.050630
    64  H    0.035233
    65  H   -0.024180
    66  H    0.014548
    67  H    0.051769
    68  H    0.059267
    69  H   -0.104569
    70  H    0.018174
    71  H    0.018708
    72  H    0.153968
    73  H    0.010876
    74  H    0.039079
    75  H    0.056997
    76  H    0.031876
    77  H    0.161891
    78  H    0.056589
    79  H   -0.002657
 Sum of Mulliken charges =   0.00000

 Dipole moment (field-independent basis, Debye):
    X=              0.7486    Y=              3.0954    Z=              3.4183  Tot=              4.6719
 Quadrupole moment (field-independent basis, Debye-Ang):
   XX=           -223.5431   YY=           -245.8834   ZZ=           -261.9562
   XY=            -13.6341   XZ=             32.0395   YZ=              3.6961

 Normal termination of Gaussian 09 at Wed Jul 10 00:47:04 2019.
