 Gaussian 09, Revision D.01,
 Gaussian 09:  ES64L-G09RevD.01 24-Apr-2013

 --------------------------
 # td=(NStates=1) B3LYP/SVP
 --------------------------

 --
 TD
 --
 Symbolic Z-matrix:
 Charge =  0 Multiplicity = 1

                         Standard orientation:
 ---------------------------------------------------------------------
 Center     Atomic      Atomic             Coordinates (Angstroms)
 Number     Number       Type             X           Y           Z
 ---------------------------------------------------------------------
      1          8           0        5.163249   -0.339655   -3.276105
      2          8           0       -2.727606   -3.206093    3.082347
      3          8           0       -3.067917   -0.940674    3.384299
      4          8           0       -1.602638    7.166612    1.393366
      5          8           0       -0.598665    6.934922   -0.611799
      6          8           0       -1.882095   -4.043708   -0.013153
      7          7           0        2.440682    1.045681    0.653928
      8          7           0        4.396843   -0.651422   -1.213562
      9          7           0       -1.955919    0.730270   -0.371567
     10          7           0       -2.671349   -1.848880   -0.486099
     11          6           0        4.883776   -1.148510    0.064037
     12          6           0        4.516075   -0.179265    1.289521
     13          6           0        3.075843    0.130176    1.348874
     14          6           0        2.020672   -0.529155    2.088432
     15          6           0        0.762244   -0.059808    1.689161
     16          6           0        1.013569    0.967727    0.796298
     17          6           0        6.342577   -1.182248   -0.232221
     18          6           0       -0.472357   -0.219852    2.379482
     19          6           0        6.703162   -0.880770   -1.437764
     20          6           0        0.156710    1.918906    0.176789
     21          6           0       -1.141951    1.816064   -0.235519
     22          6           0        5.340612   -0.575732   -2.148246
     23          6           0       -1.944215    2.852831   -0.791600
     24          6           0        2.381418   -1.477489    3.205742
     25          6           0        7.203567   -1.720638    0.944040
     26          6           0       -3.157203    2.351284   -1.255091
     27          6           0       -1.006256   -1.692290    2.584493
     28          6           0       -3.159144    0.981942   -1.039606
     29          6           0       -1.592611    4.308619   -0.872409
     30          6           0        7.946337   -0.966795   -2.251963
     31          6           0       -1.721895    5.078732    0.407217
     32          6           0       -4.402189    3.130616   -1.817304
     33          6           0       -4.053737   -0.042549   -1.321828
     34          6           0       -2.353304   -1.913569    3.102836
     35          6           0       -3.835086   -1.447008   -1.089903
     36          6           0        9.194139   -1.051415   -1.799179
     37          6           0       -1.208993    6.462543    0.325902
     38          6           0       -4.808531   -2.597874   -1.338401
     39          6           0       -4.128028   -3.773744   -0.997321
     40          6           0       -2.729286   -3.271758   -0.407537
     41          6           0       -6.113601   -2.316704   -1.985389
     42          6           0       -4.469624   -5.096614   -1.266521
     43          6           0       -6.922795   -3.304682   -2.463460
     44          1           0        4.719370   -2.146479    0.311732
     45          1           0        5.312420    0.701772    1.247163
     46          1           0        4.769713   -0.915580    2.181900
     47          1           0        2.838790    1.846922    0.004624
     48          1           0        3.410815   -0.628568   -1.453764
     49          1           0       -0.394763    0.089185    3.402150
     50          1           0       -1.311243    0.300323    2.060356
     51          1           0        0.549794    2.943078   -0.014871
     52          1           0        3.482140   -1.301626    3.544116
     53          1           0        1.783654   -1.271655    4.024260
     54          1           0        2.344146   -2.547793    2.770618
     55          1           0        6.492537   -2.292676    1.631380
     56          1           0        7.763112   -0.771222    1.449286
     57          1           0        8.085262   -2.115287    0.521132
     58          1           0       -1.048560   -2.135721    1.478908
     59          1           0       -0.282271   -2.322847    3.168356
     60          1           0       -1.724033   -0.330014   -0.243568
     61          1           0       -2.161471    5.035805   -1.548529
     62          1           0       -0.542454    4.449665   -1.236141
     63          1           0        7.694528   -0.785246   -3.306958
     64          1           0       -1.167377    4.569526    1.291881
     65          1           0       -2.733852    5.255100    0.920529
     66          1           0       -4.504377    4.216999   -1.920443
     67          1           0       -5.284978    2.771211   -1.279502
     68          1           0       -4.492304    2.668980   -2.821947
     69          1           0       -4.908625    0.043260   -1.645893
     70          1           0        9.344820   -1.172725   -0.758301
     71          1           0        9.937832   -1.139838   -2.649578
     72          1           0       -3.570871   -3.010979    3.452679
     73          1           0       -6.402427   -1.298405   -1.943832
     74          1           0       -4.512494   -5.359804   -2.353767
     75          1           0       -3.770505   -5.593426   -0.643912
     76          1           0       -5.503150   -5.495908   -0.861712
     77          1           0       -1.251819    8.142479    1.077802
     78          1           0       -8.015067   -3.012156   -2.834948
     79          1           0       -6.612092   -4.192970   -2.681116
 ---------------------------------------------------------------------

 SCF Done:  E(RB3LYP) =  -1947.87851005     A.U. after   17 cycles

 Excitation energies and oscillator strengths:

 Excited State   1:      Singlet-A      2.1016 eV  589.95 nm  f=0.5387  <S**2>=0.000
     154 ->156         0.14088
     155 ->156         0.69228
     155 <-156        -0.12343
 This state for optimization and/or second-order correction.
 Total Energy, E(TD-HF/TD-KS) =  -1947.80127774
 Copying the excited state density for this state as the 1-particle RhoCI density.

 The electronic state is 1-A.
 Alpha  occ. eigenvalues --  -19.19802 -19.18106 -19.13424 -19.11521 -19.10756
 Alpha  occ. eigenvalues --  -19.09867 -14.40222 -14.35322 -14.35203 -14.29533
 Alpha  occ. eigenvalues --  -10.32263 -10.30885 -10.27830 -10.27052 -10.24839
 Alpha  occ. eigenvalues --  -10.24400 -10.24303 -10.24044 -10.23684 -10.23522
 Alpha  occ. eigenvalues --  -10.23475 -10.22477 -10.22080 -10.21599 -10.21075
 Alpha  occ. eigenvalues --  -10.21008 -10.20722 -10.20451 -10.20375 -10.20368
 Alpha  occ. eigenvalues --  -10.20293 -10.20244 -10.20091 -10.19688 -10.19630
 Alpha  occ. eigenvalues --  -10.19573 -10.19454 -10.19397 -10.19262 -10.19132
 Alpha  occ. eigenvalues --  -10.18534 -10.17985 -10.17526  -1.10353  -1.10139
 Alpha  occ. eigenvalues --   -1.05356  -1.01520  -1.00903  -0.99621  -0.99207
 Alpha  occ. eigenvalues --   -0.97776  -0.95429  -0.90082  -0.83228  -0.82623
 Alpha  occ. eigenvalues --   -0.82327  -0.81364  -0.80194  -0.79880  -0.77874
 Alpha  occ. eigenvalues --   -0.77523  -0.76611  -0.76114  -0.75289  -0.73141
 Alpha  occ. eigenvalues --   -0.71438  -0.71282  -0.69640  -0.69107  -0.68178
 Alpha  occ. eigenvalues --   -0.67974  -0.66696  -0.63946  -0.61248  -0.60732
 Alpha  occ. eigenvalues --   -0.59154  -0.58520  -0.58259  -0.57797  -0.57400
 Alpha  occ. eigenvalues --   -0.55802  -0.55208  -0.54839  -0.54463  -0.53392
 Alpha  occ. eigenvalues --   -0.52602  -0.52241  -0.51256  -0.50316  -0.49537
 Alpha  occ. eigenvalues --   -0.49443  -0.49193  -0.48730  -0.48467  -0.48262
 Alpha  occ. eigenvalues --   -0.47756  -0.47596  -0.46842  -0.46436  -0.46095
 Alpha  occ. eigenvalues --   -0.45836  -0.44922  -0.44441  -0.44244  -0.44117
 Alpha  occ. eigenvalues --   -0.44027  -0.43483  -0.43230  -0.42917  -0.42718
 Alpha  occ. eigenvalues --   -0.42607  -0.42237  -0.41795  -0.41549  -0.41414
 Alpha  occ. eigenvalues --   -0.41127  -0.40991  -0.40615  -0.40425  -0.40222
 Alpha  occ. eigenvalues --   -0.39659  -0.39482  -0.39052  -0.38816  -0.38670
 Alpha  occ. eigenvalues --   -0.38298  -0.37891  -0.37595  -0.37444  -0.37209
 Alpha  occ. eigenvalues --   -0.36738  -0.36493  -0.35254  -0.34835  -0.34399
 Alpha  occ. eigenvalues --   -0.34098  -0.33685  -0.33509  -0.33046  -0.32333
 Alpha  occ. eigenvalues --   -0.31293  -0.31166  -0.29145  -0.28915  -0.27834
 Alpha  occ. eigenvalues --   -0.27291  -0.26748  -0.25700  -0.25361  -0.25012
 Alpha  occ. eigenvalues --   -0.24896  -0.23770  -0.23725  -0.21854  -0.18831
 Alpha virt. eigenvalues --   -0.10863  -0.06405  -0.04559  -0.01011  -0.00489
 Alpha virt. eigenvalues --    0.00507   0.00860   0.01566   0.02021   0.02339
 Alpha virt. eigenvalues --    0.03186   0.03874   0.04400   0.05162   0.05984

 Mulliken charges:
               1
     1  O   -0.166718
     2  O   -0.128322
     3  O   -0.271379
     4  O   -0.221265
     5  O   -0.241365
     6  O   -0.198329
     7  N   -0.090525
     8  N   -0.154594
     9  N   -0.141012
    10  N   -0.333393
    11  C    0.137767
    12  C    0.105628
    13  C   -0.032103
    14  C   -0.186569
    15  C   -0.005733
    16  C    0.082361
    17  C   -0.264527
    18  C    0.135982
    19  C   -0.050390
    20  C   -0.090341
    21  C    0.103791
    22  C    0.075655
    23  C   -0.066066
    24  C    0.087016
    25  C    0.078311
    26  C   -0.107948
    27  C   -0.100930
    28  C    0.171204
    29  C    0.076171
    30  C   -0.010752
    31  C   -0.058597
    32  C    0.105977
    33  C    0.057080
    34  C    0.145376
    35  C    0.020631
    36  C    0.008921
    37  C    0.126852
    38  C    0.059509
    39  C   -0.194958
    40  C    0.188615
    41  C   -0.002893
    42  C    0.033838
    43  C    0.020755
    44  H    0.005665
    45  H    0.031140
    46  H    0.012267
    47  H    0.157834
    48  H    0.126735
    49  H   -0.003929
    50  H   -0.015809
    51  H   -0.011134
    52  H    0.016522
    53  H    0.010136
    54  H    0.050246
    55  H    0.045256
    56  H    0.040301
    57  H    0.012588
    58  H    0.093255
    59  H    0.028325
    60  H    0.176274
    61  H    0.022561
    62  H    0.024269
    63  H    0.012516
    64  H    0.044921
    65  H    0.049211
    66  H    0.025299
    67  H    0.022827
    68  H    0.022206
    69  H   -0.202983
    70  H   -0.002653
    71  H    0.044568
    72  H    0.144167
    73  H   -0.009763
    74  H    0.052952
    75  H    0.017724
    76  H    0.030897
    77  H    0.221686
    78  H    0.038396
    79  H   -0.037202
 Sum of Mulliken charges =   0.00000

 Dipole moment (field-independent basis, Debye):
    X=              1.4840    Y=              2.8874    Z=              3.0948  Tot=              4.4852
 Quadrupole moment (field-independent basis, Debye-Ang):
   XX=           -220.7616   YY=           -244.7134   ZZ=           -264.9713
   XY=             -7.5552   XZ=             31.3738   YZ=              3.1199

 Normal termination of Gaussian 09 at Mon Jul  8 17:16:00 2019.
