 Gaussian 09, Revision D.01,
 Gaussian 09:  ES64L-G09RevD.01 24-Apr-2013

 --------------------------
 # td=(NStates=1) B3LYP/SVP
 --------------------------

 --
 TD
 --
 Symbolic Z-matrix:
 Charge =  0 Multiplicity = 1

                         Standard orientation:
 ---------------------------------------------------------------------
 Center     Atomic      Atomic             Coordinates (Angstroms)
 Number     Number       Type             X           Y           Z
 ---------------------------------------------------------------------
      1          8           0        5.259558   -0.077752   -3.226923
      2          8           0       -2.647683   -3.215724    3.212056
      3          8           0       -3.162001   -0.968541    3.373106
      4          8           0       -1.912698    7.314395    1.418005
      5          8           0       -0.940369    7.174580   -0.453321
      6          8           0       -1.786194   -4.066404    0.003744
      7          7           0        2.412474    1.022515    0.524331
      8          7           0        4.472282   -0.712553   -1.255141
      9          7           0       -1.845498    0.597685   -0.494466
     10          7           0       -2.642909   -1.944779   -0.504639
     11          6           0        4.908409   -1.090839   -0.022709
     12          6           0        4.426889   -0.203451    1.157129
     13          6           0        3.025772    0.041466    1.247455
     14          6           0        2.042794   -0.591085    2.050536
     15          6           0        0.739210    0.047872    1.784621
     16          6           0        0.907128    0.996288    0.742924
     17          6           0        6.458443   -1.099262   -0.145692
     18          6           0       -0.495719   -0.245737    2.478328
     19          6           0        6.746968   -0.744932   -1.346014
     20          6           0        0.130564    2.054393    0.210694
     21          6           0       -1.117964    1.810596   -0.311001
     22          6           0        5.456473   -0.534255   -2.099222
     23          6           0       -2.071338    2.926182   -0.834892
     24          6           0        2.294585   -1.625348    3.139580
     25          6           0        7.381721   -1.700154    0.900989
     26          6           0       -3.193486    2.337634   -1.249435
     27          6           0       -1.001408   -1.671696    2.492897
     28          6           0       -3.098131    0.818592   -0.996608
     29          6           0       -1.714489    4.427376   -0.910029
     30          6           0        8.028579   -0.668035   -2.101149
     31          6           0       -2.059504    5.097866    0.338914
     32          6           0       -4.434088    2.897415   -1.933174
     33          6           0       -4.032378   -0.112297   -1.261349
     34          6           0       -2.449193   -1.861198    3.060921
     35          6           0       -3.773821   -1.489821   -1.023652
     36          6           0        9.251109   -0.671295   -1.546611
     37          6           0       -1.596241    6.628046    0.356807
     38          6           0       -4.721005   -2.706556   -1.365979
     39          6           0       -3.902864   -3.813340   -1.137403
     40          6           0       -2.586588   -3.242569   -0.484476
     41          6           0       -5.947222   -2.626940   -2.053329
     42          6           0       -4.145530   -5.277393   -1.239933
     43          6           0       -6.659700   -3.653747   -2.562507
     44          1           0        4.529962   -2.234110    0.195429
     45          1           0        5.002032    0.757915    1.070758
     46          1           0        4.883922   -0.648680    2.021545
     47          1           0        2.716534    1.455685   -0.372295
     48          1           0        3.328197   -0.594701   -1.521965
     49          1           0       -0.355922    0.061485    3.533241
     50          1           0       -1.292274    0.387323    2.144154
     51          1           0        0.501259    3.071317    0.097881
     52          1           0        3.127939   -1.531144    3.927129
     53          1           0        1.400857   -1.658564    3.826574
     54          1           0        2.062037   -2.684892    2.887922
     55          1           0        6.872478   -2.485872    1.526511
     56          1           0        7.545623   -0.833435    1.673181
     57          1           0        8.205174   -1.935655    0.416581
     58          1           0       -1.308199   -2.029966    1.527051
     59          1           0       -0.236137   -2.428403    2.884964
     60          1           0       -1.411876   -0.219815   -0.399176
     61          1           0       -2.388638    4.865250   -1.767894
     62          1           0       -0.619948    4.768972   -0.989075
     63          1           0        8.027699   -0.461686   -3.052693
     64          1           0       -1.558901    4.756808    1.230439
     65          1           0       -3.088426    5.030071    0.569274
     66          1           0       -4.464227    4.040648   -1.786930
     67          1           0       -5.301741    2.280457   -1.428410
     68          1           0       -4.483282    2.585342   -2.899174
     69          1           0       -4.889939    0.124292   -1.578257
     70          1           0        9.208117   -0.543495   -0.365113
     71          1           0       10.263357   -0.937948   -2.159242
     72          1           0       -3.576908   -3.209070    3.678182
     73          1           0       -6.335756   -1.650807   -2.013506
     74          1           0       -4.429179   -5.670031   -2.251982
     75          1           0       -3.445283   -5.915561   -0.575305
     76          1           0       -5.190570   -5.487484   -0.590280
     77          1           0       -1.495971    8.225513    1.328299
     78          1           0       -7.580130   -3.391459   -2.885870
     79          1           0       -6.269080   -4.605464   -2.425665
 ---------------------------------------------------------------------

 SCF Done:  E(RB3LYP) =  -1947.83760092     A.U. after   16 cycles

 Excitation energies and oscillator strengths:

 Excited State   1:      Singlet-A      2.2233 eV  557.66 nm  f=0.3546  <S**2>=0.000
     153 ->156         0.10135
     154 ->156        -0.12345
     155 ->156         0.68136
 This state for optimization and/or second-order correction.
 Total Energy, E(TD-HF/TD-KS) =  -1947.75589622
 Copying the excited state density for this state as the 1-particle RhoCI density.

 The electronic state is 1-A.
 Alpha  occ. eigenvalues --  -19.18885 -19.17656 -19.12817 -19.12608 -19.10109
 Alpha  occ. eigenvalues --  -19.08231 -14.38067 -14.37740 -14.36165 -14.29605
 Alpha  occ. eigenvalues --  -10.32306 -10.31060 -10.27355 -10.26470 -10.26381
 Alpha  occ. eigenvalues --  -10.25545 -10.25280 -10.25142 -10.23373 -10.23240
 Alpha  occ. eigenvalues --  -10.22707 -10.22474 -10.22146 -10.22039 -10.21769
 Alpha  occ. eigenvalues --  -10.21513 -10.21332 -10.21197 -10.21138 -10.20872
 Alpha  occ. eigenvalues --  -10.20554 -10.20329 -10.20155 -10.19823 -10.19821
 Alpha  occ. eigenvalues --  -10.19768 -10.19669 -10.19168 -10.19094 -10.18654
 Alpha  occ. eigenvalues --  -10.18475 -10.18448 -10.17767  -1.12806  -1.08165
 Alpha  occ. eigenvalues --   -1.02582  -1.01600  -1.00491  -1.00308  -0.98556
 Alpha  occ. eigenvalues --   -0.96013  -0.94887  -0.93279  -0.83937  -0.83094
 Alpha  occ. eigenvalues --   -0.82818  -0.81153  -0.80877  -0.80246  -0.79285
 Alpha  occ. eigenvalues --   -0.77705  -0.76273  -0.75530  -0.74549  -0.72889
 Alpha  occ. eigenvalues --   -0.72097  -0.71172  -0.69731  -0.68638  -0.68414
 Alpha  occ. eigenvalues --   -0.66683  -0.66054  -0.64339  -0.61451  -0.61143
 Alpha  occ. eigenvalues --   -0.60684  -0.60290  -0.59247  -0.58190  -0.57046
 Alpha  occ. eigenvalues --   -0.56619  -0.55607  -0.54916  -0.54267  -0.53266
 Alpha  occ. eigenvalues --   -0.52851  -0.52276  -0.51271  -0.50753  -0.50334
 Alpha  occ. eigenvalues --   -0.49271  -0.48939  -0.48683  -0.48116  -0.47898
 Alpha  occ. eigenvalues --   -0.47673  -0.47369  -0.46905  -0.46710  -0.46075
 Alpha  occ. eigenvalues --   -0.45649  -0.45600  -0.45315  -0.45061  -0.43839
 Alpha  occ. eigenvalues --   -0.43696  -0.43469  -0.43198  -0.42997  -0.42920
 Alpha  occ. eigenvalues --   -0.42600  -0.42132  -0.41822  -0.41388  -0.41229
 Alpha  occ. eigenvalues --   -0.41003  -0.40902  -0.40820  -0.40596  -0.40234
 Alpha  occ. eigenvalues --   -0.39608  -0.39448  -0.39312  -0.38570  -0.38415
 Alpha  occ. eigenvalues --   -0.38307  -0.37998  -0.37609  -0.37299  -0.36552
 Alpha  occ. eigenvalues --   -0.36350  -0.36138  -0.35303  -0.35053  -0.34543
 Alpha  occ. eigenvalues --   -0.34143  -0.33913  -0.33204  -0.32713  -0.32026
 Alpha  occ. eigenvalues --   -0.31620  -0.31541  -0.29124  -0.28884  -0.27487
 Alpha  occ. eigenvalues --   -0.27207  -0.26983  -0.25464  -0.25266  -0.24709
 Alpha  occ. eigenvalues --   -0.24011  -0.23686  -0.23320  -0.22039  -0.19921
 Alpha virt. eigenvalues --   -0.10854  -0.06062  -0.05067  -0.01753   0.00013
 Alpha virt. eigenvalues --    0.01068   0.01261   0.01775   0.02053   0.02298
 Alpha virt. eigenvalues --    0.03172   0.03961   0.04401   0.04740   0.05076

 Mulliken charges:
               1
     1  O   -0.254031
     2  O   -0.224296
     3  O   -0.196363
     4  O   -0.163249
     5  O   -0.210221
     6  O   -0.239115
     7  N   -0.169003
     8  N   -0.137508
     9  N   -0.023856
    10  N   -0.186071
    11  C   -0.007299
    12  C    0.213917
    13  C   -0.031573
    14  C   -0.108683
    15  C   -0.048039
    16  C    0.053408
    17  C   -0.222894
    18  C    0.139593
    19  C   -0.020676
    20  C   -0.081823
    21  C    0.080193
    22  C    0.099524
    23  C   -0.078404
    24  C    0.045289
    25  C    0.149718
    26  C   -0.144653
    27  C   -0.021497
    28  C    0.171246
    29  C    0.049991
    30  C    0.064997
    31  C    0.015479
    32  C    0.117496
    33  C   -0.006755
    34  C    0.127227
    35  C    0.061726
    36  C   -0.094518
    37  C    0.080203
    38  C    0.045128
    39  C   -0.185723
    40  C    0.128859
    41  C   -0.055034
    42  C   -0.004153
    43  C    0.096854
    44  H    0.028598
    45  H   -0.008745
    46  H   -0.020974
    47  H    0.131994
    48  H    0.194443
    49  H    0.007527
    50  H   -0.014210
    51  H   -0.003291
    52  H    0.036802
    53  H   -0.005775
    54  H    0.024729
    55  H    0.033425
    56  H    0.036730
    57  H   -0.007979
    58  H    0.033270
    59  H    0.029718
    60  H    0.093532
    61  H    0.038526
    62  H    0.042271
    63  H   -0.053567
    64  H    0.031399
    65  H    0.014125
    66  H    0.043116
    67  H    0.043473
    68  H    0.010776
    69  H   -0.151463
    70  H    0.036693
    71  H    0.066674
    72  H    0.193150
    73  H   -0.039178
    74  H    0.055958
    75  H    0.056996
    76  H    0.033041
    77  H    0.199484
    78  H   -0.010631
    79  H   -0.026044
 Sum of Mulliken charges =   0.00000

 Dipole moment (field-independent basis, Debye):
    X=             -0.7880    Y=              3.0455    Z=              3.1714  Tot=              4.4670
 Quadrupole moment (field-independent basis, Debye-Ang):
   XX=           -222.6383   YY=           -247.6308   ZZ=           -264.3755
   XY=            -12.2387   XZ=             30.3179   YZ=              2.5437

 Normal termination of Gaussian 09 at Sun Jul  7 13:49:00 2019.
