 Gaussian 09, Revision D.01,
 Gaussian 09:  ES64L-G09RevD.01 24-Apr-2013

 --------------------------
 # td=(NStates=1) B3LYP/SVP
 --------------------------

 --
 TD
 --
 Symbolic Z-matrix:
 Charge =  0 Multiplicity = 1

                         Standard orientation:
 ---------------------------------------------------------------------
 Center     Atomic      Atomic             Coordinates (Angstroms)
 Number     Number       Type             X           Y           Z
 ---------------------------------------------------------------------
      1          8           0        5.368164   -0.468379   -3.486389
      2          8           0       -2.650855   -3.340537    3.447130
      3          8           0       -3.274546   -1.157661    3.283199
      4          8           0       -1.629767    7.184173    1.504774
      5          8           0       -0.341404    7.058865   -0.272349
      6          8           0       -2.028457   -3.959167   -0.078746
      7          7           0        2.249676    0.926259    0.660362
      8          7           0        4.448864   -0.662801   -1.238648
      9          7           0       -1.872640    0.762247   -0.370141
     10          7           0       -2.736921   -1.834823   -0.395168
     11          6           0        4.853492   -1.122811    0.078898
     12          6           0        4.378825   -0.207097    1.277987
     13          6           0        2.913028    0.070654    1.421494
     14          6           0        1.978922   -0.611877    2.150153
     15          6           0        0.636043   -0.063817    1.823677
     16          6           0        0.942494    0.998535    0.945286
     17          6           0        6.334766   -1.201124   -0.200782
     18          6           0       -0.583194   -0.328480    2.478338
     19          6           0        6.696445   -0.872637   -1.444753
     20          6           0        0.144355    2.054885    0.274611
     21          6           0       -1.105877    1.893936   -0.211184
     22          6           0        5.416845   -0.616283   -2.300461
     23          6           0       -1.887268    2.977465   -0.767412
     24          6           0        2.203777   -1.647228    3.191969
     25          6           0        7.272643   -1.611554    1.112243
     26          6           0       -3.077389    2.465010   -1.318928
     27          6           0       -1.014975   -1.850990    2.454722
     28          6           0       -3.077510    0.999828   -0.969798
     29          6           0       -1.547932    4.378236   -0.964254
     30          6           0        7.980427   -0.975782   -2.174010
     31          6           0       -1.921949    5.144067    0.330510
     32          6           0       -4.255552    3.071634   -1.874150
     33          6           0       -3.953517   -0.083688   -1.366656
     34          6           0       -2.445767   -2.011165    3.102037
     35          6           0       -3.803344   -1.351224   -1.043641
     36          6           0        9.184320   -0.954653   -1.695633
     37          6           0       -1.146342    6.481383    0.381375
     38          6           0       -4.722154   -2.375939   -1.524367
     39          6           0       -4.111138   -3.571891   -1.087312
     40          6           0       -2.849812   -3.198363   -0.502608
     41          6           0       -5.947049   -2.246199   -2.298157
     42          6           0       -4.478652   -5.033113   -1.354733
     43          6           0       -6.909566   -3.238009   -2.565344
     44          1           0        4.349484   -2.090258    0.083083
     45          1           0        4.876090    0.734527    1.163352
     46          1           0        4.624994   -0.604572    2.119259
     47          1           0        2.692477    1.325095   -0.297765
     48          1           0        3.535613   -0.884178   -1.895205
     49          1           0       -0.328818   -0.209493    3.477047
     50          1           0       -1.379401    0.074894    2.115835
     51          1           0        0.532170    2.963506    0.066195
     52          1           0        3.341440   -1.891607    3.294048
     53          1           0        1.618854   -1.563382    4.161703
     54          1           0        2.121733   -2.772731    2.759372
     55          1           0        6.674789   -2.054857    1.950749
     56          1           0        7.801875   -0.723488    1.360712
     57          1           0        8.106981   -2.153480    0.548795
     58          1           0       -0.876187   -2.241843    1.657781
     59          1           0       -0.293760   -2.450859    3.031669
     60          1           0       -1.529226   -0.232988   -0.204141
     61          1           0       -1.955489    4.606711   -1.963282
     62          1           0       -0.450603    4.300878   -1.202818
     63          1           0        7.802621   -1.033080   -3.150520
     64          1           0       -1.553748    4.638751    1.054869
     65          1           0       -3.024781    5.122942    0.405506
     66          1           0       -3.889567    4.122668   -2.113723
     67          1           0       -5.028832    3.068743   -1.167976
     68          1           0       -4.439679    2.462399   -2.767562
     69          1           0       -4.791895    0.157276   -1.855669
     70          1           0        9.440256   -0.667537   -0.794208
     71          1           0       10.122353   -1.065301   -2.255657
     72          1           0       -3.580606   -3.626045    3.367747
     73          1           0       -5.929605   -1.183435   -3.000882
     74          1           0       -4.913935   -5.100012   -2.385060
     75          1           0       -3.290143   -5.804534   -1.170738
     76          1           0       -5.297539   -5.184743   -0.488118
     77          1           0       -1.266763    8.162825    1.538480
     78          1           0       -7.899015   -2.915316   -3.108629
     79          1           0       -6.674441   -4.332254   -2.264739
 ---------------------------------------------------------------------

 SCF Done:  E(RB3LYP) =  -1947.70953584     A.U. after   18 cycles

 Excitation energies and oscillator strengths:

 Excited State   1:      Singlet-A      2.0540 eV  603.63 nm  f=0.2478  <S**2>=0.000
     154 ->156         0.33117
     155 ->156         0.61656
 This state for optimization and/or second-order correction.
 Total Energy, E(TD-HF/TD-KS) =  -1947.63405411
 Copying the excited state density for this state as the 1-particle RhoCI density.

 The electronic state is 1-A.
 Alpha  occ. eigenvalues --  -19.16839 -19.15399 -19.14587 -19.12735 -19.11939
 Alpha  occ. eigenvalues --  -19.08983 -14.38427 -14.37525 -14.36358 -14.27486
 Alpha  occ. eigenvalues --  -10.33398 -10.31049 -10.29872 -10.25905 -10.25810
 Alpha  occ. eigenvalues --  -10.24478 -10.24456 -10.22795 -10.22640 -10.22408
 Alpha  occ. eigenvalues --  -10.22371 -10.22337 -10.22083 -10.21956 -10.21927
 Alpha  occ. eigenvalues --  -10.21720 -10.21617 -10.21412 -10.21330 -10.21324
 Alpha  occ. eigenvalues --  -10.21290 -10.20950 -10.20543 -10.20249 -10.19920
 Alpha  occ. eigenvalues --  -10.19428 -10.19228 -10.19117 -10.18884 -10.18249
 Alpha  occ. eigenvalues --  -10.17826 -10.17038 -10.16694  -1.09356  -1.06500
 Alpha  occ. eigenvalues --   -1.04732  -1.01836  -1.00091  -0.99211  -0.98721
 Alpha  occ. eigenvalues --   -0.98643  -0.94178  -0.92239  -0.84886  -0.82724
 Alpha  occ. eigenvalues --   -0.81825  -0.81347  -0.80702  -0.79503  -0.79089
 Alpha  occ. eigenvalues --   -0.77626  -0.76617  -0.75827  -0.74196  -0.72997
 Alpha  occ. eigenvalues --   -0.72083  -0.70562  -0.69673  -0.68903  -0.68728
 Alpha  occ. eigenvalues --   -0.67386  -0.66915  -0.64689  -0.62016  -0.60693
 Alpha  occ. eigenvalues --   -0.59761  -0.59397  -0.58324  -0.57528  -0.56427
 Alpha  occ. eigenvalues --   -0.56108  -0.55861  -0.55407  -0.54227  -0.53323
 Alpha  occ. eigenvalues --   -0.52303  -0.52188  -0.51881  -0.51207  -0.50445
 Alpha  occ. eigenvalues --   -0.49898  -0.48956  -0.48354  -0.48124  -0.47808
 Alpha  occ. eigenvalues --   -0.47254  -0.47081  -0.46833  -0.46280  -0.45922
 Alpha  occ. eigenvalues --   -0.45825  -0.45490  -0.44366  -0.44043  -0.44025
 Alpha  occ. eigenvalues --   -0.43824  -0.43670  -0.43388  -0.43175  -0.42821
 Alpha  occ. eigenvalues --   -0.42544  -0.42347  -0.42102  -0.41975  -0.41673
 Alpha  occ. eigenvalues --   -0.41527  -0.41209  -0.41013  -0.40386  -0.40211
 Alpha  occ. eigenvalues --   -0.39983  -0.39701  -0.39495  -0.39212  -0.38931
 Alpha  occ. eigenvalues --   -0.38072  -0.37624  -0.36976  -0.36910  -0.36815
 Alpha  occ. eigenvalues --   -0.36338  -0.36210  -0.35088  -0.34953  -0.34894
 Alpha  occ. eigenvalues --   -0.34460  -0.32831  -0.32512  -0.32389  -0.32241
 Alpha  occ. eigenvalues --   -0.30634  -0.30517  -0.29383  -0.28283  -0.27379
 Alpha  occ. eigenvalues --   -0.27024  -0.26932  -0.26547  -0.25956  -0.25198
 Alpha  occ. eigenvalues --   -0.23669  -0.23550  -0.23336  -0.21512  -0.19706
 Alpha virt. eigenvalues --   -0.11163  -0.06566  -0.05199  -0.01504  -0.01217
 Alpha virt. eigenvalues --    0.00805   0.01235   0.01458   0.02059   0.02714
 Alpha virt. eigenvalues --    0.02937   0.03651   0.03941   0.04109   0.04160

 Mulliken charges:
               1
     1  O   -0.184235
     2  O   -0.233876
     3  O   -0.204582
     4  O   -0.292423
     5  O   -0.174077
     6  O   -0.186082
     7  N   -0.062043
     8  N   -0.342827
     9  N   -0.084982
    10  N   -0.259570
    11  C    0.167674
    12  C    0.357631
    13  C   -0.145960
    14  C   -0.118848
    15  C   -0.110293
    16  C    0.042443
    17  C   -0.215595
    18  C    0.239894
    19  C   -0.080131
    20  C   -0.069633
    21  C    0.144127
    22  C    0.167628
    23  C   -0.151752
    24  C    0.017681
    25  C    0.069918
    26  C   -0.167136
    27  C    0.101509
    28  C    0.102704
    29  C    0.039590
    30  C    0.080444
    31  C    0.158224
    32  C    0.135724
    33  C   -0.093772
    34  C    0.176133
    35  C    0.153532
    36  C    0.023894
    37  C    0.148217
    38  C    0.013152
    39  C   -0.179149
    40  C    0.092933
    41  C   -0.072483
    42  C   -0.049837
    43  C   -0.090821
    44  H    0.018179
    45  H   -0.021945
    46  H   -0.078849
    47  H    0.165318
    48  H    0.156417
    49  H   -0.015516
    50  H   -0.054708
    51  H   -0.062830
    52  H   -0.007359
    53  H    0.053991
    54  H    0.033834
    55  H    0.047799
    56  H    0.026599
    57  H    0.043588
    58  H   -0.086060
    59  H    0.002268
    60  H    0.170980
    61  H    0.028977
    62  H    0.016431
    63  H   -0.044462
    64  H   -0.026314
    65  H    0.055280
    66  H    0.013435
    67  H    0.037979
    68  H    0.038740
    69  H   -0.099950
    70  H   -0.039423
    71  H    0.021269
    72  H    0.186655
    73  H    0.041983
    74  H    0.058643
    75  H    0.082818
    76  H    0.061982
    77  H    0.210877
    78  H    0.055066
    79  H    0.045366
 Sum of Mulliken charges =   0.00000

 Dipole moment (field-independent basis, Debye):
    X=              1.2943    Y=              3.3495    Z=              1.0142  Tot=              3.7313
 Quadrupole moment (field-independent basis, Debye-Ang):
   XX=           -224.4640   YY=           -250.8382   ZZ=           -265.7513
   XY=            -11.7628   XZ=             32.4441   YZ=             -0.3032

 Normal termination of Gaussian 09 at Tue Jul  9 07:55:19 2019.
