 Gaussian 09, Revision D.01,
 Gaussian 09:  ES64L-G09RevD.01 24-Apr-2013

 --------------------------
 # td=(NStates=1) B3LYP/SVP
 --------------------------

 --
 TD
 --
 Symbolic Z-matrix:
 Charge =  0 Multiplicity = 1

                         Standard orientation:
 ---------------------------------------------------------------------
 Center     Atomic      Atomic             Coordinates (Angstroms)
 Number     Number       Type             X           Y           Z
 ---------------------------------------------------------------------
      1          8           0        5.450242   -0.004203   -3.297138
      2          8           0       -2.860508   -3.186130    3.280514
      3          8           0       -3.205197   -0.934206    3.116478
      4          8           0       -2.237868    7.331385    1.335182
      5          8           0       -0.534053    6.903283   -0.296588
      6          8           0       -1.789999   -4.071641    0.006255
      7          7           0        2.367138    0.877676    0.518711
      8          7           0        4.478369   -0.396850   -1.259160
      9          7           0       -1.845582    0.650765   -0.444732
     10          7           0       -2.512449   -1.900079   -0.677425
     11          6           0        4.833461   -1.080243    0.085056
     12          6           0        4.452280   -0.283061    1.275790
     13          6           0        2.928918    0.012062    1.321672
     14          6           0        1.989223   -0.624956    2.134252
     15          6           0        0.718465   -0.060917    1.793109
     16          6           0        0.977289    0.890179    0.803599
     17          6           0        6.402538   -1.192064   -0.132191
     18          6           0       -0.612297   -0.329525    2.570757
     19          6           0        6.770725   -0.810429   -1.456271
     20          6           0        0.116764    1.939222    0.121315
     21          6           0       -1.166222    1.806575   -0.288092
     22          6           0        5.484185   -0.347471   -2.157899
     23          6           0       -2.043531    2.817719   -0.766921
     24          6           0        2.261547   -1.651399    3.144132
     25          6           0        7.307610   -1.763439    0.877599
     26          6           0       -3.267563    2.324465   -1.191229
     27          6           0       -1.054386   -1.769643    2.340464
     28          6           0       -3.103757    0.902865   -0.926373
     29          6           0       -1.559072    4.293737   -0.755689
     30          6           0        8.118320   -0.558047   -2.019954
     31          6           0       -2.004886    5.072635    0.405635
     32          6           0       -4.377195    3.008266   -1.948689
     33          6           0       -3.986424   -0.112457   -1.186785
     34          6           0       -2.476823   -1.870365    2.977239
     35          6           0       -3.665886   -1.485933   -1.195436
     36          6           0        9.265125   -0.699737   -1.383207
     37          6           0       -1.494933    6.553546    0.433342
     38          6           0       -4.644351   -2.634408   -1.553164
     39          6           0       -3.976400   -3.760581   -1.139646
     40          6           0       -2.586974   -3.348561   -0.610406
     41          6           0       -5.989706   -2.332940   -2.095752
     42          6           0       -4.273315   -5.179048   -1.158324
     43          6           0       -6.676476   -3.444387   -2.482151
     44          1           0        4.377795   -2.150633    0.009132
     45          1           0        5.003205    0.739684    1.350115
     46          1           0        4.898571   -0.882236    2.086652
     47          1           0        2.661058    1.641060   -0.058447
     48          1           0        3.423081   -0.465820   -1.513836
     49          1           0       -0.520611    0.138256    3.583299
     50          1           0       -1.403845    0.148424    2.076614
     51          1           0        0.454405    2.906056    0.060265
     52          1           0        3.324745   -1.603815    3.460029
     53          1           0        1.601561   -1.507184    4.022750
     54          1           0        1.999049   -2.745356    2.795258
     55          1           0        6.645263   -2.506022    1.224102
     56          1           0        7.516537   -0.837063    1.706852
     57          1           0        8.214106   -2.209095    0.572973
     58          1           0       -1.064422   -2.154954    1.190899
     59          1           0       -0.166030   -2.552667    2.855438
     60          1           0       -1.587116   -0.403108   -0.291662
     61          1           0       -1.984099    4.566415   -1.641505
     62          1           0       -0.281961    4.189206   -0.845132
     63          1           0        7.968984   -0.442222   -3.093220
     64          1           0       -1.588342    4.446469    1.280916
     65          1           0       -3.212040    5.152882    0.432674
     66          1           0       -4.237812    4.042413   -2.151277
     67          1           0       -5.473561    2.881146   -1.467151
     68          1           0       -4.500808    2.521097   -2.972108
     69          1           0       -5.060906    0.184279   -1.620195
     70          1           0        9.508955   -1.049142   -0.324388
     71          1           0       10.136402   -0.278775   -2.080311
     72          1           0       -3.575795   -3.182576    3.581172
     73          1           0       -6.321405   -1.383477   -1.787859
     74          1           0       -4.380829   -5.497903   -2.239786
     75          1           0       -3.552188   -5.596905   -0.658856
     76          1           0       -5.182550   -5.163141   -0.712409
     77          1           0       -1.742838    8.280644    1.426059
     78          1           0       -7.576556   -3.407661   -2.775600
     79          1           0       -6.310790   -4.436743   -2.615539
 ---------------------------------------------------------------------

 SCF Done:  E(RB3LYP) =  -1947.77974846     A.U. after   16 cycles

 Excitation energies and oscillator strengths:

 Excited State   1:      Singlet-A      2.1772 eV  569.47 nm  f=0.4162  <S**2>=0.000
     152 ->156        -0.10922
     155 ->156         0.69437
 This state for optimization and/or second-order correction.
 Total Energy, E(TD-HF/TD-KS) =  -1947.69973837
 Copying the excited state density for this state as the 1-particle RhoCI density.

 The electronic state is 1-A.
 Alpha  occ. eigenvalues --  -19.20506 -19.14658 -19.14391 -19.12675 -19.11654
 Alpha  occ. eigenvalues --  -19.09033 -14.38576 -14.35812 -14.35153 -14.29876
 Alpha  occ. eigenvalues --  -10.34114 -10.31511 -10.27609 -10.27524 -10.26020
 Alpha  occ. eigenvalues --  -10.24578 -10.23542 -10.23358 -10.23186 -10.23031
 Alpha  occ. eigenvalues --  -10.22920 -10.22508 -10.22124 -10.22111 -10.21677
 Alpha  occ. eigenvalues --  -10.21317 -10.21301 -10.21281 -10.21199 -10.21157
 Alpha  occ. eigenvalues --  -10.21049 -10.20429 -10.20198 -10.19881 -10.19778
 Alpha  occ. eigenvalues --  -10.19664 -10.19650 -10.19532 -10.19190 -10.18939
 Alpha  occ. eigenvalues --  -10.18859 -10.18251 -10.16946  -1.10146  -1.07119
 Alpha  occ. eigenvalues --   -1.02779  -1.02218  -1.01005  -0.99891  -0.99616
 Alpha  occ. eigenvalues --   -0.98876  -0.91905  -0.91348  -0.82955  -0.81745
 Alpha  occ. eigenvalues --   -0.81316  -0.81223  -0.80911  -0.79544  -0.77861
 Alpha  occ. eigenvalues --   -0.77444  -0.76671  -0.75698  -0.75009  -0.72278
 Alpha  occ. eigenvalues --   -0.71132  -0.70411  -0.70247  -0.69423  -0.67613
 Alpha  occ. eigenvalues --   -0.66872  -0.65551  -0.63512  -0.61866  -0.59910
 Alpha  occ. eigenvalues --   -0.59688  -0.59360  -0.58644  -0.57768  -0.56670
 Alpha  occ. eigenvalues --   -0.55653  -0.55422  -0.54778  -0.53961  -0.53372
 Alpha  occ. eigenvalues --   -0.51868  -0.51412  -0.50227  -0.49558  -0.49347
 Alpha  occ. eigenvalues --   -0.48854  -0.48349  -0.48161  -0.47602  -0.47499
 Alpha  occ. eigenvalues --   -0.46922  -0.46498  -0.46401  -0.45799  -0.45608
 Alpha  occ. eigenvalues --   -0.44932  -0.44785  -0.44614  -0.44191  -0.43903
 Alpha  occ. eigenvalues --   -0.43595  -0.43274  -0.42927  -0.42772  -0.42662
 Alpha  occ. eigenvalues --   -0.42333  -0.42132  -0.42085  -0.41815  -0.40987
 Alpha  occ. eigenvalues --   -0.40801  -0.40689  -0.40351  -0.39996  -0.39930
 Alpha  occ. eigenvalues --   -0.39746  -0.39503  -0.39318  -0.38922  -0.38432
 Alpha  occ. eigenvalues --   -0.38119  -0.37846  -0.37435  -0.36947  -0.36794
 Alpha  occ. eigenvalues --   -0.36510  -0.35812  -0.35305  -0.34683  -0.34283
 Alpha  occ. eigenvalues --   -0.34129  -0.33191  -0.32903  -0.31977  -0.31453
 Alpha  occ. eigenvalues --   -0.30787  -0.30626  -0.28989  -0.28882  -0.28340
 Alpha  occ. eigenvalues --   -0.27875  -0.26345  -0.26074  -0.25208  -0.24576
 Alpha  occ. eigenvalues --   -0.24457  -0.23469  -0.23037  -0.22483  -0.19362
 Alpha virt. eigenvalues --   -0.10702  -0.06325  -0.05494  -0.02525  -0.01587
 Alpha virt. eigenvalues --    0.00577   0.01243   0.01752   0.02116   0.03029
 Alpha virt. eigenvalues --    0.03249   0.04128   0.04357   0.04494   0.05066

 Mulliken charges:
               1
     1  O   -0.200272
     2  O   -0.087589
     3  O   -0.204809
     4  O   -0.262208
     5  O   -0.249310
     6  O   -0.225401
     7  N   -0.018532
     8  N   -0.249420
     9  N   -0.099801
    10  N   -0.327393
    11  C    0.049345
    12  C    0.180456
    13  C   -0.085937
    14  C   -0.132992
    15  C   -0.116319
    16  C    0.012528
    17  C   -0.209677
    18  C    0.168012
    19  C   -0.095486
    20  C   -0.046268
    21  C    0.103624
    22  C    0.138613
    23  C   -0.129016
    24  C    0.062508
    25  C    0.085031
    26  C   -0.076520
    27  C   -0.178556
    28  C    0.102621
    29  C    0.069221
    30  C    0.032546
    31  C   -0.019785
    32  C    0.055141
    33  C   -0.152460
    34  C    0.172418
    35  C    0.073205
    36  C   -0.073549
    37  C    0.206788
    38  C    0.006791
    39  C   -0.292080
    40  C    0.213951
    41  C    0.020342
    42  C    0.245580
    43  C    0.086096
    44  H    0.056068
    45  H    0.017382
    46  H   -0.003900
    47  H    0.118810
    48  H    0.153431
    49  H    0.031777
    50  H   -0.018372
    51  H   -0.055623
    52  H    0.003835
    53  H    0.020481
    54  H    0.049137
    55  H    0.015332
    56  H    0.058380
    57  H    0.024513
    58  H    0.131299
    59  H    0.041167
    60  H    0.186939
    61  H   -0.016780
    62  H    0.057859
    63  H    0.018824
    64  H    0.058729
    65  H    0.060878
    66  H    0.010448
    67  H    0.044231
    68  H    0.041861
    69  H    0.000741
    70  H    0.043251
    71  H    0.042688
    72  H    0.051009
    73  H    0.003687
    74  H    0.043150
    75  H   -0.030661
    76  H   -0.003411
    77  H    0.234348
    78  H   -0.051864
    79  H    0.008922
 Sum of Mulliken charges =   0.00000

 Dipole moment (field-independent basis, Debye):
    X=             -1.8927    Y=              2.5939    Z=              3.0035  Tot=              4.3967
 Quadrupole moment (field-independent basis, Debye-Ang):
   XX=           -224.0883   YY=           -239.7004   ZZ=           -263.6454
   XY=            -10.8214   XZ=             37.8955   YZ=              8.2793

 Normal termination of Gaussian 09 at Mon Jul  8 16:22:09 2019.
