 Gaussian 09, Revision D.01,
 Gaussian 09:  ES64L-G09RevD.01 24-Apr-2013

 --------------------------
 # td=(NStates=1) B3LYP/SVP
 --------------------------

 --
 TD
 --
 Symbolic Z-matrix:
 Charge =  0 Multiplicity = 1

                         Standard orientation:
 ---------------------------------------------------------------------
 Center     Atomic      Atomic             Coordinates (Angstroms)
 Number     Number       Type             X           Y           Z
 ---------------------------------------------------------------------
      1          8           0        5.377508   -0.359233   -3.383517
      2          8           0       -2.723582   -3.080394    3.029612
      3          8           0       -3.370903   -1.048290    3.191318
      4          8           0       -1.437801    7.110327    1.581456
      5          8           0       -0.370096    7.120856   -0.437740
      6          8           0       -2.034355   -4.002328   -0.010707
      7          7           0        2.281494    0.998869    0.582821
      8          7           0        4.489465   -0.777798   -1.349386
      9          7           0       -1.887181    0.711766   -0.464348
     10          7           0       -2.736392   -1.833874   -0.425190
     11          6           0        4.829750   -1.239433    0.087125
     12          6           0        4.421754   -0.073912    1.114062
     13          6           0        2.944347    0.097730    1.333726
     14          6           0        2.029651   -0.581776    2.182145
     15          6           0        0.723776    0.009178    1.701322
     16          6           0        0.950878    1.018863    0.728287
     17          6           0        6.381585   -1.308336   -0.087346
     18          6           0       -0.527155   -0.220099    2.488778
     19          6           0        6.721428   -1.072842   -1.364069
     20          6           0        0.192037    1.930092   -0.022819
     21          6           0       -1.128268    1.896290   -0.410473
     22          6           0        5.516800   -0.728133   -2.170031
     23          6           0       -2.017110    2.958316   -0.959062
     24          6           0        2.357053   -1.463140    3.298578
     25          6           0        7.287707   -1.845659    1.098402
     26          6           0       -3.191295    2.476648   -1.309969
     27          6           0       -1.083091   -1.686860    2.541114
     28          6           0       -3.056518    0.980879   -1.039397
     29          6           0       -1.424527    4.380433   -0.908829
     30          6           0        7.905035   -0.949848   -2.110922
     31          6           0       -1.426933    5.056607    0.448107
     32          6           0       -4.394756    3.100792   -1.763320
     33          6           0       -4.026845   -0.037335   -1.351885
     34          6           0       -2.500406   -1.848882    2.979221
     35          6           0       -3.880142   -1.405163   -1.017894
     36          6           0        9.133630   -1.173768   -1.747809
     37          6           0       -1.036944    6.508926    0.408338
     38          6           0       -4.852735   -2.521533   -1.360347
     39          6           0       -4.122798   -3.624588   -0.934272
     40          6           0       -2.897507   -3.291313   -0.362362
     41          6           0       -6.094295   -2.261492   -2.016741
     42          6           0       -4.588781   -5.063100   -1.005800
     43          6           0       -6.912393   -3.233178   -2.529569
     44          1           0        4.410026   -2.096476    0.449731
     45          1           0        4.779372    0.840918    0.878266
     46          1           0        5.004950   -0.584101    2.090250
     47          1           0        2.541716    1.551315   -0.238624
     48          1           0        3.394200   -0.766495   -1.455650
     49          1           0       -0.432102    0.032658    3.632389
     50          1           0       -1.305021    0.428857    1.934375
     51          1           0        0.602427    2.809629   -0.188433
     52          1           0        3.383757   -1.473455    3.461537
     53          1           0        1.836316   -1.203016    4.196943
     54          1           0        2.168928   -2.568738    3.343389
     55          1           0        6.434998   -2.419494    1.695234
     56          1           0        7.906540   -1.131105    1.621915
     57          1           0        8.097100   -2.493169    0.596857
     58          1           0       -1.113398   -1.895706    1.530076
     59          1           0       -0.381619   -2.336017    3.059133
     60          1           0       -1.726097   -0.402774   -0.192195
     61          1           0       -2.087015    5.048122   -1.707989
     62          1           0       -0.475076    4.343748   -1.579326
     63          1           0        7.674191   -0.911823   -3.289082
     64          1           0       -0.742059    4.606318    1.224384
     65          1           0       -2.553534    4.982117    0.706798
     66          1           0       -4.492747    4.114141   -2.077472
     67          1           0       -5.229978    2.659351   -1.222244
     68          1           0       -4.685256    2.647473   -2.773067
     69          1           0       -4.961660    0.449182   -1.768981
     70          1           0        9.358187   -1.329554   -0.616246
     71          1           0        9.980965   -1.240167   -2.447690
     72          1           0       -3.619157   -3.274909    3.079729
     73          1           0       -6.261692   -1.190658   -2.364606
     74          1           0       -4.285172   -5.450711   -2.073980
     75          1           0       -3.947563   -5.617480   -0.199720
     76          1           0       -5.701261   -5.150661   -0.835335
     77          1           0       -0.944688    7.915715    1.466166
     78          1           0       -7.908911   -2.940634   -2.927275
     79          1           0       -6.675147   -4.278834   -2.797650
 ---------------------------------------------------------------------

 SCF Done:  E(RB3LYP) =  -1947.85759602     A.U. after   16 cycles

 Excitation energies and oscillator strengths:

 Excited State   1:      Singlet-A      2.0233 eV  612.79 nm  f=0.4028  <S**2>=0.000
     154 ->156         0.13060
     155 ->156         0.69176
 This state for optimization and/or second-order correction.
 Total Energy, E(TD-HF/TD-KS) =  -1947.78324238
 Copying the excited state density for this state as the 1-particle RhoCI density.

 The electronic state is 1-A.
 Alpha  occ. eigenvalues --  -19.19084 -19.16651 -19.14410 -19.10792 -19.09588
 Alpha  occ. eigenvalues --  -19.08687 -14.38852 -14.36875 -14.36334 -14.29344
 Alpha  occ. eigenvalues --  -10.33584 -10.29422 -10.27977 -10.26034 -10.25596
 Alpha  occ. eigenvalues --  -10.25266 -10.24626 -10.23796 -10.23471 -10.23303
 Alpha  occ. eigenvalues --  -10.23143 -10.22959 -10.22883 -10.22872 -10.22753
 Alpha  occ. eigenvalues --  -10.21729 -10.21667 -10.21429 -10.21014 -10.20967
 Alpha  occ. eigenvalues --  -10.20900 -10.20784 -10.20260 -10.20160 -10.20100
 Alpha  occ. eigenvalues --  -10.19859 -10.19690 -10.19622 -10.19584 -10.19413
 Alpha  occ. eigenvalues --  -10.19395 -10.19348 -10.17388  -1.12521  -1.10495
 Alpha  occ. eigenvalues --   -1.04326  -1.00803  -1.00696  -0.99986  -0.98998
 Alpha  occ. eigenvalues --   -0.98223  -0.91933  -0.91256  -0.83492  -0.82735
 Alpha  occ. eigenvalues --   -0.82220  -0.80939  -0.80492  -0.80040  -0.78805
 Alpha  occ. eigenvalues --   -0.77412  -0.76771  -0.75901  -0.74692  -0.73054
 Alpha  occ. eigenvalues --   -0.72787  -0.71638  -0.70456  -0.69041  -0.68291
 Alpha  occ. eigenvalues --   -0.67973  -0.66161  -0.64517  -0.62010  -0.61487
 Alpha  occ. eigenvalues --   -0.60588  -0.59493  -0.58949  -0.58737  -0.57979
 Alpha  occ. eigenvalues --   -0.56989  -0.55716  -0.54913  -0.53624  -0.52720
 Alpha  occ. eigenvalues --   -0.52037  -0.51446  -0.50758  -0.50631  -0.49992
 Alpha  occ. eigenvalues --   -0.49619  -0.49168  -0.48497  -0.48351  -0.48066
 Alpha  occ. eigenvalues --   -0.47795  -0.47569  -0.46642  -0.46457  -0.46100
 Alpha  occ. eigenvalues --   -0.45799  -0.45248  -0.44643  -0.44354  -0.44215
 Alpha  occ. eigenvalues --   -0.43881  -0.43465  -0.43216  -0.43015  -0.42629
 Alpha  occ. eigenvalues --   -0.42135  -0.41986  -0.41756  -0.41574  -0.41406
 Alpha  occ. eigenvalues --   -0.41119  -0.40929  -0.40593  -0.40530  -0.40314
 Alpha  occ. eigenvalues --   -0.39978  -0.39427  -0.39137  -0.38903  -0.38527
 Alpha  occ. eigenvalues --   -0.38309  -0.37687  -0.37261  -0.36987  -0.36631
 Alpha  occ. eigenvalues --   -0.36409  -0.35989  -0.35133  -0.34489  -0.34318
 Alpha  occ. eigenvalues --   -0.33755  -0.33510  -0.33299  -0.32668  -0.31979
 Alpha  occ. eigenvalues --   -0.31169  -0.30531  -0.29599  -0.29113  -0.28685
 Alpha  occ. eigenvalues --   -0.27047  -0.25932  -0.25640  -0.24684  -0.24640
 Alpha  occ. eigenvalues --   -0.24286  -0.23884  -0.23793  -0.22259  -0.19213
 Alpha virt. eigenvalues --   -0.10909  -0.07192  -0.06104  -0.02056  -0.01709
 Alpha virt. eigenvalues --    0.00768   0.01725   0.02274   0.02900   0.03169
 Alpha virt. eigenvalues --    0.03322   0.03922   0.04419   0.04937   0.05486

 Mulliken charges:
               1
     1  O   -0.293166
     2  O   -0.058209
     3  O   -0.232994
     4  O   -0.175915
     5  O   -0.246923
     6  O   -0.140775
     7  N   -0.017934
     8  N   -0.195779
     9  N   -0.132202
    10  N   -0.372647
    11  C    0.092095
    12  C    0.145357
    13  C   -0.071587
    14  C   -0.087491
    15  C   -0.132914
    16  C    0.117252
    17  C   -0.162828
    18  C   -0.012282
    19  C   -0.029139
    20  C   -0.041853
    21  C    0.065374
    22  C    0.170510
    23  C   -0.072133
    24  C    0.126316
    25  C    0.033501
    26  C   -0.088232
    27  C    0.036504
    28  C    0.016470
    29  C   -0.018792
    30  C   -0.011125
    31  C    0.035517
    32  C    0.133340
    33  C   -0.113033
    34  C    0.065446
    35  C    0.117448
    36  C   -0.062210
    37  C    0.141170
    38  C    0.094014
    39  C   -0.220964
    40  C    0.146976
    41  C   -0.038611
    42  C    0.026509
    43  C   -0.055954
    44  H    0.001911
    45  H   -0.035334
    46  H    0.029135
    47  H    0.117227
    48  H    0.161031
    49  H    0.025540
    50  H    0.022055
    51  H   -0.074406
    52  H   -0.032224
    53  H    0.005509
    54  H    0.022602
    55  H    0.046642
    56  H    0.045535
    57  H    0.050688
    58  H    0.020707
    59  H    0.018423
    60  H    0.228283
    61  H    0.023504
    62  H    0.046331
    63  H    0.051182
    64  H    0.071845
    65  H    0.066695
    66  H    0.012386
    67  H    0.023591
    68  H    0.014407
    69  H   -0.028278
    70  H    0.014036
    71  H    0.032681
    72  H    0.142376
    73  H    0.028523
    74  H    0.050711
    75  H    0.044654
    76  H    0.039010
    77  H    0.160452
    78  H    0.028659
    79  H    0.045801
 Sum of Mulliken charges =   0.00000

 Dipole moment (field-independent basis, Debye):
    X=             -0.5694    Y=              1.2725    Z=              2.6050  Tot=              2.9546
 Quadrupole moment (field-independent basis, Debye-Ang):
   XX=           -221.4753   YY=           -248.8462   ZZ=           -267.2367
   XY=             -7.8286   XZ=             44.6518   YZ=              0.0029

 Normal termination of Gaussian 09 at Tue Jul  9 15:38:33 2019.
