 Gaussian 09, Revision D.01,
 Gaussian 09:  ES64L-G09RevD.01 24-Apr-2013

 --------------------------
 # td=(NStates=1) B3LYP/SVP
 --------------------------

 --
 TD
 --
 Symbolic Z-matrix:
 Charge =  0 Multiplicity = 1

                         Standard orientation:
 ---------------------------------------------------------------------
 Center     Atomic      Atomic             Coordinates (Angstroms)
 Number     Number       Type             X           Y           Z
 ---------------------------------------------------------------------
      1          8           0        5.206729   -0.319519   -3.347210
      2          8           0       -2.725164   -3.106485    3.299406
      3          8           0       -3.349409   -0.922679    3.225673
      4          8           0       -0.733774    6.989435    1.751909
      5          8           0       -0.631591    7.038514   -0.810099
      6          8           0       -2.122030   -4.031215   -0.046027
      7          7           0        2.378312    0.901799    0.535754
      8          7           0        4.342067   -0.566963   -1.161360
      9          7           0       -1.909402    0.753060   -0.309991
     10          7           0       -2.788337   -1.835048   -0.486875
     11          6           0        4.816044   -1.229446    0.072089
     12          6           0        4.498345   -0.288881    1.236701
     13          6           0        2.953090   -0.029080    1.314267
     14          6           0        2.009047   -0.591233    2.226475
     15          6           0        0.745923   -0.001831    1.810256
     16          6           0        1.005660    0.855993    0.813856
     17          6           0        6.308141   -1.390586   -0.241271
     18          6           0       -0.492666   -0.236354    2.537079
     19          6           0        6.607495   -0.948377   -1.417415
     20          6           0        0.181915    1.895034    0.147172
     21          6           0       -1.061923    1.764735   -0.323220
     22          6           0        5.327427   -0.560248   -2.179178
     23          6           0       -1.863788    2.931871   -0.885869
     24          6           0        2.280339   -1.714668    3.127051
     25          6           0        7.198531   -2.102897    0.798162
     26          6           0       -3.089576    2.398312   -1.200450
     27          6           0       -1.048476   -1.686641    2.589740
     28          6           0       -3.126175    0.967537   -0.843825
     29          6           0       -1.394278    4.319162   -0.893276
     30          6           0        7.844639   -1.105327   -2.255625
     31          6           0       -1.482235    5.074909    0.369115
     32          6           0       -4.297008    3.085722   -1.692383
     33          6           0       -4.006929    0.051879   -1.229378
     34          6           0       -2.498522   -1.774123    3.056648
     35          6           0       -3.835501   -1.315348   -1.069525
     36          6           0        9.060121   -1.037684   -1.665101
     37          6           0       -0.861040    6.376108    0.389632
     38          6           0       -4.790914   -2.409135   -1.489335
     39          6           0       -4.155764   -3.589969   -1.145759
     40          6           0       -2.897747   -3.162532   -0.613230
     41          6           0       -6.121343   -2.001999   -1.969545
     42          6           0       -4.655064   -4.936152   -1.422081
     43          6           0       -7.118283   -2.868259   -2.441075
     44          1           0        4.420618   -2.257864    0.183589
     45          1           0        5.023704    0.803850    1.231826
     46          1           0        4.728422   -0.871347    2.074041
     47          1           0        2.698297    1.414869   -0.317116
     48          1           0        3.370791   -0.763626   -1.362437
     49          1           0       -0.137355    0.103840    3.526360
     50          1           0       -1.208724    0.451756    2.138933
     51          1           0        0.679765    2.723654   -0.044176
     52          1           0        3.302072   -2.044310    3.245870
     53          1           0        2.028337   -1.494694    4.128752
     54          1           0        1.863400   -2.537932    2.787607
     55          1           0        6.535952   -2.794851    1.535048
     56          1           0        7.852254   -1.393601    1.634909
     57          1           0        8.083587   -2.581235    0.326529
     58          1           0       -1.013968   -2.005269    1.495487
     59          1           0       -0.512629   -2.271564    3.007146
     60          1           0       -1.692049   -0.164781    0.038340
     61          1           0       -1.768133    4.743835   -1.827049
     62          1           0       -0.283830    4.362297   -1.132925
     63          1           0        7.786000   -1.126980   -3.313517
     64          1           0       -1.204926    4.583929    1.209377
     65          1           0       -2.600217    5.355899    0.638918
     66          1           0       -4.101254    4.150105   -1.912723
     67          1           0       -4.856137    3.132364   -0.742255
     68          1           0       -5.025620    2.820637   -2.758278
     69          1           0       -4.906915    0.256070   -1.715894
     70          1           0        9.554502   -0.946559   -0.723981
     71          1           0        9.630592   -1.189282   -2.525829
     72          1           0       -3.607887   -3.140075    3.370465
     73          1           0       -6.260809   -0.889419   -1.922490
     74          1           0       -4.824850   -5.095832   -2.409303
     75          1           0       -4.003832   -5.884391   -1.070969
     76          1           0       -5.738834   -5.159988   -1.048338
     77          1           0       -0.334501    7.873298    1.770299
     78          1           0       -8.091066   -2.617252   -2.927761
     79          1           0       -6.938246   -3.942833   -2.284567
 ---------------------------------------------------------------------

 SCF Done:  E(RB3LYP) =  -1947.77521043     A.U. after   19 cycles

 Excitation energies and oscillator strengths:

 Excited State   1:      Singlet-A      2.0997 eV  590.48 nm  f=0.4014  <S**2>=0.000
     154 ->156        -0.14279
     155 ->156         0.68558
 This state for optimization and/or second-order correction.
 Total Energy, E(TD-HF/TD-KS) =  -1947.69804769
 Copying the excited state density for this state as the 1-particle RhoCI density.

 The electronic state is 1-A.
 Alpha  occ. eigenvalues --  -19.19501 -19.15883 -19.14257 -19.12278 -19.11366
 Alpha  occ. eigenvalues --  -19.09488 -14.38031 -14.37365 -14.34910 -14.29070
 Alpha  occ. eigenvalues --  -10.35299 -10.31218 -10.29085 -10.25750 -10.24992
 Alpha  occ. eigenvalues --  -10.24835 -10.24151 -10.23359 -10.23149 -10.22914
 Alpha  occ. eigenvalues --  -10.22846 -10.22085 -10.22000 -10.21828 -10.21768
 Alpha  occ. eigenvalues --  -10.21718 -10.21633 -10.21630 -10.21620 -10.20924
 Alpha  occ. eigenvalues --  -10.20654 -10.20582 -10.20401 -10.19737 -10.19628
 Alpha  occ. eigenvalues --  -10.19353 -10.19076 -10.18644 -10.18614 -10.18512
 Alpha  occ. eigenvalues --  -10.18404 -10.17803 -10.17788  -1.09040  -1.04107
 Alpha  occ. eigenvalues --   -1.03719  -1.01034  -0.99931  -0.99000  -0.98442
 Alpha  occ. eigenvalues --   -0.95398  -0.93884  -0.92639  -0.84624  -0.83154
 Alpha  occ. eigenvalues --   -0.82206  -0.82029  -0.80626  -0.80186  -0.79582
 Alpha  occ. eigenvalues --   -0.77735  -0.77263  -0.76133  -0.75005  -0.73889
 Alpha  occ. eigenvalues --   -0.72901  -0.70636  -0.70009  -0.69784  -0.69089
 Alpha  occ. eigenvalues --   -0.68138  -0.66732  -0.64045  -0.61934  -0.60977
 Alpha  occ. eigenvalues --   -0.60766  -0.59748  -0.59481  -0.58307  -0.57838
 Alpha  occ. eigenvalues --   -0.57507  -0.56298  -0.55692  -0.54183  -0.53451
 Alpha  occ. eigenvalues --   -0.53253  -0.52199  -0.51766  -0.51585  -0.50817
 Alpha  occ. eigenvalues --   -0.49862  -0.49108  -0.47956  -0.47878  -0.47594
 Alpha  occ. eigenvalues --   -0.47327  -0.47126  -0.46751  -0.46113  -0.45998
 Alpha  occ. eigenvalues --   -0.45644  -0.45502  -0.44888  -0.44586  -0.44474
 Alpha  occ. eigenvalues --   -0.44342  -0.43979  -0.43324  -0.43303  -0.43014
 Alpha  occ. eigenvalues --   -0.42681  -0.42081  -0.41707  -0.41294  -0.41016
 Alpha  occ. eigenvalues --   -0.40823  -0.40616  -0.40235  -0.39856  -0.39611
 Alpha  occ. eigenvalues --   -0.39400  -0.38959  -0.38832  -0.38680  -0.38495
 Alpha  occ. eigenvalues --   -0.38219  -0.38009  -0.37828  -0.37392  -0.37334
 Alpha  occ. eigenvalues --   -0.36601  -0.35941  -0.34889  -0.34638  -0.34481
 Alpha  occ. eigenvalues --   -0.34184  -0.33542  -0.32825  -0.31563  -0.31426
 Alpha  occ. eigenvalues --   -0.31349  -0.31169  -0.28685  -0.28078  -0.27698
 Alpha  occ. eigenvalues --   -0.27645  -0.27299  -0.26521  -0.25920  -0.25196
 Alpha  occ. eigenvalues --   -0.24717  -0.23692  -0.23492  -0.22399  -0.19592
 Alpha virt. eigenvalues --   -0.11327  -0.06456  -0.06172  -0.04847  -0.01360
 Alpha virt. eigenvalues --    0.00339   0.01047   0.01469   0.02696   0.02862
 Alpha virt. eigenvalues --    0.03157   0.03967   0.04462   0.04488   0.05381

 Mulliken charges:
               1
     1  O   -0.186031
     2  O   -0.133937
     3  O   -0.226400
     4  O   -0.275386
     5  O   -0.342746
     6  O   -0.278769
     7  N   -0.073903
     8  N   -0.241594
     9  N    0.015026
    10  N   -0.187314
    11  C    0.050726
    12  C    0.252476
    13  C   -0.137879
    14  C   -0.156053
    15  C   -0.118261
    16  C    0.032994
    17  C   -0.122860
    18  C    0.120445
    19  C   -0.055081
    20  C   -0.077830
    21  C    0.111542
    22  C    0.165547
    23  C   -0.092898
    24  C    0.198859
    25  C   -0.026346
    26  C   -0.118838
    27  C    0.126502
    28  C    0.156265
    29  C    0.102988
    30  C   -0.026842
    31  C    0.105494
    32  C    0.015699
    33  C   -0.063859
    34  C    0.137242
    35  C   -0.002368
    36  C    0.017896
    37  C    0.224673
    38  C    0.048135
    39  C   -0.115950
    40  C    0.120101
    41  C   -0.043722
    42  C    0.052207
    43  C   -0.034526
    44  H    0.030713
    45  H    0.039021
    46  H   -0.042892
    47  H    0.140630
    48  H    0.126158
    49  H    0.012900
    50  H   -0.015113
    51  H   -0.084999
    52  H   -0.028822
    53  H   -0.003889
    54  H    0.000704
    55  H    0.043809
    56  H    0.048452
    57  H    0.040332
    58  H    0.075905
    59  H   -0.100486
    60  H    0.132832
    61  H    0.027760
    62  H    0.012987
    63  H    0.017227
    64  H   -0.001010
    65  H    0.070536
    66  H    0.008501
    67  H    0.037868
    68  H    0.068976
    69  H   -0.067278
    70  H    0.019343
    71  H    0.004201
    72  H    0.119409
    73  H    0.012331
    74  H    0.000280
    75  H    0.048059
    76  H    0.030340
    77  H    0.201527
    78  H    0.041685
    79  H    0.016578
 Sum of Mulliken charges =   0.00000

 Dipole moment (field-independent basis, Debye):
    X=              1.0009    Y=              2.0053    Z=              2.4158  Tot=              3.2953
 Quadrupole moment (field-independent basis, Debye-Ang):
   XX=           -213.8743   YY=           -254.2851   ZZ=           -264.2659
   XY=             -9.1205   XZ=             32.1326   YZ=             10.8777

 Normal termination of Gaussian 09 at Tue Jul  9 06:35:49 2019.
