 Gaussian 09, Revision D.01,
 Gaussian 09:  ES64L-G09RevD.01 24-Apr-2013

 --------------------------
 # td=(NStates=1) B3LYP/SVP
 --------------------------

 --
 TD
 --
 Symbolic Z-matrix:
 Charge =  0 Multiplicity = 1

                         Standard orientation:
 ---------------------------------------------------------------------
 Center     Atomic      Atomic             Coordinates (Angstroms)
 Number     Number       Type             X           Y           Z
 ---------------------------------------------------------------------
      1          8           0        5.211191    0.033866   -3.304151
      2          8           0       -2.992503   -3.212277    3.202254
      3          8           0       -3.346926   -0.925658    2.955093
      4          8           0       -1.289100    7.197277    1.633043
      5          8           0       -0.160346    7.046392   -0.283390
      6          8           0       -2.087799   -3.888833   -0.131276
      7          7           0        2.427666    0.758936    0.705688
      8          7           0        4.260749   -0.664312   -1.289952
      9          7           0       -1.787891    0.719284   -0.387087
     10          7           0       -2.725038   -1.741045   -0.528450
     11          6           0        4.711896   -1.394138   -0.079536
     12          6           0        4.441393   -0.601226    1.292673
     13          6           0        3.010138   -0.262041    1.429223
     14          6           0        2.024746   -0.952282    2.091436
     15          6           0        0.792845   -0.303352    1.828348
     16          6           0        1.034126    0.728938    0.835042
     17          6           0        6.172009   -1.620310   -0.329650
     18          6           0       -0.563127   -0.495930    2.553314
     19          6           0        6.560045   -0.891845   -1.454745
     20          6           0        0.309108    1.854910    0.220180
     21          6           0       -0.983346    1.876974   -0.262845
     22          6           0        5.323104   -0.430987   -2.219523
     23          6           0       -1.792045    3.035151   -0.745221
     24          6           0        2.164983   -1.869230    3.223192
     25          6           0        7.071187   -2.287552    0.769567
     26          6           0       -2.945161    2.519623   -1.176331
     27          6           0       -1.240045   -1.875547    2.548050
     28          6           0       -2.994743    1.050207   -0.955938
     29          6           0       -1.274634    4.417278   -0.775838
     30          6           0        7.822439   -0.702752   -2.168922
     31          6           0       -1.412019    5.087320    0.642377
     32          6           0       -4.155790    3.205241   -1.775575
     33          6           0       -4.037232    0.185253   -1.298039
     34          6           0       -2.599679   -1.950438    2.876965
     35          6           0       -3.842835   -1.212597   -1.020701
     36          6           0        9.081884   -0.868395   -1.593604
     37          6           0       -0.854949    6.577131    0.537843
     38          6           0       -4.831987   -2.258421   -1.485062
     39          6           0       -4.235395   -3.453340   -1.240413
     40          6           0       -2.846473   -3.146450   -0.622344
     41          6           0       -6.118385   -1.997295   -2.084986
     42          6           0       -4.684629   -4.936534   -1.297725
     43          6           0       -6.791119   -2.823466   -2.811083
     44          1           0        4.147412   -2.313289    0.013956
     45          1           0        5.123057    0.159207    1.492060
     46          1           0        4.730319   -1.103896    2.245973
     47          1           0        3.115486    1.029446    0.062221
     48          1           0        3.403889   -0.384269   -1.827857
     49          1           0       -0.510141    0.001444    3.618712
     50          1           0       -1.522934    0.139268    2.123025
     51          1           0        0.923189    2.746454    0.072453
     52          1           0        3.176361   -2.011106    3.466639
     53          1           0        1.489446   -1.485007    3.954645
     54          1           0        1.777449   -2.901072    2.898519
     55          1           0        6.620247   -3.030426    1.412235
     56          1           0        7.617829   -1.490672    1.430237
     57          1           0        7.847818   -2.926418    0.104667
     58          1           0       -1.141740   -2.360589    1.642212
     59          1           0       -0.556211   -2.378511    3.367805
     60          1           0       -1.607003   -0.279358   -0.087415
     61          1           0       -1.651281    5.069060   -1.481678
     62          1           0       -0.270744    4.301840   -1.023092
     63          1           0        7.609387   -0.387605   -3.101699
     64          1           0       -0.803988    4.641017    1.581751
     65          1           0       -2.352305    5.245451    0.817026
     66          1           0       -3.944977    4.325819   -1.975204
     67          1           0       -5.076500    3.053077   -0.993865
     68          1           0       -4.453544    2.843451   -2.823347
     69          1           0       -4.877613    0.611575   -1.662068
     70          1           0        9.165752   -1.055656   -0.487315
     71          1           0        9.924574   -0.530957   -2.305553
     72          1           0       -3.958572   -3.077030    3.679735
     73          1           0       -6.142092   -0.941766   -2.229737
     74          1           0       -4.672420   -5.334477   -2.354261
     75          1           0       -4.107818   -5.514556   -0.623190
     76          1           0       -5.722973   -4.910682   -1.016230
     77          1           0       -0.819093    8.038800    1.564765
     78          1           0       -7.785245   -2.608217   -3.162151
     79          1           0       -6.497425   -3.919930   -3.168716
 ---------------------------------------------------------------------

 SCF Done:  E(RB3LYP) =  -1947.88306877     A.U. after   16 cycles

 Excitation energies and oscillator strengths:

 Excited State   1:      Singlet-A      2.2380 eV  553.98 nm  f=0.4631  <S**2>=0.000
     155 ->156         0.69929
 This state for optimization and/or second-order correction.
 Total Energy, E(TD-HF/TD-KS) =  -1947.80082202
 Copying the excited state density for this state as the 1-particle RhoCI density.

 The electronic state is 1-A.
 Alpha  occ. eigenvalues --  -19.19170 -19.18089 -19.14050 -19.11694 -19.11051
 Alpha  occ. eigenvalues --  -19.10761 -14.37044 -14.35968 -14.35484 -14.28532
 Alpha  occ. eigenvalues --  -10.32351 -10.30649 -10.28855 -10.26170 -10.26155
 Alpha  occ. eigenvalues --  -10.24127 -10.23968 -10.23382 -10.23238 -10.23181
 Alpha  occ. eigenvalues --  -10.23137 -10.21868 -10.21706 -10.21562 -10.21445
 Alpha  occ. eigenvalues --  -10.21141 -10.21109 -10.20722 -10.20698 -10.20413
 Alpha  occ. eigenvalues --  -10.20218 -10.19948 -10.19837 -10.19649 -10.19553
 Alpha  occ. eigenvalues --  -10.19283 -10.19046 -10.18985 -10.18679 -10.18490
 Alpha  occ. eigenvalues --  -10.18341 -10.18053 -10.17964  -1.12332  -1.06281
 Alpha  occ. eigenvalues --   -1.04916  -1.04138  -1.03368  -0.97864  -0.96659
 Alpha  occ. eigenvalues --   -0.96546  -0.92952  -0.91281  -0.82765  -0.81431
 Alpha  occ. eigenvalues --   -0.81093  -0.80795  -0.80650  -0.79162  -0.77616
 Alpha  occ. eigenvalues --   -0.77383  -0.76340  -0.75003  -0.74163  -0.72041
 Alpha  occ. eigenvalues --   -0.70895  -0.70521  -0.69336  -0.68680  -0.67995
 Alpha  occ. eigenvalues --   -0.66957  -0.66106  -0.63729  -0.61041  -0.60211
 Alpha  occ. eigenvalues --   -0.59899  -0.58871  -0.57901  -0.57023  -0.56465
 Alpha  occ. eigenvalues --   -0.55585  -0.54597  -0.54036  -0.53388  -0.52550
 Alpha  occ. eigenvalues --   -0.51487  -0.51447  -0.50710  -0.50408  -0.49980
 Alpha  occ. eigenvalues --   -0.49573  -0.48970  -0.48313  -0.47354  -0.47232
 Alpha  occ. eigenvalues --   -0.47106  -0.46480  -0.46357  -0.46053  -0.45589
 Alpha  occ. eigenvalues --   -0.45201  -0.44838  -0.44202  -0.44053  -0.43758
 Alpha  occ. eigenvalues --   -0.43288  -0.43148  -0.43054  -0.42864  -0.42810
 Alpha  occ. eigenvalues --   -0.42331  -0.42164  -0.41580  -0.41129  -0.40882
 Alpha  occ. eigenvalues --   -0.40691  -0.40392  -0.40088  -0.39894  -0.39557
 Alpha  occ. eigenvalues --   -0.39542  -0.39225  -0.39138  -0.38743  -0.38658
 Alpha  occ. eigenvalues --   -0.38511  -0.38024  -0.37745  -0.37112  -0.36975
 Alpha  occ. eigenvalues --   -0.36782  -0.36361  -0.36088  -0.35341  -0.34930
 Alpha  occ. eigenvalues --   -0.34572  -0.34166  -0.34042  -0.31745  -0.30564
 Alpha  occ. eigenvalues --   -0.30211  -0.29520  -0.29155  -0.28380  -0.27489
 Alpha  occ. eigenvalues --   -0.26908  -0.26805  -0.26316  -0.25794  -0.24392
 Alpha  occ. eigenvalues --   -0.24019  -0.23885  -0.23262  -0.22054  -0.18689
 Alpha virt. eigenvalues --   -0.09722  -0.06826  -0.05479  -0.00684   0.00045
 Alpha virt. eigenvalues --    0.00620   0.00848   0.01820   0.02939   0.03334
 Alpha virt. eigenvalues --    0.03906   0.04561   0.04842   0.05222   0.05706

 Mulliken charges:
               1
     1  O   -0.185825
     2  O   -0.240282
     3  O   -0.295107
     4  O   -0.154058
     5  O   -0.186472
     6  O   -0.146516
     7  N   -0.056770
     8  N   -0.294225
     9  N   -0.113906
    10  N   -0.298900
    11  C    0.212760
    12  C    0.195427
    13  C   -0.151043
    14  C   -0.138460
    15  C   -0.039700
    16  C    0.067081
    17  C   -0.162533
    18  C   -0.100693
    19  C   -0.095334
    20  C   -0.105625
    21  C    0.116748
    22  C    0.138487
    23  C   -0.060336
    24  C    0.145600
    25  C    0.001746
    26  C   -0.127213
    27  C    0.071922
    28  C    0.111449
    29  C    0.189695
    30  C    0.043750
    31  C    0.017653
    32  C    0.008516
    33  C   -0.085029
    34  C    0.170310
    35  C    0.142160
    36  C   -0.037664
    37  C    0.083963
    38  C   -0.023118
    39  C   -0.250487
    40  C    0.138781
    41  C    0.074465
    42  C    0.124484
    43  C   -0.067799
    44  H    0.015997
    45  H   -0.035778
    46  H   -0.009210
    47  H    0.091101
    48  H    0.146856
    49  H    0.031890
    50  H    0.053132
    51  H   -0.004951
    52  H   -0.021781
    53  H    0.022804
    54  H    0.029726
    55  H    0.023618
    56  H    0.066458
    57  H    0.063137
    58  H    0.035517
    59  H    0.038066
    60  H    0.174067
    61  H   -0.017649
    62  H   -0.010957
    63  H   -0.032478
    64  H    0.079077
    65  H   -0.019960
    66  H    0.021364
    67  H    0.060530
    68  H    0.044745
    69  H   -0.074044
    70  H    0.038465
    71  H    0.049418
    72  H    0.229717
    73  H   -0.015963
    74  H    0.035007
    75  H    0.020506
    76  H    0.010994
    77  H    0.162160
    78  H    0.016776
    79  H    0.043740
 Sum of Mulliken charges =   0.00000

 Dipole moment (field-independent basis, Debye):
    X=              1.1813    Y=              1.8415    Z=              3.1631  Tot=              3.8460
 Quadrupole moment (field-independent basis, Debye-Ang):
   XX=           -221.8720   YY=           -241.9769   ZZ=           -255.8573
   XY=             -9.9227   XZ=             30.2509   YZ=              2.0948

 Normal termination of Gaussian 09 at Tue Jul  9 14:04:10 2019.
