 Gaussian 09, Revision D.01,
 Gaussian 09:  ES64L-G09RevD.01 24-Apr-2013

 --------------------------
 # td=(NStates=1) B3LYP/SVP
 --------------------------

 --
 TD
 --
 Symbolic Z-matrix:
 Charge =  0 Multiplicity = 1

                         Standard orientation:
 ---------------------------------------------------------------------
 Center     Atomic      Atomic             Coordinates (Angstroms)
 Number     Number       Type             X           Y           Z
 ---------------------------------------------------------------------
      1          8           0        5.391558   -0.305565   -3.393123
      2          8           0       -3.095030   -2.828189    3.115998
      3          8           0       -3.167250   -0.617414    3.238061
      4          8           0       -1.302887    7.238500    1.362696
      5          8           0       -0.276979    6.845664   -0.563572
      6          8           0       -2.011822   -4.026853   -0.235544
      7          7           0        2.458962    0.729070    0.606653
      8          7           0        4.438017   -0.706856   -1.288036
      9          7           0       -1.972986    0.646658   -0.322685
     10          7           0       -2.698888   -1.815779   -0.493812
     11          6           0        4.875927   -1.224313   -0.041251
     12          6           0        4.509228   -0.399303    1.148765
     13          6           0        3.031721   -0.161068    1.311251
     14          6           0        2.099720   -0.820939    2.149053
     15          6           0        0.766133   -0.165940    1.832355
     16          6           0        0.992888    0.818051    0.825786
     17          6           0        6.367161   -1.395958   -0.138390
     18          6           0       -0.503569   -0.359232    2.547074
     19          6           0        6.710401   -0.988049   -1.486378
     20          6           0        0.188012    1.755505    0.092029
     21          6           0       -1.117343    1.653062   -0.313749
     22          6           0        5.473795   -0.574603   -2.201961
     23          6           0       -1.910050    2.895914   -0.851212
     24          6           0        2.237094   -1.742141    3.173960
     25          6           0        7.226077   -1.799476    1.009608
     26          6           0       -3.128039    2.477419   -1.091111
     27          6           0       -1.093598   -1.744965    2.368406
     28          6           0       -3.085809    1.038401   -0.903504
     29          6           0       -1.457497    4.243185   -0.857320
     30          6           0        8.014243   -0.789024   -1.994509
     31          6           0       -1.565883    5.123674    0.454869
     32          6           0       -4.211512    3.190891   -1.723260
     33          6           0       -4.105417   -0.021334   -1.201547
     34          6           0       -2.528716   -1.664591    2.958275
     35          6           0       -3.873358   -1.370934   -0.988162
     36          6           0        9.231449   -0.871403   -1.491147
     37          6           0       -0.986439    6.483049    0.396950
     38          6           0       -4.909718   -2.455611   -1.425233
     39          6           0       -4.227512   -3.545953   -1.214790
     40          6           0       -2.820221   -3.225583   -0.607756
     41          6           0       -6.264222   -2.174888   -1.878282
     42          6           0       -4.647966   -5.016827   -1.199786
     43          6           0       -7.074403   -2.977222   -2.478945
     44          1           0        4.274669   -2.127293    0.116971
     45          1           0        5.082789    0.610758    1.265105
     46          1           0        4.964967   -0.824846    2.131334
     47          1           0        2.782775    1.159043   -0.230307
     48          1           0        3.554798   -1.057048   -1.517427
     49          1           0       -0.421677   -0.104931    3.611925
     50          1           0       -1.385289    0.277473    2.054280
     51          1           0        0.639046    2.818539   -0.412617
     52          1           0        3.353885   -1.602814    3.862183
     53          1           0        1.397843   -1.735989    3.968390
     54          1           0        2.225892   -2.714952    2.808243
     55          1           0        6.542633   -2.587327    1.406708
     56          1           0        7.368527   -0.944636    1.530328
     57          1           0        8.295894   -2.375957    0.759910
     58          1           0       -1.145274   -2.197408    1.243121
     59          1           0       -0.771184   -2.565588    2.956536
     60          1           0       -1.624827   -0.390511   -0.367307
     61          1           0       -1.905413    4.793945   -1.616390
     62          1           0       -0.434448    4.449883   -1.112641
     63          1           0        7.811000   -0.555059   -3.127649
     64          1           0       -1.094642    4.559685    1.428516
     65          1           0       -2.652550    5.195216    1.016493
     66          1           0       -3.985410    4.522857   -1.617597
     67          1           0       -5.238646    3.037652   -1.287402
     68          1           0       -4.465414    3.096382   -2.820945
     69          1           0       -5.011083    0.292404   -1.829435
     70          1           0        9.522081   -0.981121   -0.348640
     71          1           0       10.036073   -0.982515   -2.153754
     72          1           0       -4.046093   -2.716615    3.412853
     73          1           0       -6.610724   -0.994163   -1.954708
     74          1           0       -4.675737   -5.400469   -2.097850
     75          1           0       -3.836797   -5.717999   -0.728039
     76          1           0       -5.637336   -5.307842   -0.650592
     77          1           0       -1.127715    8.109452    1.001918
     78          1           0       -7.959145   -2.488485   -2.855338
     79          1           0       -6.975392   -4.109283   -2.637662
 ---------------------------------------------------------------------

 SCF Done:  E(RB3LYP) =  -1947.80206762     A.U. after   16 cycles

 Excitation energies and oscillator strengths:

 Excited State   1:      Singlet-A      2.2878 eV  541.94 nm  f=0.5357  <S**2>=0.000
     155 ->156         0.70590
     155 <-156        -0.10375
 This state for optimization and/or second-order correction.
 Total Energy, E(TD-HF/TD-KS) =  -1947.71799366
 Copying the excited state density for this state as the 1-particle RhoCI density.

 The electronic state is 1-A.
 Alpha  occ. eigenvalues --  -19.20763 -19.17680 -19.12495 -19.10785 -19.10143
 Alpha  occ. eigenvalues --  -19.10117 -14.38163 -14.37297 -14.35702 -14.29186
 Alpha  occ. eigenvalues --  -10.32871 -10.30325 -10.29279 -10.26275 -10.25354
 Alpha  occ. eigenvalues --  -10.25066 -10.24167 -10.23572 -10.23565 -10.23476
 Alpha  occ. eigenvalues --  -10.23432 -10.23360 -10.22919 -10.22772 -10.22545
 Alpha  occ. eigenvalues --  -10.22312 -10.21275 -10.20808 -10.20720 -10.20679
 Alpha  occ. eigenvalues --  -10.20465 -10.20360 -10.20344 -10.20024 -10.19803
 Alpha  occ. eigenvalues --  -10.19649 -10.19362 -10.19314 -10.19149 -10.19101
 Alpha  occ. eigenvalues --  -10.19070 -10.19055 -10.18026  -1.14716  -1.08987
 Alpha  occ. eigenvalues --   -1.02945  -1.02050  -1.01301  -1.00197  -0.99331
 Alpha  occ. eigenvalues --   -0.96541  -0.95899  -0.91124  -0.84604  -0.82863
 Alpha  occ. eigenvalues --   -0.82086  -0.81129  -0.80798  -0.80000  -0.78406
 Alpha  occ. eigenvalues --   -0.77436  -0.76412  -0.75740  -0.74649  -0.72730
 Alpha  occ. eigenvalues --   -0.72482  -0.71693  -0.70016  -0.69700  -0.69073
 Alpha  occ. eigenvalues --   -0.67152  -0.66263  -0.63780  -0.63218  -0.62006
 Alpha  occ. eigenvalues --   -0.60161  -0.59195  -0.58440  -0.57333  -0.57019
 Alpha  occ. eigenvalues --   -0.56575  -0.56061  -0.54607  -0.54013  -0.52727
 Alpha  occ. eigenvalues --   -0.52252  -0.51649  -0.50930  -0.50808  -0.50738
 Alpha  occ. eigenvalues --   -0.49663  -0.49169  -0.48850  -0.48266  -0.47609
 Alpha  occ. eigenvalues --   -0.47281  -0.47070  -0.46796  -0.46495  -0.46374
 Alpha  occ. eigenvalues --   -0.46168  -0.45361  -0.45000  -0.44401  -0.43943
 Alpha  occ. eigenvalues --   -0.43662  -0.43640  -0.43052  -0.42728  -0.42559
 Alpha  occ. eigenvalues --   -0.42258  -0.41722  -0.41488  -0.41367  -0.41244
 Alpha  occ. eigenvalues --   -0.41045  -0.40663  -0.40317  -0.39693  -0.39543
 Alpha  occ. eigenvalues --   -0.39352  -0.39307  -0.38926  -0.38714  -0.38185
 Alpha  occ. eigenvalues --   -0.37937  -0.36670  -0.36460  -0.36278  -0.35692
 Alpha  occ. eigenvalues --   -0.35155  -0.34938  -0.34468  -0.34437  -0.33841
 Alpha  occ. eigenvalues --   -0.33626  -0.33006  -0.32617  -0.32035  -0.31565
 Alpha  occ. eigenvalues --   -0.31430  -0.29856  -0.29423  -0.28595  -0.28222
 Alpha  occ. eigenvalues --   -0.27591  -0.27411  -0.26180  -0.25832  -0.24617
 Alpha  occ. eigenvalues --   -0.23997  -0.23623  -0.23511  -0.22387  -0.18941
 Alpha virt. eigenvalues --   -0.09937  -0.07198  -0.05083  -0.01424  -0.00098
 Alpha virt. eigenvalues --    0.00345   0.00977   0.01546   0.02173   0.02302
 Alpha virt. eigenvalues --    0.02766   0.04153   0.04318   0.04699   0.05000

 Mulliken charges:
               1
     1  O   -0.220495
     2  O   -0.150569
     3  O   -0.300044
     4  O   -0.076486
     5  O   -0.283971
     6  O   -0.186614
     7  N   -0.012907
     8  N   -0.152720
     9  N    0.017453
    10  N   -0.326724
    11  C    0.075444
    12  C    0.083076
    13  C   -0.103318
    14  C   -0.078853
    15  C   -0.061011
    16  C    0.070810
    17  C   -0.143252
    18  C    0.024059
    19  C   -0.090244
    20  C   -0.109830
    21  C   -0.009470
    22  C    0.174594
    23  C   -0.033146
    24  C    0.013795
    25  C    0.077048
    26  C   -0.033428
    27  C   -0.057533
    28  C    0.041812
    29  C    0.147661
    30  C   -0.010494
    31  C   -0.123453
    32  C   -0.046262
    33  C   -0.133464
    34  C    0.125180
    35  C    0.089473
    36  C   -0.053285
    37  C    0.120269
    38  C    0.085046
    39  C   -0.218080
    40  C    0.163281
    41  C   -0.047140
    42  C    0.091422
    43  C   -0.039307
    44  H    0.010800
    45  H    0.011365
    46  H    0.008099
    47  H    0.107534
    48  H    0.116574
    49  H    0.019734
    50  H    0.062819
    51  H    0.044492
    52  H    0.021662
    53  H    0.030447
    54  H    0.011966
    55  H    0.043000
    56  H    0.032180
    57  H    0.070291
    58  H    0.113136
    59  H    0.003657
    60  H    0.201059
    61  H   -0.011756
    62  H    0.001811
    63  H    0.032177
    64  H    0.065532
    65  H    0.051868
    66  H    0.032000
    67  H    0.033764
    68  H    0.052369
    69  H   -0.008653
    70  H    0.032609
    71  H    0.018018
    72  H    0.198236
    73  H    0.026989
    74  H   -0.026074
    75  H    0.027703
    76  H    0.035142
    77  H    0.176927
    78  H    0.016229
    79  H    0.037974
 Sum of Mulliken charges =   0.00000

 Dipole moment (field-independent basis, Debye):
    X=              0.2087    Y=              2.2585    Z=              3.0401  Tot=              3.7930
 Quadrupole moment (field-independent basis, Debye-Ang):
   XX=           -220.8025   YY=           -241.1160   ZZ=           -266.7471
   XY=            -17.3857   XZ=             34.6641   YZ=              1.3297

 Normal termination of Gaussian 09 at Tue Jul  9 21:30:41 2019.
