 Gaussian 09, Revision D.01,
 Gaussian 09:  ES64L-G09RevD.01 24-Apr-2013

 --------------------------
 # td=(NStates=1) B3LYP/SVP
 --------------------------

 --
 TD
 --
 Symbolic Z-matrix:
 Charge =  0 Multiplicity = 1

                         Standard orientation:
 ---------------------------------------------------------------------
 Center     Atomic      Atomic             Coordinates (Angstroms)
 Number     Number       Type             X           Y           Z
 ---------------------------------------------------------------------
      1          8           0        5.402662    0.059005   -3.277301
      2          8           0       -3.000736   -3.068323    3.122259
      3          8           0       -3.276558   -0.844951    3.079818
      4          8           0       -2.020074    7.170984    1.422737
      5          8           0       -0.517726    6.965781   -0.245369
      6          8           0       -2.018932   -4.050438    0.025427
      7          7           0        2.368135    0.961494    0.704076
      8          7           0        4.417565   -0.474631   -1.328507
      9          7           0       -1.801869    0.573152   -0.480865
     10          7           0       -2.546583   -1.943198   -0.659059
     11          6           0        4.755473   -1.197340   -0.054779
     12          6           0        4.487109   -0.287438    1.244792
     13          6           0        2.988926   -0.070114    1.380814
     14          6           0        1.990924   -0.695641    2.181936
     15          6           0        0.790981   -0.139443    1.814988
     16          6           0        0.983512    0.838912    0.873888
     17          6           0        6.254334   -1.395585   -0.239633
     18          6           0       -0.529592   -0.368985    2.470262
     19          6           0        6.788515   -0.750104   -1.388907
     20          6           0        0.201794    1.907914    0.278207
     21          6           0       -1.077704    1.802913   -0.288030
     22          6           0        5.464469   -0.313117   -2.105018
     23          6           0       -1.829000    2.906025   -0.793836
     24          6           0        2.291290   -1.719323    3.299434
     25          6           0        7.044148   -2.032193    0.820632
     26          6           0       -3.052067    2.426349   -1.206809
     27          6           0       -1.122794   -1.789104    2.479790
     28          6           0       -3.070879    0.910482   -1.014309
     29          6           0       -1.495686    4.332421   -0.885506
     30          6           0        8.058145   -0.654539   -2.031778
     31          6           0       -1.880963    4.995588    0.437855
     32          6           0       -4.139479    3.170701   -1.873630
     33          6           0       -3.921300   -0.052767   -1.356361
     34          6           0       -2.561301   -1.876302    2.872687
     35          6           0       -3.659121   -1.409746   -1.169261
     36          6           0        9.282701   -0.729848   -1.480966
     37          6           0       -1.384209    6.484250    0.527943
     38          6           0       -4.621145   -2.521436   -1.470137
     39          6           0       -4.048853   -3.654933   -1.230669
     40          6           0       -2.806368   -3.293366   -0.516885
     41          6           0       -5.953385   -2.288770   -2.045088
     42          6           0       -4.528450   -5.107043   -1.103501
     43          6           0       -6.525150   -3.245390   -2.759208
     44          1           0        4.369187   -2.117863    0.199609
     45          1           0        5.031537    0.679484    1.189216
     46          1           0        4.865175   -0.875937    2.250450
     47          1           0        2.803435    1.328291   -0.085002
     48          1           0        3.375535   -0.467960   -1.586607
     49          1           0       -0.317037    0.151986    3.412640
     50          1           0       -1.350083    0.131910    1.981059
     51          1           0        0.649371    2.901871    0.130661
     52          1           0        3.203202   -1.798435    3.389521
     53          1           0        1.635854   -1.563511    4.170236
     54          1           0        1.922481   -2.766253    2.805180
     55          1           0        6.533655   -2.752190    1.541934
     56          1           0        7.413348   -1.293441    1.622974
     57          1           0        8.066831   -2.259955    0.260368
     58          1           0       -1.129964   -2.369092    1.520059
     59          1           0       -0.456707   -2.481310    3.335551
     60          1           0       -1.738594   -0.301319   -0.292772
     61          1           0       -1.928459    4.808947   -1.741028
     62          1           0       -0.383538    4.524567   -1.007155
     63          1           0        7.810727   -0.431738   -3.037519
     64          1           0       -1.318380    4.609280    1.248862
     65          1           0       -2.936328    5.124144    0.628452
     66          1           0       -3.879896    4.232742   -1.937018
     67          1           0       -5.007583    3.095495   -1.245288
     68          1           0       -4.460163    2.932484   -2.964894
     69          1           0       -4.816583    0.173834   -1.774240
     70          1           0        9.378488   -0.983694   -0.479067
     71          1           0       10.158975   -0.951750   -1.863883
     72          1           0       -3.901216   -3.007662    3.387579
     73          1           0       -6.537892   -1.415586   -1.833208
     74          1           0       -4.743935   -5.687977   -2.103769
     75          1           0       -3.708061   -5.554981   -0.554844
     76          1           0       -5.617331   -5.266589   -0.573345
     77          1           0       -1.981382    8.052170    1.327320
     78          1           0       -7.560560   -3.066808   -2.818465
     79          1           0       -6.103193   -4.105509   -3.187156
 ---------------------------------------------------------------------

 SCF Done:  E(RB3LYP) =  -1947.84896571     A.U. after   17 cycles

 Excitation energies and oscillator strengths:

 Excited State   1:      Singlet-A      2.1694 eV  571.52 nm  f=0.4815  <S**2>=0.000
     155 ->156         0.70166
     155 <-156        -0.10289
 This state for optimization and/or second-order correction.
 Total Energy, E(TD-HF/TD-KS) =  -1947.76924220
 Copying the excited state density for this state as the 1-particle RhoCI density.

 The electronic state is 1-A.
 Alpha  occ. eigenvalues --  -19.20015 -19.18089 -19.12630 -19.10522 -19.10058
 Alpha  occ. eigenvalues --  -19.09002 -14.37635 -14.37071 -14.35322 -14.28834
 Alpha  occ. eigenvalues --  -10.33093 -10.30707 -10.28355 -10.26103 -10.25448
 Alpha  occ. eigenvalues --  -10.24790 -10.24612 -10.23795 -10.23208 -10.23038
 Alpha  occ. eigenvalues --  -10.22630 -10.22363 -10.22001 -10.21995 -10.21445
 Alpha  occ. eigenvalues --  -10.21283 -10.21200 -10.21153 -10.20879 -10.20492
 Alpha  occ. eigenvalues --  -10.20415 -10.20220 -10.20140 -10.19660 -10.19499
 Alpha  occ. eigenvalues --  -10.19346 -10.19184 -10.18673 -10.18664 -10.18486
 Alpha  occ. eigenvalues --  -10.18433 -10.18345 -10.17873  -1.13408  -1.10623
 Alpha  occ. eigenvalues --   -1.01987  -1.01922  -0.99743  -0.98637  -0.96853
 Alpha  occ. eigenvalues --   -0.96481  -0.93585  -0.92760  -0.84437  -0.82320
 Alpha  occ. eigenvalues --   -0.82156  -0.81411  -0.80942  -0.79597  -0.78775
 Alpha  occ. eigenvalues --   -0.77733  -0.76420  -0.75849  -0.75097  -0.73449
 Alpha  occ. eigenvalues --   -0.72343  -0.71090  -0.70929  -0.69416  -0.68958
 Alpha  occ. eigenvalues --   -0.68319  -0.66267  -0.64739  -0.63717  -0.63433
 Alpha  occ. eigenvalues --   -0.61070  -0.59906  -0.59016  -0.58023  -0.57466
 Alpha  occ. eigenvalues --   -0.57205  -0.56434  -0.54979  -0.54175  -0.53727
 Alpha  occ. eigenvalues --   -0.52565  -0.51832  -0.51693  -0.50812  -0.49993
 Alpha  occ. eigenvalues --   -0.49589  -0.49236  -0.49144  -0.48282  -0.47574
 Alpha  occ. eigenvalues --   -0.47286  -0.47026  -0.46909  -0.46379  -0.46082
 Alpha  occ. eigenvalues --   -0.45538  -0.45383  -0.45187  -0.44493  -0.44237
 Alpha  occ. eigenvalues --   -0.43919  -0.43498  -0.43166  -0.42953  -0.42624
 Alpha  occ. eigenvalues --   -0.42454  -0.42224  -0.42002  -0.41630  -0.41156
 Alpha  occ. eigenvalues --   -0.40675  -0.40597  -0.40405  -0.40137  -0.39825
 Alpha  occ. eigenvalues --   -0.39544  -0.39181  -0.38714  -0.38460  -0.38100
 Alpha  occ. eigenvalues --   -0.37983  -0.37727  -0.37458  -0.37324  -0.37047
 Alpha  occ. eigenvalues --   -0.36901  -0.36564  -0.36084  -0.35408  -0.34691
 Alpha  occ. eigenvalues --   -0.34181  -0.33981  -0.32764  -0.31628  -0.31538
 Alpha  occ. eigenvalues --   -0.31063  -0.29816  -0.28576  -0.27938  -0.27088
 Alpha  occ. eigenvalues --   -0.26867  -0.25951  -0.25714  -0.25419  -0.24807
 Alpha  occ. eigenvalues --   -0.24646  -0.24355  -0.23553  -0.22983  -0.19026
 Alpha virt. eigenvalues --   -0.10536  -0.06587  -0.05928  -0.00960  -0.00593
 Alpha virt. eigenvalues --    0.00582   0.00730   0.01178   0.02729   0.03742
 Alpha virt. eigenvalues --    0.04137   0.04521   0.04981   0.05652   0.06044

 Mulliken charges:
               1
     1  O   -0.250749
     2  O   -0.096133
     3  O   -0.312536
     4  O   -0.075358
     5  O   -0.273905
     6  O   -0.208430
     7  N   -0.061974
     8  N   -0.165201
     9  N   -0.038063
    10  N   -0.248954
    11  C    0.159294
    12  C    0.095488
    13  C   -0.107920
    14  C   -0.170955
    15  C   -0.076412
    16  C    0.087131
    17  C   -0.171250
    18  C    0.118692
    19  C   -0.064056
    20  C   -0.119585
    21  C    0.136105
    22  C    0.122745
    23  C   -0.046633
    24  C    0.233460
    25  C    0.007194
    26  C   -0.119613
    27  C   -0.071786
    28  C    0.142790
    29  C    0.091673
    30  C    0.020123
    31  C    0.044405
    32  C    0.090422
    33  C   -0.081484
    34  C    0.126020
    35  C    0.077451
    36  C    0.061579
    37  C    0.089884
    38  C    0.065448
    39  C   -0.178937
    40  C    0.126920
    41  C   -0.049136
    42  C    0.011267
    43  C    0.043959
    44  H   -0.005841
    45  H    0.013914
    46  H    0.037647
    47  H    0.093412
    48  H    0.162542
    49  H    0.018782
    50  H    0.001117
    51  H   -0.004298
    52  H   -0.103383
    53  H    0.033857
    54  H    0.040702
    55  H    0.028205
    56  H    0.043777
    57  H    0.055578
    58  H    0.082468
    59  H    0.041680
    60  H    0.029705
    61  H    0.013485
    62  H    0.026139
    63  H   -0.002261
    64  H    0.029558
    65  H    0.030183
    66  H   -0.005180
    67  H    0.020232
    68  H    0.047036
    69  H   -0.085672
    70  H   -0.017810
    71  H   -0.016454
    72  H    0.164392
    73  H   -0.003594
    74  H    0.034101
    75  H    0.038101
    76  H    0.038995
    77  H    0.143305
    78  H    0.003987
    79  H    0.008615
 Sum of Mulliken charges =   0.00000

 Dipole moment (field-independent basis, Debye):
    X=             -1.7898    Y=              2.3606    Z=              3.5293  Tot=              4.6078
 Quadrupole moment (field-independent basis, Debye-Ang):
   XX=           -219.3600   YY=           -240.4782   ZZ=           -263.4421
   XY=            -21.5462   XZ=             35.3142   YZ=              3.7090

 Normal termination of Gaussian 09 at Tue Jul  9 06:54:13 2019.
