 Gaussian 09, Revision D.01,
 Gaussian 09:  ES64L-G09RevD.01 24-Apr-2013

 --------------------------
 # td=(NStates=1) B3LYP/SVP
 --------------------------

 --
 TD
 --
 Symbolic Z-matrix:
 Charge =  0 Multiplicity = 1

                         Standard orientation:
 ---------------------------------------------------------------------
 Center     Atomic      Atomic             Coordinates (Angstroms)
 Number     Number       Type             X           Y           Z
 ---------------------------------------------------------------------
      1          8           0        5.351060   -0.167991   -3.316183
      2          8           0       -2.890097   -3.044542    3.386886
      3          8           0       -3.241507   -0.873023    3.200863
      4          8           0       -1.514752    7.327558    1.346431
      5          8           0       -0.662338    6.915164   -0.628138
      6          8           0       -1.781395   -4.037718   -0.261298
      7          7           0        2.338483    0.789878    0.416386
      8          7           0        4.433278   -0.747935   -1.247280
      9          7           0       -1.911093    0.685451   -0.458833
     10          7           0       -2.649754   -1.880267   -0.467220
     11          6           0        4.943460   -1.167820    0.096351
     12          6           0        4.408580   -0.260116    1.214056
     13          6           0        2.914785   -0.020864    1.322575
     14          6           0        2.036808   -0.566586    2.103743
     15          6           0        0.730592   -0.109610    1.857209
     16          6           0        0.940287    0.864051    0.819596
     17          6           0        6.363387   -1.241523   -0.112281
     18          6           0       -0.540108   -0.337483    2.484071
     19          6           0        6.802388   -0.825364   -1.352022
     20          6           0        0.142246    1.914017    0.102854
     21          6           0       -1.142177    1.815034   -0.297307
     22          6           0        5.497325   -0.554627   -2.171972
     23          6           0       -2.072531    2.884423   -0.762529
     24          6           0        2.331535   -1.649038    3.163413
     25          6           0        7.356778   -1.726529    0.998188
     26          6           0       -3.282433    2.395683   -1.074533
     27          6           0       -0.978180   -1.795116    2.556911
     28          6           0       -3.235134    0.970965   -0.859445
     29          6           0       -1.570396    4.363857   -0.936733
     30          6           0        8.003606   -0.801177   -2.123127
     31          6           0       -1.632247    5.146109    0.469279
     32          6           0       -4.470097    2.979654   -1.675484
     33          6           0       -4.135775   -0.011920   -1.119493
     34          6           0       -2.458298   -1.864301    3.088924
     35          6           0       -3.743000   -1.452913   -0.976280
     36          6           0        9.245226   -0.709174   -1.619044
     37          6           0       -1.199346    6.508199    0.339574
     38          6           0       -4.811128   -2.550628   -1.358519
     39          6           0       -4.019655   -3.698343   -1.084474
     40          6           0       -2.710139   -3.285261   -0.623694
     41          6           0       -6.137273   -2.341046   -2.012635
     42          6           0       -4.306757   -5.147949   -1.377370
     43          6           0       -6.931556   -3.209054   -2.664585
     44          1           0        4.627055   -2.319204    0.079348
     45          1           0        4.954068    0.588079    0.994348
     46          1           0        4.831087   -0.509983    2.116261
     47          1           0        2.896263    1.192884   -0.306537
     48          1           0        3.487150   -0.827745   -1.575666
     49          1           0       -0.735177    0.347398    3.527049
     50          1           0       -1.555277    0.165678    1.833420
     51          1           0        0.705278    3.021041    0.059142
     52          1           0        3.366989   -1.873487    3.748180
     53          1           0        1.560000   -1.687850    3.952547
     54          1           0        2.207538   -2.807807    2.667940
     55          1           0        6.899090   -2.094472    1.913131
     56          1           0        7.865798   -0.611594    1.273584
     57          1           0        8.216454   -2.297352    0.497727
     58          1           0       -0.933850   -2.284556    1.512122
     59          1           0       -0.536879   -2.469196    3.491797
     60          1           0       -1.818068   -0.312791   -0.407742
     61          1           0       -2.194224    4.918019   -1.598684
     62          1           0       -0.549227    4.332091   -1.349312
     63          1           0        7.717534   -0.754950   -3.108654
     64          1           0       -0.913470    4.758883    1.328774
     65          1           0       -2.642750    4.983425    0.871820
     66          1           0       -4.270948    3.911920   -1.874204
     67          1           0       -5.335939    2.924672   -0.961282
     68          1           0       -4.898552    2.528418   -2.535859
     69          1           0       -5.105663    0.177464   -1.580773
     70          1           0        9.486048   -0.891823   -0.573611
     71          1           0       10.114541   -0.502473   -2.333898
     72          1           0       -3.763723   -2.972603    3.718895
     73          1           0       -6.483218   -1.303799   -1.945359
     74          1           0       -4.657410   -5.156791   -2.575885
     75          1           0       -3.100824   -5.691634   -1.389033
     76          1           0       -5.062374   -5.719826   -0.831603
     77          1           0       -1.313373    8.387850    1.043547
     78          1           0       -8.053000   -2.842733   -3.008455
     79          1           0       -6.619762   -4.283929   -2.694251
 ---------------------------------------------------------------------

 SCF Done:  E(RB3LYP) =  -1947.80952803     A.U. after   16 cycles

 Excitation energies and oscillator strengths:

 Excited State   1:      Singlet-A      1.9521 eV  635.13 nm  f=0.3142  <S**2>=0.000
     155 ->156         0.70181
 This state for optimization and/or second-order correction.
 Total Energy, E(TD-HF/TD-KS) =  -1947.73778958
 Copying the excited state density for this state as the 1-particle RhoCI density.

 The electronic state is 1-A.
 Alpha  occ. eigenvalues --  -19.18454 -19.18163 -19.11938 -19.11897 -19.10272
 Alpha  occ. eigenvalues --  -19.10183 -14.37089 -14.35281 -14.34573 -14.30972
 Alpha  occ. eigenvalues --  -10.31189 -10.30912 -10.28420 -10.27941 -10.25406
 Alpha  occ. eigenvalues --  -10.25250 -10.24326 -10.24160 -10.23354 -10.22859
 Alpha  occ. eigenvalues --  -10.22503 -10.22467 -10.22262 -10.22096 -10.21974
 Alpha  occ. eigenvalues --  -10.21920 -10.21863 -10.21469 -10.21398 -10.21240
 Alpha  occ. eigenvalues --  -10.21224 -10.21219 -10.21124 -10.20939 -10.20485
 Alpha  occ. eigenvalues --  -10.20317 -10.20000 -10.19961 -10.19763 -10.19286
 Alpha  occ. eigenvalues --  -10.19284 -10.18868 -10.17998  -1.11006  -1.09891
 Alpha  occ. eigenvalues --   -1.01915  -1.01708  -1.00229  -0.97829  -0.97507
 Alpha  occ. eigenvalues --   -0.96516  -0.93949  -0.92769  -0.82576  -0.81760
 Alpha  occ. eigenvalues --   -0.81594  -0.81163  -0.80608  -0.79688  -0.78112
 Alpha  occ. eigenvalues --   -0.77002  -0.76109  -0.75630  -0.74613  -0.72923
 Alpha  occ. eigenvalues --   -0.70919  -0.70142  -0.68866  -0.68664  -0.67640
 Alpha  occ. eigenvalues --   -0.67359  -0.65803  -0.64395  -0.61804  -0.60959
 Alpha  occ. eigenvalues --   -0.60068  -0.59224  -0.58230  -0.57101  -0.56585
 Alpha  occ. eigenvalues --   -0.56143  -0.55421  -0.54789  -0.53947  -0.53215
 Alpha  occ. eigenvalues --   -0.51939  -0.51124  -0.50853  -0.49958  -0.49529
 Alpha  occ. eigenvalues --   -0.48213  -0.47951  -0.47773  -0.47647  -0.47423
 Alpha  occ. eigenvalues --   -0.47388  -0.47107  -0.46962  -0.46179  -0.45318
 Alpha  occ. eigenvalues --   -0.45091  -0.44989  -0.44331  -0.44042  -0.43933
 Alpha  occ. eigenvalues --   -0.43720  -0.43587  -0.42608  -0.42190  -0.41880
 Alpha  occ. eigenvalues --   -0.41519  -0.41259  -0.41028  -0.40827  -0.40545
 Alpha  occ. eigenvalues --   -0.40436  -0.39836  -0.39712  -0.39543  -0.39446
 Alpha  occ. eigenvalues --   -0.39386  -0.38588  -0.38517  -0.38312  -0.38005
 Alpha  occ. eigenvalues --   -0.37952  -0.37587  -0.37105  -0.36935  -0.36316
 Alpha  occ. eigenvalues --   -0.36098  -0.35825  -0.35467  -0.35205  -0.34763
 Alpha  occ. eigenvalues --   -0.34602  -0.33454  -0.32349  -0.31862  -0.31322
 Alpha  occ. eigenvalues --   -0.30357  -0.29861  -0.29415  -0.28708  -0.28046
 Alpha  occ. eigenvalues --   -0.26087  -0.25855  -0.25750  -0.25621  -0.25294
 Alpha  occ. eigenvalues --   -0.24177  -0.23933  -0.23618  -0.23132  -0.19418
 Alpha virt. eigenvalues --   -0.11456  -0.06797  -0.05602  -0.01458  -0.00017
 Alpha virt. eigenvalues --    0.00856   0.01379   0.01493   0.01693   0.02810
 Alpha virt. eigenvalues --    0.03752   0.04125   0.04245   0.04893   0.05337

 Mulliken charges:
               1
     1  O   -0.222488
     2  O   -0.093887
     3  O   -0.308930
     4  O   -0.257786
     5  O   -0.208987
     6  O   -0.213116
     7  N   -0.090822
     8  N   -0.273369
     9  N   -0.099124
    10  N   -0.221748
    11  C    0.124648
    12  C    0.325695
    13  C   -0.088355
    14  C   -0.081133
    15  C    0.043064
    16  C    0.044067
    17  C   -0.233977
    18  C   -0.142057
    19  C   -0.074870
    20  C   -0.151631
    21  C    0.180136
    22  C    0.158514
    23  C   -0.134884
    24  C   -0.031029
    25  C    0.016457
    26  C   -0.112891
    27  C   -0.054631
    28  C    0.122321
    29  C    0.137367
    30  C    0.054380
    31  C   -0.043469
    32  C    0.221329
    33  C   -0.096280
    34  C    0.120134
    35  C    0.018097
    36  C   -0.039553
    37  C    0.121213
    38  C    0.035602
    39  C   -0.161880
    40  C    0.174066
    41  C   -0.008607
    42  C   -0.061698
    43  C   -0.062170
    44  H    0.043054
    45  H   -0.049270
    46  H   -0.042588
    47  H    0.108808
    48  H    0.126378
    49  H    0.048247
    50  H    0.076862
    51  H    0.049999
    52  H    0.029935
    53  H    0.020401
    54  H    0.030626
    55  H    0.031402
    56  H    0.057011
    57  H    0.065634
    58  H    0.104088
    59  H    0.050132
    60  H    0.118568
    61  H    0.003268
    62  H    0.028028
    63  H   -0.021666
    64  H    0.063684
    65  H    0.041171
    66  H   -0.053960
    67  H    0.018833
    68  H    0.011061
    69  H   -0.028317
    70  H    0.017470
    71  H    0.040414
    72  H    0.162832
    73  H    0.000555
    74  H    0.049243
    75  H    0.075667
    76  H    0.052311
    77  H    0.246641
    78  H    0.063233
    79  H    0.032526
 Sum of Mulliken charges =   0.00000

 Dipole moment (field-independent basis, Debye):
    X=             -1.9180    Y=              1.6609    Z=              2.5632  Tot=              3.6066
 Quadrupole moment (field-independent basis, Debye-Ang):
   XX=           -212.1455   YY=           -240.9389   ZZ=           -264.8089
   XY=             -7.0220   XZ=             34.1448   YZ=              1.1577

 Normal termination of Gaussian 09 at Sun Jul  7 23:39:14 2019.
