 Gaussian 09, Revision D.01,
 Gaussian 09:  ES64L-G09RevD.01 24-Apr-2013

 --------------------------
 # td=(NStates=1) B3LYP/SVP
 --------------------------

 --
 TD
 --
 Symbolic Z-matrix:
 Charge =  0 Multiplicity = 1

                         Standard orientation:
 ---------------------------------------------------------------------
 Center     Atomic      Atomic             Coordinates (Angstroms)
 Number     Number       Type             X           Y           Z
 ---------------------------------------------------------------------
      1          8           0        5.322892   -0.494616   -3.387178
      2          8           0       -2.794174   -3.273020    3.110984
      3          8           0       -3.165119   -1.049114    3.247737
      4          8           0       -1.496631    7.349950    1.465112
      5          8           0        0.010629    6.832098   -0.240766
      6          8           0       -1.935287   -3.864097   -0.196127
      7          7           0        2.408822    0.828895    0.607604
      8          7           0        4.369711   -0.771736   -1.245762
      9          7           0       -1.869200    0.724026   -0.572360
     10          7           0       -2.739271   -1.715035   -0.741683
     11          6           0        4.844188   -1.204284    0.010645
     12          6           0        4.567863   -0.357890    1.263009
     13          6           0        2.931469   -0.184293    1.237347
     14          6           0        1.941406   -0.722265    1.957289
     15          6           0        0.763777   -0.119951    1.619495
     16          6           0        1.053832    0.839541    0.739306
     17          6           0        6.378027   -1.356188   -0.164345
     18          6           0       -0.562675   -0.383106    2.356800
     19          6           0        6.732165   -0.933122   -1.431137
     20          6           0        0.197245    1.903390    0.096383
     21          6           0       -1.136253    1.760809   -0.313231
     22          6           0        5.430477   -0.694201   -2.262949
     23          6           0       -1.912704    2.972855   -0.836897
     24          6           0        2.273836   -1.732698    3.147302
     25          6           0        7.199809   -1.840673    0.911542
     26          6           0       -3.127288    2.471100   -1.170699
     27          6           0       -1.021034   -1.777609    2.463399
     28          6           0       -3.102568    1.004360   -1.066455
     29          6           0       -1.460254    4.433769   -0.851477
     30          6           0        8.023048   -1.039138   -2.088636
     31          6           0       -1.629942    5.235319    0.501764
     32          6           0       -4.317113    3.262719   -1.634672
     33          6           0       -4.137499    0.085778   -1.399985
     34          6           0       -2.447188   -1.952833    3.098574
     35          6           0       -3.933590   -1.248903   -1.234215
     36          6           0        9.196854   -0.739087   -1.421128
     37          6           0       -0.913249    6.494257    0.488039
     38          6           0       -4.878800   -2.399491   -1.345550
     39          6           0       -4.256294   -3.462512   -0.989275
     40          6           0       -2.814293   -3.155912   -0.635970
     41          6           0       -6.249200   -2.201483   -1.799780
     42          6           0       -4.698082   -4.888910   -1.098645
     43          6           0       -7.148890   -3.105717   -2.337479
     44          1           0        4.295892   -2.231601    0.292031
     45          1           0        4.939541    0.507752    1.048514
     46          1           0        4.949217   -0.562768    2.190980
     47          1           0        2.840943    1.473164   -0.119700
     48          1           0        3.456360   -0.963696   -1.620501
     49          1           0       -0.648944    0.042106    3.391207
     50          1           0       -1.418263    0.152994    1.840409
     51          1           0        0.655015    2.856223    0.006667
     52          1           0        3.279715   -1.924397    3.386620
     53          1           0        1.766755   -1.467515    4.108907
     54          1           0        1.846666   -2.855512    2.921322
     55          1           0        6.556379   -2.520404    1.527185
     56          1           0        7.416794   -0.932663    1.798283
     57          1           0        8.175613   -2.277407    0.603480
     58          1           0       -1.086441   -2.424035    1.566441
     59          1           0       -0.314590   -2.236047    3.220204
     60          1           0       -1.850804   -0.419525   -0.630155
     61          1           0       -2.075557    4.854147   -1.785915
     62          1           0       -0.357250    4.528956   -1.077593
     63          1           0        8.093453   -1.487439   -3.356665
     64          1           0       -1.018032    4.629465    1.230050
     65          1           0       -2.569628    5.420527    0.779994
     66          1           0       -4.243838    4.323947   -1.414556
     67          1           0       -5.088578    3.060346   -0.985079
     68          1           0       -4.672853    2.894137   -2.681231
     69          1           0       -5.060577    0.224385   -1.867701
     70          1           0        9.146270   -0.438289   -0.246183
     71          1           0       10.165484   -0.589208   -2.017763
     72          1           0       -3.677854   -3.459821    3.492200
     73          1           0       -6.676569   -0.993104   -1.801360
     74          1           0       -4.779312   -5.368742   -2.009596
     75          1           0       -4.031013   -5.534864   -0.397631
     76          1           0       -5.734269   -4.891344   -0.631269
     77          1           0       -0.870864    8.290974    1.460974
     78          1           0       -8.064852   -2.799609   -3.028403
     79          1           0       -6.795405   -4.135538   -2.377071
 ---------------------------------------------------------------------

 SCF Done:  E(RB3LYP) =  -1947.81384134     A.U. after   16 cycles

 Excitation energies and oscillator strengths:

 Excited State   1:      Singlet-A      2.2191 eV  558.72 nm  f=0.4683  <S**2>=0.000
     155 ->156         0.69557
     155 <-156        -0.10596
 This state for optimization and/or second-order correction.
 Total Energy, E(TD-HF/TD-KS) =  -1947.73229117
 Copying the excited state density for this state as the 1-particle RhoCI density.

 The electronic state is 1-A.
 Alpha  occ. eigenvalues --  -19.18910 -19.16178 -19.14016 -19.12351 -19.11373
 Alpha  occ. eigenvalues --  -19.10921 -14.38130 -14.35647 -14.34778 -14.29189
 Alpha  occ. eigenvalues --  -10.32808 -10.29966 -10.29544 -10.27023 -10.25350
 Alpha  occ. eigenvalues --  -10.24988 -10.24260 -10.22755 -10.22683 -10.22603
 Alpha  occ. eigenvalues --  -10.22551 -10.22397 -10.22383 -10.22114 -10.21888
 Alpha  occ. eigenvalues --  -10.21739 -10.21453 -10.21314 -10.21004 -10.20809
 Alpha  occ. eigenvalues --  -10.20687 -10.20377 -10.20084 -10.20020 -10.19835
 Alpha  occ. eigenvalues --  -10.19644 -10.19141 -10.18873 -10.18872 -10.18198
 Alpha  occ. eigenvalues --  -10.17686 -10.17673 -10.17621  -1.08186  -1.07165
 Alpha  occ. eigenvalues --   -1.07069  -1.01777  -1.01126  -1.00361  -0.99425
 Alpha  occ. eigenvalues --   -0.99065  -0.93769  -0.91640  -0.82271  -0.82094
 Alpha  occ. eigenvalues --   -0.81529  -0.80919  -0.80214  -0.79347  -0.78426
 Alpha  occ. eigenvalues --   -0.77046  -0.75819  -0.75179  -0.74063  -0.72495
 Alpha  occ. eigenvalues --   -0.70715  -0.70515  -0.69940  -0.68625  -0.67670
 Alpha  occ. eigenvalues --   -0.65951  -0.65550  -0.64158  -0.61627  -0.59708
 Alpha  occ. eigenvalues --   -0.58640  -0.58391  -0.57090  -0.57017  -0.56730
 Alpha  occ. eigenvalues --   -0.55960  -0.55200  -0.54624  -0.53997  -0.52443
 Alpha  occ. eigenvalues --   -0.51743  -0.51410  -0.51317  -0.50222  -0.49547
 Alpha  occ. eigenvalues --   -0.48650  -0.48043  -0.47789  -0.47583  -0.47144
 Alpha  occ. eigenvalues --   -0.47083  -0.46674  -0.46276  -0.45977  -0.45312
 Alpha  occ. eigenvalues --   -0.45142  -0.44787  -0.44601  -0.44131  -0.43687
 Alpha  occ. eigenvalues --   -0.43547  -0.43103  -0.42853  -0.42705  -0.42637
 Alpha  occ. eigenvalues --   -0.42291  -0.41604  -0.41239  -0.41087  -0.40946
 Alpha  occ. eigenvalues --   -0.40861  -0.40335  -0.40222  -0.40072  -0.39567
 Alpha  occ. eigenvalues --   -0.39381  -0.38981  -0.38460  -0.38294  -0.37993
 Alpha  occ. eigenvalues --   -0.37797  -0.37672  -0.37257  -0.37047  -0.36785
 Alpha  occ. eigenvalues --   -0.36141  -0.35929  -0.35377  -0.34847  -0.34707
 Alpha  occ. eigenvalues --   -0.33943  -0.33776  -0.32580  -0.31504  -0.31172
 Alpha  occ. eigenvalues --   -0.30734  -0.30533  -0.29162  -0.28327  -0.27854
 Alpha  occ. eigenvalues --   -0.27121  -0.26291  -0.26232  -0.25705  -0.25101
 Alpha  occ. eigenvalues --   -0.24575  -0.23986  -0.23665  -0.22672  -0.19377
 Alpha virt. eigenvalues --   -0.10669  -0.05933  -0.05763  -0.01286  -0.00922
 Alpha virt. eigenvalues --   -0.00236   0.00737   0.02406   0.02857   0.03438
 Alpha virt. eigenvalues --    0.03662   0.03797   0.04277   0.04377   0.05240

 Mulliken charges:
               1
     1  O   -0.112163
     2  O   -0.210791
     3  O   -0.174817
     4  O   -0.312605
     5  O   -0.227870
     6  O   -0.186141
     7  N   -0.003734
     8  N   -0.235529
     9  N   -0.037381
    10  N   -0.375712
    11  C    0.007737
    12  C    0.371513
    13  C   -0.167731
    14  C   -0.109581
    15  C   -0.040448
    16  C   -0.013292
    17  C   -0.113807
    18  C    0.092638
    19  C   -0.086110
    20  C   -0.061043
    21  C    0.083663
    22  C    0.151661
    23  C   -0.109035
    24  C    0.044535
    25  C    0.018921
    26  C   -0.155630
    27  C   -0.063737
    28  C    0.121028
    29  C    0.008645
    30  C   -0.072409
    31  C    0.115728
    32  C    0.164373
    33  C   -0.063676
    34  C    0.115851
    35  C    0.054943
    36  C   -0.109900
    37  C    0.144650
    38  C    0.149137
    39  C   -0.239258
    40  C    0.204540
    41  C   -0.107367
    42  C    0.060421
    43  C   -0.066324
    44  H    0.033758
    45  H   -0.095369
    46  H   -0.018201
    47  H    0.133508
    48  H    0.128582
    49  H    0.005617
    50  H    0.003346
    51  H   -0.021651
    52  H   -0.014236
    53  H    0.025575
    54  H    0.040969
    55  H    0.027011
    56  H    0.049527
    57  H    0.054418
    58  H    0.070673
    59  H    0.009566
    60  H    0.200614
    61  H    0.048424
    62  H    0.033892
    63  H    0.075599
    64  H    0.055038
    65  H   -0.002333
    66  H   -0.000996
    67  H   -0.013363
    68  H    0.044051
    69  H   -0.064434
    70  H    0.056304
    71  H    0.051085
    72  H    0.179963
    73  H    0.038563
    74  H    0.030541
    75  H    0.037182
    76  H    0.022380
    77  H    0.241963
    78  H    0.061083
    79  H    0.017459
 Sum of Mulliken charges =   0.00000

 Dipole moment (field-independent basis, Debye):
    X=              0.3652    Y=              2.3305    Z=              2.5088  Tot=              3.4436
 Quadrupole moment (field-independent basis, Debye-Ang):
   XX=           -218.9523   YY=           -243.4136   ZZ=           -257.7603
   XY=             -4.3156   XZ=             29.6345   YZ=              2.5895

 Normal termination of Gaussian 09 at Tue Jul  9 23:14:34 2019.
