 Gaussian 09, Revision D.01,
 Gaussian 09:  ES64L-G09RevD.01 24-Apr-2013

 --------------------------
 # td=(NStates=1) B3LYP/SVP
 --------------------------

 --
 TD
 --
 Symbolic Z-matrix:
 Charge =  0 Multiplicity = 1

                         Standard orientation:
 ---------------------------------------------------------------------
 Center     Atomic      Atomic             Coordinates (Angstroms)
 Number     Number       Type             X           Y           Z
 ---------------------------------------------------------------------
      1          8           0        5.309281   -0.222818   -3.316623
      2          8           0       -2.815203   -3.257955    3.100833
      3          8           0       -3.231416   -1.098266    3.449524
      4          8           0       -1.347111    7.140546    1.662440
      5          8           0       -0.077835    6.946484   -0.229238
      6          8           0       -2.180251   -4.023797   -0.163572
      7          7           0        2.483545    0.897881    0.618959
      8          7           0        4.321586   -0.745919   -1.173901
      9          7           0       -1.853462    0.750221   -0.382604
     10          7           0       -2.698899   -1.810884   -0.451286
     11          6           0        4.842011   -1.353293    0.034364
     12          6           0        4.459428   -0.477961    1.346219
     13          6           0        2.988357   -0.140721    1.430173
     14          6           0        2.020322   -0.834274    2.021837
     15          6           0        0.700825   -0.192938    1.771344
     16          6           0        1.116334    0.709525    0.822052
     17          6           0        6.310241   -1.425684   -0.310011
     18          6           0       -0.572580   -0.448661    2.495218
     19          6           0        6.580729   -0.935786   -1.471375
     20          6           0        0.302437    1.849337    0.229011
     21          6           0       -1.044449    1.850075   -0.265760
     22          6           0        5.325617   -0.588411   -2.118134
     23          6           0       -1.767341    3.022823   -0.821919
     24          6           0        2.224835   -1.853979    3.052148
     25          6           0        7.134552   -2.040584    0.825077
     26          6           0       -3.011428    2.485579   -1.160155
     27          6           0       -1.136839   -1.772750    2.364693
     28          6           0       -3.024366    1.066203   -0.942771
     29          6           0       -1.192138    4.381221   -0.933171
     30          6           0        7.869487   -0.791363   -2.208405
     31          6           0       -1.457819    5.135690    0.462731
     32          6           0       -4.214997    3.359546   -1.822681
     33          6           0       -4.060718    0.176548   -1.217484
     34          6           0       -2.559005   -1.942518    2.977757
     35          6           0       -3.868986   -1.221944   -0.949331
     36          6           0        9.090874   -0.946858   -1.709540
     37          6           0       -0.883415    6.546496    0.494498
     38          6           0       -4.915361   -2.377749   -1.471253
     39          6           0       -4.330976   -3.453117   -1.229486
     40          6           0       -2.956063   -3.208807   -0.529261
     41          6           0       -6.195488   -1.898824   -1.967955
     42          6           0       -4.782967   -4.838734   -1.501416
     43          6           0       -7.045043   -2.731204   -2.707787
     44          1           0        4.426451   -2.353022    0.109721
     45          1           0        5.039285    0.558423    1.504470
     46          1           0        4.682639   -1.002775    2.262383
     47          1           0        2.885652    1.219521   -0.255267
     48          1           0        3.310004   -0.969739   -1.365356
     49          1           0       -0.631328   -0.294379    3.671380
     50          1           0       -1.475322    0.307270    2.354065
     51          1           0        0.870749    2.792331    0.101514
     52          1           0        3.094346   -1.602354    3.580207
     53          1           0        1.418385   -1.920333    3.774025
     54          1           0        2.390073   -3.035800    2.581844
     55          1           0        6.541756   -2.878707    1.415147
     56          1           0        7.585434   -1.233670    1.530959
     57          1           0        7.944258   -2.636435    0.367391
     58          1           0       -1.407466   -1.930995    1.228009
     59          1           0       -0.430056   -2.572166    2.970280
     60          1           0       -1.531483   -0.198963   -0.232063
     61          1           0       -1.771508    5.013071   -1.625741
     62          1           0       -0.131084    4.422309   -1.041497
     63          1           0        7.683410   -0.462616   -3.330722
     64          1           0       -1.094160    4.794386    1.466719
     65          1           0       -2.503713    4.999853    0.753362
     66          1           0       -3.511016    4.264565   -2.453779
     67          1           0       -4.895479    3.524507   -1.204560
     68          1           0       -4.501765    2.855134   -2.629088
     69          1           0       -5.069505    0.424603   -1.612199
     70          1           0        9.190607   -1.081774   -0.616390
     71          1           0        9.999270   -0.990241   -2.381209
     72          1           0       -3.743355   -3.344745    3.483300
     73          1           0       -6.584752   -1.080744   -1.787660
     74          1           0       -4.907557   -4.904997   -2.533041
     75          1           0       -3.968060   -5.599621   -1.023566
     76          1           0       -5.773994   -5.295946   -0.914940
     77          1           0       -0.982530    7.985730    1.485846
     78          1           0       -7.961079   -2.167514   -3.070496
     79          1           0       -6.892656   -3.758103   -2.803476
 ---------------------------------------------------------------------

 SCF Done:  E(RB3LYP) =  -1947.79352247     A.U. after   16 cycles

 Excitation energies and oscillator strengths:

 Excited State   1:      Singlet-A      2.3037 eV  538.19 nm  f=0.4825  <S**2>=0.000
     155 ->156         0.69962
     155 <-156        -0.10624
 This state for optimization and/or second-order correction.
 Total Energy, E(TD-HF/TD-KS) =  -1947.70886191
 Copying the excited state density for this state as the 1-particle RhoCI density.

 The electronic state is 1-A.
 Alpha  occ. eigenvalues --  -19.18447 -19.16689 -19.15155 -19.11665 -19.10553
 Alpha  occ. eigenvalues --  -19.10248 -14.37744 -14.37201 -14.36498 -14.30084
 Alpha  occ. eigenvalues --  -10.32899 -10.30188 -10.28941 -10.26585 -10.25245
 Alpha  occ. eigenvalues --  -10.25131 -10.24874 -10.24191 -10.23675 -10.22594
 Alpha  occ. eigenvalues --  -10.22571 -10.22319 -10.22201 -10.22138 -10.21991
 Alpha  occ. eigenvalues --  -10.21540 -10.21533 -10.21446 -10.20518 -10.20450
 Alpha  occ. eigenvalues --  -10.20338 -10.20229 -10.20169 -10.19960 -10.19758
 Alpha  occ. eigenvalues --  -10.19734 -10.19697 -10.19683 -10.19627 -10.19562
 Alpha  occ. eigenvalues --  -10.19090 -10.18912 -10.18456  -1.12252  -1.08797
 Alpha  occ. eigenvalues --   -1.04303  -1.03190  -1.01347  -1.00084  -0.99888
 Alpha  occ. eigenvalues --   -0.98081  -0.94772  -0.89766  -0.82885  -0.82636
 Alpha  occ. eigenvalues --   -0.82140  -0.81231  -0.80691  -0.79244  -0.77545
 Alpha  occ. eigenvalues --   -0.77056  -0.76258  -0.75724  -0.74212  -0.72749
 Alpha  occ. eigenvalues --   -0.71838  -0.71262  -0.69718  -0.68941  -0.68295
 Alpha  occ. eigenvalues --   -0.66145  -0.65933  -0.62923  -0.61121  -0.60745
 Alpha  occ. eigenvalues --   -0.59582  -0.58666  -0.58262  -0.57787  -0.57484
 Alpha  occ. eigenvalues --   -0.56255  -0.56005  -0.55401  -0.53921  -0.53034
 Alpha  occ. eigenvalues --   -0.51853  -0.51496  -0.51113  -0.50758  -0.50599
 Alpha  occ. eigenvalues --   -0.49682  -0.49014  -0.48292  -0.48025  -0.47953
 Alpha  occ. eigenvalues --   -0.47782  -0.47554  -0.47236  -0.46854  -0.46514
 Alpha  occ. eigenvalues --   -0.45786  -0.45005  -0.44450  -0.44052  -0.43753
 Alpha  occ. eigenvalues --   -0.43561  -0.43192  -0.43101  -0.42880  -0.42414
 Alpha  occ. eigenvalues --   -0.42295  -0.42135  -0.41876  -0.41755  -0.41574
 Alpha  occ. eigenvalues --   -0.41052  -0.40924  -0.40035  -0.39766  -0.39631
 Alpha  occ. eigenvalues --   -0.39508  -0.39229  -0.39091  -0.38983  -0.38763
 Alpha  occ. eigenvalues --   -0.38246  -0.37572  -0.37096  -0.36448  -0.36143
 Alpha  occ. eigenvalues --   -0.35740  -0.35217  -0.34998  -0.34714  -0.34278
 Alpha  occ. eigenvalues --   -0.33944  -0.33851  -0.33483  -0.32023  -0.31558
 Alpha  occ. eigenvalues --   -0.31171  -0.30596  -0.30253  -0.28267  -0.27639
 Alpha  occ. eigenvalues --   -0.27252  -0.26457  -0.26370  -0.25702  -0.25191
 Alpha  occ. eigenvalues --   -0.25008  -0.24579  -0.24139  -0.23179  -0.19486
 Alpha virt. eigenvalues --   -0.10489  -0.05670  -0.05199  -0.01326   0.00103
 Alpha virt. eigenvalues --    0.00324   0.00850   0.02237   0.02561   0.02799
 Alpha virt. eigenvalues --    0.03408   0.04481   0.04697   0.05281   0.05556

 Mulliken charges:
               1
     1  O   -0.256458
     2  O   -0.194333
     3  O   -0.198717
     4  O   -0.184973
     5  O   -0.155618
     6  O   -0.152685
     7  N   -0.106778
     8  N   -0.230648
     9  N   -0.010964
    10  N   -0.346560
    11  C    0.106753
    12  C    0.182400
    13  C   -0.109780
    14  C   -0.124325
    15  C    0.066351
    16  C   -0.001962
    17  C   -0.199258
    18  C   -0.019621
    19  C   -0.004797
    20  C   -0.086743
    21  C    0.049017
    22  C    0.169173
    23  C   -0.085047
    24  C    0.061144
    25  C    0.027372
    26  C   -0.203335
    27  C   -0.104186
    28  C    0.169387
    29  C    0.199922
    30  C   -0.026981
    31  C   -0.088371
    32  C    0.199932
    33  C   -0.136591
    34  C    0.109144
    35  C    0.036932
    36  C   -0.036594
    37  C    0.137373
    38  C    0.126651
    39  C   -0.208322
    40  C    0.163588
    41  C    0.040064
    42  C   -0.011078
    43  C   -0.006280
    44  H    0.022287
    45  H    0.023559
    46  H   -0.020155
    47  H    0.136619
    48  H    0.152666
    49  H    0.015289
    50  H    0.031166
    51  H    0.001113
    52  H   -0.000603
    53  H    0.015216
    54  H    0.038019
    55  H    0.036103
    56  H    0.063364
    57  H    0.035056
    58  H    0.106898
    59  H    0.055983
    60  H    0.146451
    61  H    0.013259
    62  H    0.015510
    63  H    0.045963
    64  H    0.047842
    65  H    0.025368
    66  H    0.038181
    67  H   -0.018341
    68  H   -0.009948
    69  H   -0.012644
    70  H    0.015669
    71  H    0.043012
    72  H    0.186213
    73  H   -0.110104
    74  H    0.029814
    75  H    0.048625
    76  H    0.043534
    77  H    0.142585
    78  H    0.033599
    79  H    0.008633
 Sum of Mulliken charges =   0.00000

 Dipole moment (field-independent basis, Debye):
    X=             -0.3516    Y=              2.3872    Z=              2.3223  Tot=              3.3490
 Quadrupole moment (field-independent basis, Debye-Ang):
   XX=           -221.1000   YY=           -245.8908   ZZ=           -266.0388
   XY=            -14.3071   XZ=             32.7304   YZ=             -1.9463

 Normal termination of Gaussian 09 at Tue Jul  9 09:15:27 2019.
