 Gaussian 09, Revision D.01,
 Gaussian 09:  ES64L-G09RevD.01 24-Apr-2013

 --------------------------
 # td=(NStates=1) B3LYP/SVP
 --------------------------

 --
 TD
 --
 Symbolic Z-matrix:
 Charge =  0 Multiplicity = 1

                         Standard orientation:
 ---------------------------------------------------------------------
 Center     Atomic      Atomic             Coordinates (Angstroms)
 Number     Number       Type             X           Y           Z
 ---------------------------------------------------------------------
      1          8           0        5.214455   -0.249524   -3.285321
      2          8           0       -2.943054   -3.020796    3.065433
      3          8           0       -3.242904   -0.819719    3.280997
      4          8           0       -1.386445    7.237050    1.431046
      5          8           0       -0.354407    6.812587   -0.478494
      6          8           0       -1.973702   -4.006105   -0.162271
      7          7           0        2.485951    0.916152    0.516001
      8          7           0        4.318719   -0.731277   -1.110715
      9          7           0       -1.896022    0.588678   -0.372313
     10          7           0       -2.750573   -1.784890   -0.544032
     11          6           0        4.846316   -1.235782    0.074853
     12          6           0        4.457563   -0.290964    1.311942
     13          6           0        3.047291   -0.010527    1.319457
     14          6           0        2.008750   -0.625689    2.112339
     15          6           0        0.719461   -0.014920    1.818120
     16          6           0        1.073609    0.882953    0.718490
     17          6           0        6.319587   -1.314504   -0.145439
     18          6           0       -0.574602   -0.235974    2.490436
     19          6           0        6.750575   -0.864043   -1.390548
     20          6           0        0.241763    1.798530   -0.052246
     21          6           0       -1.114492    1.738338   -0.351919
     22          6           0        5.421232   -0.588529   -2.111766
     23          6           0       -1.881522    2.917302   -0.898840
     24          6           0        2.238026   -1.675500    3.181847
     25          6           0        7.288054   -1.834804    0.911279
     26          6           0       -3.184415    2.380138   -1.193861
     27          6           0       -1.072586   -1.659595    2.403052
     28          6           0       -3.145546    0.996908   -0.914158
     29          6           0       -1.487322    4.341281   -0.878576
     30          6           0        7.989688   -0.900398   -2.119046
     31          6           0       -1.605395    4.967474    0.401073
     32          6           0       -4.363241    3.111254   -1.824916
     33          6           0       -4.070497   -0.013380   -1.239354
     34          6           0       -2.533218   -1.804926    3.015704
     35          6           0       -3.883527   -1.354095   -1.085849
     36          6           0        9.231987   -0.970777   -1.567830
     37          6           0       -1.102164    6.386778    0.462883
     38          6           0       -4.845129   -2.453707   -1.347519
     39          6           0       -4.119360   -3.592615   -1.140843
     40          6           0       -2.736980   -3.130363   -0.581064
     41          6           0       -6.169453   -2.253070   -1.864724
     42          6           0       -4.448625   -4.997298   -1.214109
     43          6           0       -7.009386   -3.145651   -2.309347
     44          1           0        4.580374   -2.335641    0.196440
     45          1           0        5.143835    0.617635    1.241878
     46          1           0        4.884561   -0.583098    2.120109
     47          1           0        2.993034    1.558546   -0.317777
     48          1           0        3.335257   -0.943316   -1.558459
     49          1           0       -0.480266    0.039452    3.515782
     50          1           0       -1.391128    0.528438    2.093838
     51          1           0        0.809595    2.849080   -0.349504
     52          1           0        3.217217   -1.746318    3.397674
     53          1           0        2.021425   -1.491892    4.170191
     54          1           0        1.807090   -2.623334    2.937724
     55          1           0        6.843254   -2.427107    1.724445
     56          1           0        7.931167   -1.038325    1.359105
     57          1           0        7.874084   -2.465639    0.255029
     58          1           0       -1.247987   -2.145312    1.373908
     59          1           0       -0.462993   -2.300119    2.913728
     60          1           0       -1.842399   -0.344117   -0.106783
     61          1           0       -2.178712    4.904813   -1.662280
     62          1           0       -0.399361    4.392937   -1.149445
     63          1           0        7.782593   -0.822294   -3.200449
     64          1           0       -0.876899    4.698630    1.225717
     65          1           0       -2.574624    4.962041    0.661112
     66          1           0       -3.962765    4.174366   -2.094799
     67          1           0       -5.213272    3.128043   -1.075044
     68          1           0       -4.921245    2.603127   -2.850804
     69          1           0       -5.017498    0.366113   -1.792984
     70          1           0        9.435680   -0.914379   -0.645142
     71          1           0       10.168150   -1.218362   -2.241620
     72          1           0       -3.905539   -2.841968    3.240215
     73          1           0       -6.480764   -1.175759   -1.685095
     74          1           0       -4.504231   -5.495002   -2.278308
     75          1           0       -3.606422   -5.423329   -0.604165
     76          1           0       -5.333614   -5.298117   -0.694451
     77          1           0       -1.070873    7.941363    1.093598
     78          1           0       -7.924105   -2.728962   -2.656822
     79          1           0       -6.769352   -4.273853   -2.727414
 ---------------------------------------------------------------------

 SCF Done:  E(RB3LYP) =  -1947.82648137     A.U. after   20 cycles

 Excitation energies and oscillator strengths:

 Excited State   1:      Singlet-A      2.1211 eV  584.52 nm  f=0.5564  <S**2>=0.000
     154 ->156         0.12494
     155 ->156         0.69870
     155 <-156        -0.12568
 This state for optimization and/or second-order correction.
 Total Energy, E(TD-HF/TD-KS) =  -1947.74853099
 Copying the excited state density for this state as the 1-particle RhoCI density.

 The electronic state is 1-A.
 Alpha  occ. eigenvalues --  -19.19803 -19.18819 -19.12391 -19.11476 -19.10834
 Alpha  occ. eigenvalues --  -19.09400 -14.40214 -14.35908 -14.35754 -14.28113
 Alpha  occ. eigenvalues --  -10.33399 -10.30770 -10.29877 -10.25550 -10.25439
 Alpha  occ. eigenvalues --  -10.25037 -10.24424 -10.24181 -10.24079 -10.23555
 Alpha  occ. eigenvalues --  -10.23401 -10.23048 -10.22757 -10.22186 -10.22135
 Alpha  occ. eigenvalues --  -10.21855 -10.21582 -10.21578 -10.21554 -10.21451
 Alpha  occ. eigenvalues --  -10.21306 -10.20855 -10.20243 -10.20141 -10.19665
 Alpha  occ. eigenvalues --  -10.19110 -10.18799 -10.18714 -10.18706 -10.18098
 Alpha  occ. eigenvalues --  -10.18045 -10.17870 -10.17305  -1.14908  -1.11356
 Alpha  occ. eigenvalues --   -1.01680  -0.99915  -0.99126  -0.98170  -0.97904
 Alpha  occ. eigenvalues --   -0.97065  -0.93894  -0.92378  -0.84719  -0.82647
 Alpha  occ. eigenvalues --   -0.81630  -0.80950  -0.80206  -0.79900  -0.79001
 Alpha  occ. eigenvalues --   -0.77334  -0.76279  -0.75652  -0.74411  -0.72791
 Alpha  occ. eigenvalues --   -0.71939  -0.71840  -0.70073  -0.69006  -0.68639
 Alpha  occ. eigenvalues --   -0.67005  -0.66474  -0.64337  -0.62630  -0.62321
 Alpha  occ. eigenvalues --   -0.59809  -0.58982  -0.58404  -0.57058  -0.56694
 Alpha  occ. eigenvalues --   -0.56433  -0.55452  -0.55246  -0.54586  -0.53532
 Alpha  occ. eigenvalues --   -0.52839  -0.51790  -0.51315  -0.50896  -0.50406
 Alpha  occ. eigenvalues --   -0.50341  -0.49149  -0.48746  -0.48355  -0.47981
 Alpha  occ. eigenvalues --   -0.47610  -0.47238  -0.46649  -0.46284  -0.46000
 Alpha  occ. eigenvalues --   -0.45104  -0.44936  -0.44632  -0.44136  -0.43939
 Alpha  occ. eigenvalues --   -0.43623  -0.43381  -0.43254  -0.43009  -0.42781
 Alpha  occ. eigenvalues --   -0.42636  -0.42409  -0.42231  -0.41725  -0.41515
 Alpha  occ. eigenvalues --   -0.41120  -0.40965  -0.40319  -0.39950  -0.39888
 Alpha  occ. eigenvalues --   -0.39402  -0.38967  -0.38736  -0.38619  -0.38284
 Alpha  occ. eigenvalues --   -0.38156  -0.37707  -0.37663  -0.37352  -0.36255
 Alpha  occ. eigenvalues --   -0.36024  -0.35900  -0.35805  -0.35333  -0.35106
 Alpha  occ. eigenvalues --   -0.33844  -0.32711  -0.32409  -0.32349  -0.32317
 Alpha  occ. eigenvalues --   -0.31092  -0.30829  -0.28770  -0.28010  -0.27082
 Alpha  occ. eigenvalues --   -0.26829  -0.26465  -0.26241  -0.25771  -0.24901
 Alpha  occ. eigenvalues --   -0.24628  -0.23482  -0.22815  -0.21639  -0.18880
 Alpha virt. eigenvalues --   -0.10832  -0.06801  -0.05642  -0.01259  -0.00802
 Alpha virt. eigenvalues --   -0.00389   0.00426   0.01131   0.01971   0.02565
 Alpha virt. eigenvalues --    0.02758   0.03548   0.03990   0.04601   0.05240

 Mulliken charges:
               1
     1  O   -0.232823
     2  O   -0.107942
     3  O   -0.288363
     4  O   -0.045296
     5  O   -0.312157
     6  O   -0.247153
     7  N   -0.137062
     8  N   -0.283020
     9  N   -0.050475
    10  N   -0.271463
    11  C    0.125018
    12  C    0.261827
    13  C   -0.016151
    14  C   -0.177433
    15  C   -0.038496
    16  C    0.037254
    17  C   -0.248221
    18  C    0.107658
    19  C   -0.025954
    20  C   -0.117166
    21  C    0.107308
    22  C    0.160914
    23  C   -0.095921
    24  C    0.193657
    25  C    0.067739
    26  C   -0.101664
    27  C   -0.010101
    28  C    0.107424
    29  C    0.069000
    30  C   -0.008567
    31  C    0.119185
    32  C   -0.000189
    33  C   -0.159953
    34  C    0.107479
    35  C    0.110820
    36  C    0.026248
    37  C    0.081329
    38  C    0.060904
    39  C   -0.222935
    40  C    0.160681
    41  C   -0.022505
    42  C    0.053398
    43  C   -0.049637
    44  H    0.030959
    45  H   -0.009369
    46  H   -0.082953
    47  H    0.199730
    48  H    0.174789
    49  H   -0.003879
    50  H    0.040157
    51  H    0.027602
    52  H   -0.063355
    53  H   -0.016733
    54  H    0.033766
    55  H    0.020292
    56  H    0.053347
    57  H    0.042699
    58  H    0.086442
    59  H   -0.015120
    60  H    0.105953
    61  H    0.043936
    62  H    0.024361
    63  H    0.024811
    64  H    0.052825
    65  H   -0.008578
    66  H    0.031120
    67  H    0.046921
    68  H    0.063273
    69  H   -0.008410
    70  H   -0.051926
    71  H    0.048591
    72  H    0.180909
    73  H    0.001017
    74  H    0.041362
    75  H    0.030294
    76  H    0.008414
    77  H    0.102182
    78  H    0.005722
    79  H    0.051653
 Sum of Mulliken charges =   0.00000

 Dipole moment (field-independent basis, Debye):
    X=              3.1154    Y=              2.8301    Z=              3.7402  Tot=              5.6307
 Quadrupole moment (field-independent basis, Debye-Ang):
   XX=           -215.0545   YY=           -253.2135   ZZ=           -263.8272
   XY=            -19.4792   XZ=             30.8105   YZ=              0.6397

 Normal termination of Gaussian 09 at Mon Jul  8 02:28:56 2019.
