 Gaussian 09, Revision D.01,
 Gaussian 09:  ES64L-G09RevD.01 24-Apr-2013

 --------------------------
 # td=(NStates=1) B3LYP/SVP
 --------------------------

 --
 TD
 --
 Symbolic Z-matrix:
 Charge =  0 Multiplicity = 1

                         Standard orientation:
 ---------------------------------------------------------------------
 Center     Atomic      Atomic             Coordinates (Angstroms)
 Number     Number       Type             X           Y           Z
 ---------------------------------------------------------------------
      1          8           0        5.212992   -0.332303   -3.332531
      2          8           0       -2.600736   -3.190073    3.499635
      3          8           0       -3.182124   -1.078195    3.375950
      4          8           0       -1.419002    7.155977    1.720905
      5          8           0       -0.659551    7.008099   -0.424835
      6          8           0       -1.973195   -4.029679    0.016363
      7          7           0        2.306783    0.965573    0.556246
      8          7           0        4.351634   -0.792763   -1.280203
      9          7           0       -1.903807    0.695902   -0.586148
     10          7           0       -2.596861   -1.867426   -0.537007
     11          6           0        4.864996   -1.165492   -0.039669
     12          6           0        4.394346   -0.213303    1.147594
     13          6           0        2.948073   -0.072688    1.262671
     14          6           0        1.975364   -0.737131    2.056882
     15          6           0        0.731412   -0.103729    1.739861
     16          6           0        0.959526    0.850301    0.684432
     17          6           0        6.399762   -1.253737   -0.142933
     18          6           0       -0.540952   -0.305091    2.346210
     19          6           0        6.663094   -0.884267   -1.414547
     20          6           0        0.093863    1.875617    0.205781
     21          6           0       -1.209987    1.909346   -0.368198
     22          6           0        5.348862   -0.662113   -2.188210
     23          6           0       -1.980332    3.021509   -0.833488
     24          6           0        2.310724   -1.760808    3.087599
     25          6           0        7.162888   -1.850321    0.977625
     26          6           0       -3.202036    2.462453   -1.332055
     27          6           0       -0.999015   -1.780685    2.444223
     28          6           0       -3.109241    1.029032   -1.244615
     29          6           0       -1.549264    4.427589   -0.744091
     30          6           0        8.017577   -0.652958   -2.143970
     31          6           0       -1.648308    5.070797    0.602553
     32          6           0       -4.335071    3.187317   -1.912480
     33          6           0       -4.085035   -0.056309   -1.450424
     34          6           0       -2.370592   -1.940378    3.182731
     35          6           0       -3.745842   -1.400206   -1.027595
     36          6           0        9.208941   -0.651982   -1.624822
     37          6           0       -1.137747    6.515102    0.510852
     38          6           0       -4.684871   -2.460980   -1.507182
     39          6           0       -4.111549   -3.566489   -1.171133
     40          6           0       -2.783579   -3.265435   -0.466384
     41          6           0       -6.001369   -2.230970   -2.075004
     42          6           0       -4.506381   -5.052146   -1.122175
     43          6           0       -6.791594   -3.251436   -2.634339
     44          1           0        4.545808   -2.145263    0.160277
     45          1           0        4.904658    0.778967    0.967396
     46          1           0        4.880505   -0.800241    2.087142
     47          1           0        2.741071    1.522034   -0.161917
     48          1           0        3.321480   -0.854620   -1.645321
     49          1           0       -0.572716    0.218165    3.381764
     50          1           0       -1.491534    0.227183    1.754410
     51          1           0        0.540395    2.815445    0.249448
     52          1           0        3.221261   -1.650967    3.559846
     53          1           0        1.614989   -1.749834    3.887315
     54          1           0        2.054654   -2.772325    2.451990
     55          1           0        6.561287   -2.476769    1.629129
     56          1           0        7.497513   -1.066036    1.574714
     57          1           0        7.979169   -2.203596    0.617518
     58          1           0       -1.220419   -2.488990    1.569569
     59          1           0       -0.338428   -2.448922    3.157398
     60          1           0       -1.718650   -0.291077   -0.298332
     61          1           0       -1.991387    5.186101   -1.519688
     62          1           0       -0.383818    4.333322   -1.006779
     63          1           0        8.220648   -0.647086   -3.290435
     64          1           0       -0.898020    4.687681    1.390193
     65          1           0       -2.713668    5.293794    0.987175
     66          1           0       -4.088701    4.294308   -2.044681
     67          1           0       -5.218144    3.143632   -1.181208
     68          1           0       -4.600456    2.647243   -2.759421
     69          1           0       -4.927098    0.363380   -1.984219
     70          1           0        9.260561   -0.605139   -0.456744
     71          1           0       10.079723   -0.714054   -2.261389
     72          1           0       -3.601785   -3.242528    3.754882
     73          1           0       -6.449645   -1.143968   -1.996745
     74          1           0       -4.677468   -5.492919   -2.230307
     75          1           0       -3.680956   -5.744248   -0.907641
     76          1           0       -5.413774   -5.178828   -0.518923
     77          1           0       -1.050179    7.951348    1.892218
     78          1           0       -7.720956   -2.770846   -3.138223
     79          1           0       -6.517216   -4.436424   -2.418738
 ---------------------------------------------------------------------

 SCF Done:  E(RB3LYP) =  -1947.86676692     A.U. after   16 cycles

 Excitation energies and oscillator strengths:

 Excited State   1:      Singlet-A      2.0465 eV  605.85 nm  f=0.5140  <S**2>=0.000
     155 ->156         0.70591
     155 <-156        -0.12739
 This state for optimization and/or second-order correction.
 Total Energy, E(TD-HF/TD-KS) =  -1947.79156118
 Copying the excited state density for this state as the 1-particle RhoCI density.

 The electronic state is 1-A.
 Alpha  occ. eigenvalues --  -19.17221 -19.17080 -19.14470 -19.10592 -19.10236
 Alpha  occ. eigenvalues --  -19.09369 -14.38785 -14.35705 -14.35674 -14.29318
 Alpha  occ. eigenvalues --  -10.32868 -10.29605 -10.27988 -10.26422 -10.24629
 Alpha  occ. eigenvalues --  -10.24569 -10.24142 -10.23617 -10.23479 -10.23179
 Alpha  occ. eigenvalues --  -10.23144 -10.22638 -10.22534 -10.22371 -10.21955
 Alpha  occ. eigenvalues --  -10.21813 -10.21353 -10.21298 -10.21238 -10.21068
 Alpha  occ. eigenvalues --  -10.20502 -10.20424 -10.20345 -10.20069 -10.20050
 Alpha  occ. eigenvalues --  -10.19686 -10.19684 -10.19641 -10.19598 -10.19456
 Alpha  occ. eigenvalues --  -10.19356 -10.18788 -10.18641  -1.10829  -1.08988
 Alpha  occ. eigenvalues --   -1.03500  -1.03190  -1.01707  -0.98804  -0.98630
 Alpha  occ. eigenvalues --   -0.96134  -0.95186  -0.92042  -0.83040  -0.82541
 Alpha  occ. eigenvalues --   -0.81887  -0.81462  -0.80199  -0.79576  -0.78120
 Alpha  occ. eigenvalues --   -0.77431  -0.75524  -0.75010  -0.73672  -0.73161
 Alpha  occ. eigenvalues --   -0.72460  -0.71917  -0.69644  -0.69009  -0.68681
 Alpha  occ. eigenvalues --   -0.66980  -0.65981  -0.63233  -0.61370  -0.59655
 Alpha  occ. eigenvalues --   -0.59336  -0.58364  -0.57938  -0.57667  -0.57016
 Alpha  occ. eigenvalues --   -0.55613  -0.55158  -0.54579  -0.54168  -0.53029
 Alpha  occ. eigenvalues --   -0.52192  -0.51037  -0.50684  -0.50424  -0.50251
 Alpha  occ. eigenvalues --   -0.48625  -0.48494  -0.48348  -0.48026  -0.47267
 Alpha  occ. eigenvalues --   -0.47087  -0.46769  -0.46568  -0.46185  -0.45813
 Alpha  occ. eigenvalues --   -0.45289  -0.44896  -0.44440  -0.44192  -0.44071
 Alpha  occ. eigenvalues --   -0.43840  -0.43626  -0.43193  -0.42896  -0.42546
 Alpha  occ. eigenvalues --   -0.42111  -0.41969  -0.41616  -0.41378  -0.41085
 Alpha  occ. eigenvalues --   -0.40655  -0.40558  -0.40496  -0.40204  -0.40056
 Alpha  occ. eigenvalues --   -0.39534  -0.39410  -0.39135  -0.38737  -0.38369
 Alpha  occ. eigenvalues --   -0.38268  -0.37689  -0.37590  -0.37310  -0.36665
 Alpha  occ. eigenvalues --   -0.36105  -0.35857  -0.35191  -0.35051  -0.34358
 Alpha  occ. eigenvalues --   -0.33794  -0.33471  -0.33206  -0.31704  -0.31283
 Alpha  occ. eigenvalues --   -0.30665  -0.30164  -0.29369  -0.28138  -0.27836
 Alpha  occ. eigenvalues --   -0.26323  -0.25843  -0.25754  -0.25164  -0.24746
 Alpha  occ. eigenvalues --   -0.24492  -0.24226  -0.23220  -0.22361  -0.18853
 Alpha virt. eigenvalues --   -0.11009  -0.06180  -0.04803  -0.01273  -0.00072
 Alpha virt. eigenvalues --    0.00700   0.01904   0.02569   0.02747   0.03427
 Alpha virt. eigenvalues --    0.03862   0.04524   0.04729   0.04852   0.05124

 Mulliken charges:
               1
     1  O   -0.197787
     2  O   -0.181794
     3  O   -0.237895
     4  O   -0.203324
     5  O   -0.150179
     6  O   -0.200055
     7  N   -0.076300
     8  N   -0.192718
     9  N   -0.146452
    10  N   -0.278235
    11  C    0.090277
    12  C    0.108764
    13  C   -0.038104
    14  C   -0.130353
    15  C   -0.015473
    16  C    0.092000
    17  C   -0.213541
    18  C   -0.009506
    19  C   -0.072345
    20  C   -0.099172
    21  C    0.094478
    22  C    0.116503
    23  C    0.011323
    24  C    0.116538
    25  C    0.279261
    26  C   -0.152164
    27  C   -0.078702
    28  C    0.056768
    29  C   -0.006532
    30  C   -0.016106
    31  C   -0.021998
    32  C    0.106286
    33  C   -0.098576
    34  C    0.091386
    35  C    0.140576
    36  C   -0.061720
    37  C    0.108211
    38  C    0.046539
    39  C   -0.197213
    40  C    0.151161
    41  C   -0.080272
    42  C    0.048625
    43  C   -0.075993
    44  H   -0.009788
    45  H    0.004126
    46  H    0.015253
    47  H    0.114271
    48  H    0.170533
    49  H    0.030344
    50  H    0.054281
    51  H   -0.044726
    52  H   -0.004581
    53  H    0.007012
    54  H    0.064789
    55  H    0.022932
    56  H    0.000828
    57  H   -0.035229
    58  H    0.092518
    59  H    0.022760
    60  H    0.164381
    61  H    0.046209
    62  H    0.037762
    63  H    0.031973
    64  H    0.057231
    65  H    0.061950
    66  H    0.025000
    67  H    0.037270
    68  H    0.021874
    69  H   -0.036623
    70  H    0.011128
    71  H    0.026404
    72  H    0.202437
    73  H    0.031127
    74  H    0.028441
    75  H    0.026642
    76  H    0.041975
    77  H    0.140382
    78  H    0.044416
    79  H    0.068514
 Sum of Mulliken charges =   0.00000

 Dipole moment (field-independent basis, Debye):
    X=              1.5507    Y=              3.1937    Z=              3.8945  Tot=              5.2699
 Quadrupole moment (field-independent basis, Debye-Ang):
   XX=           -222.7969   YY=           -242.0502   ZZ=           -265.4873
   XY=            -10.1898   XZ=             31.7374   YZ=              3.7044

 Normal termination of Gaussian 09 at Wed Jul 10 06:18:48 2019.
