 Gaussian 09, Revision D.01,
 Gaussian 09:  ES64L-G09RevD.01 24-Apr-2013

 --------------------------
 # td=(NStates=1) B3LYP/SVP
 --------------------------

 --
 TD
 --
 Symbolic Z-matrix:
 Charge =  0 Multiplicity = 1

                         Standard orientation:
 ---------------------------------------------------------------------
 Center     Atomic      Atomic             Coordinates (Angstroms)
 Number     Number       Type             X           Y           Z
 ---------------------------------------------------------------------
      1          8           0        5.277120   -0.239629   -3.351410
      2          8           0       -2.855818   -2.993773    3.278838
      3          8           0       -3.144181   -0.719155    3.296183
      4          8           0       -1.700346    7.117699    1.610020
      5          8           0       -0.820425    7.114008   -0.465962
      6          8           0       -1.677511   -3.987905   -0.116318
      7          7           0        2.316002    1.004498    0.525187
      8          7           0        4.394915   -0.517211   -1.221978
      9          7           0       -1.978442    0.644376   -0.371164
     10          7           0       -2.656290   -1.881057   -0.464943
     11          6           0        4.821444   -1.091655    0.027292
     12          6           0        4.416777   -0.172884    1.174329
     13          6           0        3.014839    0.085439    1.344010
     14          6           0        1.986943   -0.512488    2.168025
     15          6           0        0.744479    0.039328    1.895304
     16          6           0        1.012363    0.978850    0.762152
     17          6           0        6.307602   -1.282934   -0.195755
     18          6           0       -0.449810   -0.288666    2.594591
     19          6           0        6.679944   -0.878803   -1.408304
     20          6           0        0.085027    1.914563    0.133496
     21          6           0       -1.203637    1.868192   -0.372903
     22          6           0        5.456285   -0.545584   -2.175262
     23          6           0       -1.938251    2.880232   -1.057498
     24          6           0        2.373747   -1.557935    3.232415
     25          6           0        7.324235   -1.749770    0.938339
     26          6           0       -3.159576    2.381688   -1.360238
     27          6           0       -0.942849   -1.711205    2.682982
     28          6           0       -3.100917    0.843259   -1.059532
     29          6           0       -1.628059    4.380561   -1.067594
     30          6           0        7.900278   -0.900130   -2.141421
     31          6           0       -1.848527    5.038494    0.305103
     32          6           0       -4.388736    2.958094   -2.074253
     33          6           0       -4.145536   -0.170029   -1.381747
     34          6           0       -2.456460   -1.758519    3.080887
     35          6           0       -3.747727   -1.483587   -1.030215
     36          6           0        9.135703   -0.659320   -1.597925
     37          6           0       -1.447099    6.453825    0.408745
     38          6           0       -4.588240   -2.675525   -1.462437
     39          6           0       -3.976444   -3.776928   -1.068245
     40          6           0       -2.622914   -3.332733   -0.484996
     41          6           0       -5.922979   -2.501915   -2.129527
     42          6           0       -4.267313   -5.298433   -1.040989
     43          6           0       -6.790550   -3.549409   -2.295970
     44          1           0        4.556112   -2.254583    0.092487
     45          1           0        4.796232    0.756063    1.197224
     46          1           0        4.829997   -0.316221    2.141733
     47          1           0        2.737111    1.423994   -0.371421
     48          1           0        3.430184   -0.642194   -1.610258
     49          1           0       -0.324696    0.104107    3.689304
     50          1           0       -1.283804    0.497670    2.402210
     51          1           0        0.749958    2.909212   -0.076599
     52          1           0        3.386770   -1.550806    3.600743
     53          1           0        1.781678   -1.357626    4.159592
     54          1           0        2.443683   -2.544212    2.603689
     55          1           0        6.908658   -2.671150    1.439810
     56          1           0        7.701989   -0.974311    1.695869
     57          1           0        8.246834   -2.096989    0.506647
     58          1           0       -0.820913   -2.173461    1.680772
     59          1           0       -0.402828   -2.464647    3.353954
     60          1           0       -1.509531   -0.265446   -0.323243
     61          1           0       -2.113532    4.883992   -1.836072
     62          1           0       -0.714233    4.425596   -1.342213
     63          1           0        7.645598   -0.961341   -3.315097
     64          1           0       -1.341218    4.491758    1.182031
     65          1           0       -2.922933    4.923788    0.651417
     66          1           0       -4.036516    4.080852   -2.094605
     67          1           0       -5.339936    2.940712   -1.409151
     68          1           0       -4.742712    2.638307   -3.110539
     69          1           0       -4.991165    0.319206   -2.013775
     70          1           0        9.282916   -0.577231   -0.465239
     71          1           0       10.108014   -0.765032   -2.277080
     72          1           0       -3.897796   -2.990758    3.347994
     73          1           0       -5.997050   -1.513954   -2.540721
     74          1           0       -4.758309   -5.585154   -2.118900
     75          1           0       -3.318045   -5.822304   -0.703676
     76          1           0       -5.194396   -5.441890   -0.107914
     77          1           0       -1.417697    7.980891    1.688376
     78          1           0       -7.701290   -3.327007   -2.999157
     79          1           0       -6.745405   -4.708450   -2.055857
 ---------------------------------------------------------------------

 SCF Done:  E(RB3LYP) =  -1947.84381111     A.U. after   16 cycles

 Excitation energies and oscillator strengths:

 Excited State   1:      Singlet-A      2.2314 eV  555.63 nm  f=0.4849  <S**2>=0.000
     155 ->156         0.70104
 This state for optimization and/or second-order correction.
 Total Energy, E(TD-HF/TD-KS) =  -1947.76180797
 Copying the excited state density for this state as the 1-particle RhoCI density.

 The electronic state is 1-A.
 Alpha  occ. eigenvalues --  -19.18792 -19.17261 -19.12704 -19.11238 -19.11179
 Alpha  occ. eigenvalues --  -19.10836 -14.39361 -14.37076 -14.35887 -14.28300
 Alpha  occ. eigenvalues --  -10.33408 -10.31169 -10.29229 -10.26876 -10.26438
 Alpha  occ. eigenvalues --  -10.25369 -10.24841 -10.23617 -10.23394 -10.23194
 Alpha  occ. eigenvalues --  -10.23108 -10.22781 -10.22664 -10.22323 -10.22231
 Alpha  occ. eigenvalues --  -10.22142 -10.21976 -10.21750 -10.21650 -10.21488
 Alpha  occ. eigenvalues --  -10.21036 -10.20559 -10.20521 -10.20468 -10.20213
 Alpha  occ. eigenvalues --  -10.20092 -10.19972 -10.19506 -10.19249 -10.19197
 Alpha  occ. eigenvalues --  -10.19032 -10.19027 -10.18939  -1.08444  -1.07999
 Alpha  occ. eigenvalues --   -1.02795  -1.02087  -0.98674  -0.98499  -0.97897
 Alpha  occ. eigenvalues --   -0.96985  -0.94559  -0.91767  -0.83912  -0.82943
 Alpha  occ. eigenvalues --   -0.81902  -0.81426  -0.79452  -0.78929  -0.78599
 Alpha  occ. eigenvalues --   -0.76312  -0.75422  -0.74997  -0.73284  -0.71998
 Alpha  occ. eigenvalues --   -0.71718  -0.70947  -0.69935  -0.69076  -0.67611
 Alpha  occ. eigenvalues --   -0.66944  -0.66376  -0.63138  -0.61670  -0.61309
 Alpha  occ. eigenvalues --   -0.59804  -0.59158  -0.58411  -0.57996  -0.57149
 Alpha  occ. eigenvalues --   -0.56597  -0.55671  -0.54490  -0.54036  -0.52906
 Alpha  occ. eigenvalues --   -0.51848  -0.51323  -0.50775  -0.50181  -0.49597
 Alpha  occ. eigenvalues --   -0.49371  -0.48279  -0.47799  -0.47340  -0.47177
 Alpha  occ. eigenvalues --   -0.46910  -0.46894  -0.45967  -0.45558  -0.45090
 Alpha  occ. eigenvalues --   -0.44418  -0.43942  -0.43610  -0.43548  -0.43401
 Alpha  occ. eigenvalues --   -0.43020  -0.42868  -0.42718  -0.42643  -0.42359
 Alpha  occ. eigenvalues --   -0.42115  -0.41793  -0.41579  -0.41406  -0.41084
 Alpha  occ. eigenvalues --   -0.40946  -0.40431  -0.40216  -0.40153  -0.40024
 Alpha  occ. eigenvalues --   -0.39463  -0.39076  -0.38981  -0.38867  -0.38395
 Alpha  occ. eigenvalues --   -0.37883  -0.37268  -0.37024  -0.36724  -0.36432
 Alpha  occ. eigenvalues --   -0.36205  -0.35391  -0.34712  -0.34544  -0.34134
 Alpha  occ. eigenvalues --   -0.33744  -0.33222  -0.32320  -0.31636  -0.31178
 Alpha  occ. eigenvalues --   -0.30651  -0.30285  -0.28728  -0.27821  -0.27469
 Alpha  occ. eigenvalues --   -0.27119  -0.26689  -0.26491  -0.26175  -0.25060
 Alpha  occ. eigenvalues --   -0.24704  -0.23832  -0.23300  -0.21954  -0.18848
 Alpha virt. eigenvalues --   -0.09852  -0.06415  -0.05975  -0.02054  -0.00622
 Alpha virt. eigenvalues --   -0.00386   0.00519   0.01130   0.02397   0.02928
 Alpha virt. eigenvalues --    0.03379   0.03546   0.03994   0.04177   0.04915

 Mulliken charges:
               1
     1  O   -0.221940
     2  O   -0.178369
     3  O   -0.287719
     4  O   -0.192269
     5  O   -0.268745
     6  O   -0.187460
     7  N   -0.075572
     8  N   -0.245611
     9  N   -0.045313
    10  N   -0.286414
    11  C    0.133529
    12  C    0.350933
    13  C   -0.156101
    14  C   -0.139244
    15  C   -0.041185
    16  C   -0.016996
    17  C   -0.204507
    18  C    0.012748
    19  C   -0.035644
    20  C   -0.137279
    21  C    0.098625
    22  C    0.149148
    23  C   -0.123982
    24  C    0.086322
    25  C    0.050725
    26  C   -0.104472
    27  C   -0.007180
    28  C    0.012393
    29  C    0.294173
    30  C   -0.034121
    31  C   -0.020824
    32  C    0.003439
    33  C   -0.145224
    34  C    0.156962
    35  C    0.135335
    36  C   -0.082152
    37  C    0.166243
    38  C   -0.016124
    39  C   -0.205413
    40  C    0.154104
    41  C    0.049166
    42  C   -0.025932
    43  C   -0.084274
    44  H    0.049703
    45  H   -0.060914
    46  H   -0.036708
    47  H    0.149341
    48  H    0.146137
    49  H    0.006558
    50  H    0.031637
    51  H    0.027446
    52  H   -0.014465
    53  H    0.039125
    54  H    0.042391
    55  H    0.025678
    56  H    0.054452
    57  H    0.018063
    58  H    0.060697
    59  H    0.039952
    60  H    0.158267
    61  H   -0.009676
    62  H   -0.065539
    63  H    0.061103
    64  H    0.063392
    65  H    0.048170
    66  H    0.023069
    67  H    0.047143
    68  H    0.062771
    69  H    0.022562
    70  H    0.042306
    71  H    0.055757
    72  H    0.219068
    73  H   -0.010738
    74  H    0.060812
    75  H    0.058999
    76  H    0.049199
    77  H    0.159771
    78  H    0.030139
    79  H    0.060554
 Sum of Mulliken charges =   0.00000

 Dipole moment (field-independent basis, Debye):
    X=              1.8450    Y=              0.9736    Z=              2.6795  Tot=              3.3958
 Quadrupole moment (field-independent basis, Debye-Ang):
   XX=           -216.5858   YY=           -255.1032   ZZ=           -263.2888
   XY=            -10.1207   XZ=             32.5445   YZ=              2.8788

 Normal termination of Gaussian 09 at Wed Jul 10 02:22:59 2019.
