 Gaussian 09, Revision D.01,
 Gaussian 09:  ES64L-G09RevD.01 24-Apr-2013

 --------------------------
 # td=(NStates=1) B3LYP/SVP
 --------------------------

 --
 TD
 --
 Symbolic Z-matrix:
 Charge =  0 Multiplicity = 1

                         Standard orientation:
 ---------------------------------------------------------------------
 Center     Atomic      Atomic             Coordinates (Angstroms)
 Number     Number       Type             X           Y           Z
 ---------------------------------------------------------------------
      1          8           0        5.474919   -0.272445   -3.326912
      2          8           0       -2.854154   -3.313857    3.118520
      3          8           0       -3.208852   -1.033753    3.338199
      4          8           0       -1.176188    7.164551    1.674551
      5          8           0       -0.243169    6.925795   -0.411856
      6          8           0       -2.315459   -3.990556   -0.152816
      7          7           0        2.476951    0.822721    0.617344
      8          7           0        4.458005   -0.705032   -1.358361
      9          7           0       -1.972021    0.780777   -0.307826
     10          7           0       -2.869103   -1.714151   -0.393725
     11          6           0        4.894396   -1.257016   -0.037724
     12          6           0        4.488085   -0.346551    1.199004
     13          6           0        3.040235   -0.118040    1.278196
     14          6           0        2.028879   -0.830058    2.074806
     15          6           0        0.810217   -0.197838    1.849781
     16          6           0        1.058326    0.812000    0.820524
     17          6           0        6.335318   -1.413422   -0.185016
     18          6           0       -0.583634   -0.488579    2.609003
     19          6           0        6.750949   -0.942747   -1.346062
     20          6           0        0.273091    1.788313    0.296194
     21          6           0       -1.018091    1.883374   -0.251251
     22          6           0        5.534415   -0.610181   -2.221521
     23          6           0       -1.768887    2.977587   -0.794175
     24          6           0        2.281001   -1.949476    2.985654
     25          6           0        7.152729   -2.108958    0.888230
     26          6           0       -3.079807    2.522485   -1.060914
     27          6           0       -1.076513   -1.904720    2.354372
     28          6           0       -3.158487    1.068535   -0.917615
     29          6           0       -1.309304    4.380648   -0.767758
     30          6           0        8.020875   -0.832428   -2.172919
     31          6           0       -1.538069    5.009358    0.543372
     32          6           0       -4.162299    3.252225   -1.761839
     33          6           0       -4.129160    0.178023   -1.241173
     34          6           0       -2.480796   -1.953570    2.966712
     35          6           0       -3.979373   -1.165153   -0.987384
     36          6           0        9.256644   -0.891249   -1.614924
     37          6           0       -0.920392    6.427877    0.527624
     38          6           0       -4.937729   -2.231455   -1.465568
     39          6           0       -4.389532   -3.389174   -1.259926
     40          6           0       -3.011914   -3.083836   -0.621449
     41          6           0       -6.299010   -1.918427   -2.094967
     42          6           0       -4.936908   -4.854190   -1.359950
     43          6           0       -7.089769   -2.826615   -2.603935
     44          1           0        4.466971   -2.220034    0.132853
     45          1           0        5.106230    0.712337    1.162289
     46          1           0        4.613330   -0.949995    2.184001
     47          1           0        2.928271    1.251264   -0.117926
     48          1           0        3.515715   -0.570797   -1.540395
     49          1           0       -0.306458   -0.032358    3.511839
     50          1           0       -1.191306    0.252951    2.311633
     51          1           0        0.829008    2.753469   -0.149108
     52          1           0        3.227943   -1.986413    3.183694
     53          1           0        1.864127   -1.931697    3.973191
     54          1           0        2.228915   -2.926133    2.415801
     55          1           0        6.708413   -3.141609    1.156067
     56          1           0        7.154706   -1.515898    1.757508
     57          1           0        8.105522   -2.292796    0.200025
     58          1           0       -0.965778   -2.186340    1.170698
     59          1           0       -0.560560   -2.528872    2.993543
     60          1           0       -1.621870   -0.150389   -0.259645
     61          1           0       -1.991236    4.942758   -1.664754
     62          1           0       -0.282030    4.501885   -0.937519
     63          1           0        7.668609   -0.684997   -3.245675
     64          1           0       -1.194986    4.375071    1.403010
     65          1           0       -2.636525    5.159313    0.533083
     66          1           0       -4.067374    4.373524   -1.868837
     67          1           0       -5.153186    3.268878   -1.137656
     68          1           0       -4.485546    2.855324   -2.792410
     69          1           0       -5.083110    0.459645   -1.967015
     70          1           0        9.498174   -0.803850   -0.577154
     71          1           0       10.157718   -0.804157   -2.245757
     72          1           0       -3.663843   -3.110747    3.469416
     73          1           0       -6.649392   -0.845046   -1.964572
     74          1           0       -4.992978   -5.056830   -2.445182
     75          1           0       -4.111930   -5.581919   -0.886983
     76          1           0       -5.813360   -5.233918   -0.836823
     77          1           0       -0.896334    8.035687    1.523098
     78          1           0       -8.157953   -2.709146   -3.224620
     79          1           0       -6.654407   -3.726705   -2.803636
 ---------------------------------------------------------------------

 SCF Done:  E(RB3LYP) =  -1947.83810952     A.U. after   24 cycles

 Excitation energies and oscillator strengths:

 Excited State   1:      Singlet-A      2.2072 eV  561.72 nm  f=0.5871  <S**2>=0.000
     154 ->156         0.14694
     155 ->156         0.69456
     155 <-156        -0.12506
 This state for optimization and/or second-order correction.
 Total Energy, E(TD-HF/TD-KS) =  -1947.75699490
 Copying the excited state density for this state as the 1-particle RhoCI density.

 The electronic state is 1-A.
 Alpha  occ. eigenvalues --  -19.18782 -19.15773 -19.13999 -19.12792 -19.11637
 Alpha  occ. eigenvalues --  -19.09230 -14.40320 -14.35689 -14.35670 -14.28664
 Alpha  occ. eigenvalues --  -10.33842 -10.31428 -10.29099 -10.25626 -10.25604
 Alpha  occ. eigenvalues --  -10.25080 -10.24890 -10.24374 -10.24294 -10.24219
 Alpha  occ. eigenvalues --  -10.23460 -10.22734 -10.22240 -10.22108 -10.21924
 Alpha  occ. eigenvalues --  -10.21718 -10.21341 -10.21139 -10.21004 -10.20918
 Alpha  occ. eigenvalues --  -10.20690 -10.20536 -10.20503 -10.20365 -10.20049
 Alpha  occ. eigenvalues --  -10.20004 -10.19234 -10.19163 -10.18975 -10.18967
 Alpha  occ. eigenvalues --  -10.18955 -10.18732 -10.18606  -1.09228  -1.07699
 Alpha  occ. eigenvalues --   -1.06912  -1.02239  -0.99810  -0.99421  -0.99234
 Alpha  occ. eigenvalues --   -0.96805  -0.95093  -0.90566  -0.83805  -0.83266
 Alpha  occ. eigenvalues --   -0.83154  -0.82403  -0.79951  -0.79566  -0.78185
 Alpha  occ. eigenvalues --   -0.78071  -0.77496  -0.75880  -0.74127  -0.73702
 Alpha  occ. eigenvalues --   -0.72441  -0.72054  -0.69877  -0.68499  -0.68152
 Alpha  occ. eigenvalues --   -0.67852  -0.66891  -0.63929  -0.62261  -0.61032
 Alpha  occ. eigenvalues --   -0.60658  -0.59947  -0.58764  -0.57553  -0.57233
 Alpha  occ. eigenvalues --   -0.56156  -0.55899  -0.54868  -0.53977  -0.53260
 Alpha  occ. eigenvalues --   -0.52619  -0.51544  -0.51104  -0.50453  -0.50348
 Alpha  occ. eigenvalues --   -0.49744  -0.49464  -0.48794  -0.48334  -0.48030
 Alpha  occ. eigenvalues --   -0.47504  -0.47287  -0.46598  -0.46260  -0.45654
 Alpha  occ. eigenvalues --   -0.45213  -0.44831  -0.44516  -0.44185  -0.43894
 Alpha  occ. eigenvalues --   -0.43479  -0.43311  -0.43189  -0.42828  -0.42550
 Alpha  occ. eigenvalues --   -0.42312  -0.42137  -0.41738  -0.41620  -0.41279
 Alpha  occ. eigenvalues --   -0.41052  -0.40839  -0.40393  -0.40125  -0.39981
 Alpha  occ. eigenvalues --   -0.39620  -0.39484  -0.39390  -0.39143  -0.38757
 Alpha  occ. eigenvalues --   -0.38239  -0.38063  -0.37609  -0.36938  -0.36645
 Alpha  occ. eigenvalues --   -0.35597  -0.35335  -0.34880  -0.34721  -0.34597
 Alpha  occ. eigenvalues --   -0.34009  -0.33627  -0.32738  -0.32542  -0.32479
 Alpha  occ. eigenvalues --   -0.31642  -0.31025  -0.29265  -0.29081  -0.27950
 Alpha  occ. eigenvalues --   -0.27855  -0.27302  -0.26985  -0.26659  -0.25222
 Alpha  occ. eigenvalues --   -0.25063  -0.24243  -0.23330  -0.22373  -0.18853
 Alpha virt. eigenvalues --   -0.10556  -0.06053  -0.05577  -0.02381  -0.00927
 Alpha virt. eigenvalues --   -0.00155   0.00313   0.00873   0.02316   0.02659
 Alpha virt. eigenvalues --    0.03456   0.03916   0.04919   0.05280   0.05549

 Mulliken charges:
               1
     1  O   -0.151244
     2  O   -0.169793
     3  O   -0.243938
     4  O   -0.176012
     5  O   -0.263040
     6  O   -0.232992
     7  N    0.038868
     8  N   -0.210929
     9  N   -0.099556
    10  N   -0.300857
    11  C    0.171690
    12  C    0.074158
    13  C   -0.127032
    14  C   -0.181037
    15  C   -0.152739
    16  C    0.060411
    17  C   -0.215478
    18  C    0.228081
    19  C   -0.112590
    20  C   -0.103884
    21  C    0.045796
    22  C    0.137097
    23  C   -0.057746
    24  C    0.244135
    25  C    0.060705
    26  C   -0.105882
    27  C    0.055599
    28  C    0.159334
    29  C    0.045666
    30  C    0.017204
    31  C    0.017277
    32  C    0.011190
    33  C   -0.175168
    34  C    0.164592
    35  C    0.079451
    36  C   -0.029368
    37  C    0.167346
    38  C    0.036242
    39  C   -0.205034
    40  C    0.154286
    41  C   -0.004163
    42  C    0.028654
    43  C   -0.022267
    44  H   -0.001777
    45  H    0.042236
    46  H    0.029931
    47  H    0.089242
    48  H    0.096845
    49  H   -0.011876
    50  H   -0.052456
    51  H    0.014498
    52  H   -0.103621
    53  H    0.023059
    54  H    0.029200
    55  H    0.034046
    56  H    0.030990
    57  H    0.059832
    58  H    0.131223
    59  H    0.002445
    60  H    0.124956
    61  H    0.047499
    62  H   -0.003103
    63  H    0.050041
    64  H    0.061836
    65  H    0.041933
    66  H    0.010038
    67  H    0.024645
    68  H    0.048416
    69  H    0.031491
    70  H    0.028908
    71  H    0.030668
    72  H    0.122926
    73  H    0.005107
    74  H    0.036843
    75  H    0.039239
    76  H    0.037349
    77  H    0.162139
    78  H    0.047849
    79  H   -0.019629
 Sum of Mulliken charges =   0.00000

 Dipole moment (field-independent basis, Debye):
    X=              3.7955    Y=              2.8964    Z=              3.1070  Tot=              5.6964
 Quadrupole moment (field-independent basis, Debye-Ang):
   XX=           -227.7222   YY=           -254.8556   ZZ=           -261.8768
   XY=            -17.1771   XZ=             33.3581   YZ=              3.6306

 Normal termination of Gaussian 09 at Wed Jul 10 12:38:25 2019.
