 Gaussian 09, Revision D.01,
 Gaussian 09:  ES64L-G09RevD.01 24-Apr-2013

 --------------------------
 # td=(NStates=1) B3LYP/SVP
 --------------------------

 --
 TD
 --
 Symbolic Z-matrix:
 Charge =  0 Multiplicity = 1

                         Standard orientation:
 ---------------------------------------------------------------------
 Center     Atomic      Atomic             Coordinates (Angstroms)
 Number     Number       Type             X           Y           Z
 ---------------------------------------------------------------------
      1          8           0        5.288246   -0.416928   -3.340597
      2          8           0       -2.958622   -3.137452    3.051408
      3          8           0       -3.254147   -0.933118    3.010481
      4          8           0       -1.798034    7.285599    1.549992
      5          8           0       -0.643988    7.219917   -0.350725
      6          8           0       -2.048696   -3.994062   -0.068871
      7          7           0        2.456902    0.865214    0.583296
      8          7           0        4.517566   -0.421171   -1.174367
      9          7           0       -1.794744    0.599192   -0.429750
     10          7           0       -2.716295   -1.831403   -0.556673
     11          6           0        4.972478   -1.236969    0.017412
     12          6           0        4.467818   -0.446620    1.257909
     13          6           0        3.002717   -0.171822    1.364590
     14          6           0        1.992848   -0.809608    2.113939
     15          6           0        0.758133   -0.168117    1.660090
     16          6           0        1.040907    0.776874    0.695234
     17          6           0        6.494567   -1.248410   -0.140607
     18          6           0       -0.423154   -0.459323    2.423386
     19          6           0        6.824363   -0.810682   -1.398122
     20          6           0        0.266380    1.873482    0.153650
     21          6           0       -1.095721    1.767545   -0.231578
     22          6           0        5.494290   -0.643880   -2.173942
     23          6           0       -1.874851    2.908866   -0.715874
     24          6           0        2.305980   -1.823823    2.977565
     25          6           0        7.235235   -1.797017    1.032075
     26          6           0       -3.073410    2.426614   -1.091034
     27          6           0       -1.104327   -1.808025    2.419609
     28          6           0       -3.010753    0.869430   -0.993258
     29          6           0       -1.334688    4.284444   -0.767872
     30          6           0        8.070147   -0.738191   -2.117503
     31          6           0       -1.688873    5.074795    0.560106
     32          6           0       -4.135177    3.311481   -1.844572
     33          6           0       -4.022551   -0.033135   -1.274610
     34          6           0       -2.513917   -1.963398    2.906230
     35          6           0       -3.870480   -1.400983   -1.070696
     36          6           0        9.312156   -0.727787   -1.590535
     37          6           0       -1.282100    6.590925    0.426626
     38          6           0       -4.847691   -2.389308   -1.442296
     39          6           0       -4.239863   -3.596628   -1.227103
     40          6           0       -2.927814   -3.270870   -0.526645
     41          6           0       -6.155526   -2.144144   -1.909039
     42          6           0       -4.794536   -4.984795   -1.076235
     43          6           0       -6.963191   -3.047150   -2.561890
     44          1           0        4.423066   -2.165447    0.015620
     45          1           0        5.020233    0.538597    1.240222
     46          1           0        4.955107   -0.862987    2.231253
     47          1           0        2.958938    1.628156    0.027291
     48          1           0        3.542210   -0.496265   -1.527353
     49          1           0       -0.398924    0.023012    3.485295
     50          1           0       -1.228299    0.161273    2.034636
     51          1           0        0.901213    2.875636   -0.019084
     52          1           0        3.268798   -1.717477    3.465334
     53          1           0        1.389480   -1.836660    3.894748
     54          1           0        2.098674   -2.821097    2.978096
     55          1           0        6.660608   -2.337234    1.926238
     56          1           0        7.606536   -0.814770    1.442607
     57          1           0        7.968889   -2.550130    0.760839
     58          1           0       -1.054488   -2.059771    1.285102
     59          1           0       -0.552047   -2.722358    2.845937
     60          1           0       -1.574240   -0.476252   -0.308180
     61          1           0       -1.708477    4.774923   -1.782633
     62          1           0       -0.274593    4.490761   -0.989111
     63          1           0        8.132087   -0.675678   -3.138757
     64          1           0       -1.189874    4.471836    1.374696
     65          1           0       -2.766028    4.997251    0.913941
     66          1           0       -3.705685    4.345774   -1.836510
     67          1           0       -4.997705    3.238428   -1.322686
     68          1           0       -4.174545    2.852275   -2.825724
     69          1           0       -4.769551    0.471927   -2.000829
     70          1           0        9.530785   -1.094858   -0.533179
     71          1           0       10.106223   -0.647290   -2.286059
     72          1           0       -4.016541   -3.179271    3.169217
     73          1           0       -6.372301   -1.042236   -1.926793
     74          1           0       -4.955871   -5.736736   -1.917769
     75          1           0       -4.054626   -5.570015   -0.562675
     76          1           0       -5.721938   -5.141870   -0.824819
     77          1           0       -1.355669    8.105617    1.432039
     78          1           0       -7.893398   -2.553008   -2.963711
     79          1           0       -6.996518   -4.131175   -2.658328
 ---------------------------------------------------------------------

 SCF Done:  E(RB3LYP) =  -1947.84153357     A.U. after   16 cycles

 Excitation energies and oscillator strengths:

 Excited State   1:      Singlet-A      2.0107 eV  616.62 nm  f=0.4327  <S**2>=0.000
     155 ->156         0.69908
     155 <-156        -0.10527
 This state for optimization and/or second-order correction.
 Total Energy, E(TD-HF/TD-KS) =  -1947.76764191
 Copying the excited state density for this state as the 1-particle RhoCI density.

 The electronic state is 1-A.
 Alpha  occ. eigenvalues --  -19.18908 -19.16898 -19.15105 -19.10810 -19.10802
 Alpha  occ. eigenvalues --  -19.08952 -14.38152 -14.36964 -14.34517 -14.29448
 Alpha  occ. eigenvalues --  -10.33576 -10.30235 -10.28649 -10.27042 -10.25005
 Alpha  occ. eigenvalues --  -10.24741 -10.24420 -10.23361 -10.23207 -10.23034
 Alpha  occ. eigenvalues --  -10.23025 -10.22904 -10.22774 -10.22460 -10.22277
 Alpha  occ. eigenvalues --  -10.21872 -10.21343 -10.21146 -10.21126 -10.20868
 Alpha  occ. eigenvalues --  -10.20647 -10.20585 -10.19906 -10.19822 -10.19642
 Alpha  occ. eigenvalues --  -10.19563 -10.19310 -10.19289 -10.19184 -10.19067
 Alpha  occ. eigenvalues --  -10.18765 -10.18388 -10.18231  -1.10497  -1.09965
 Alpha  occ. eigenvalues --   -1.03105  -1.01232  -1.01175  -0.97770  -0.96366
 Alpha  occ. eigenvalues --   -0.95402  -0.92559  -0.92202  -0.82906  -0.82250
 Alpha  occ. eigenvalues --   -0.81895  -0.81321  -0.80735  -0.78902  -0.77788
 Alpha  occ. eigenvalues --   -0.77139  -0.76264  -0.75671  -0.74404  -0.72629
 Alpha  occ. eigenvalues --   -0.71598  -0.71477  -0.71018  -0.68528  -0.67716
 Alpha  occ. eigenvalues --   -0.67194  -0.65829  -0.63628  -0.61200  -0.60197
 Alpha  occ. eigenvalues --   -0.60053  -0.58812  -0.58233  -0.57603  -0.56920
 Alpha  occ. eigenvalues --   -0.56378  -0.55902  -0.54534  -0.53605  -0.53241
 Alpha  occ. eigenvalues --   -0.53023  -0.51225  -0.50560  -0.50020  -0.49500
 Alpha  occ. eigenvalues --   -0.49063  -0.48475  -0.48225  -0.47914  -0.47657
 Alpha  occ. eigenvalues --   -0.47112  -0.46509  -0.46157  -0.45961  -0.45785
 Alpha  occ. eigenvalues --   -0.45442  -0.45274  -0.45033  -0.44397  -0.44242
 Alpha  occ. eigenvalues --   -0.43654  -0.43579  -0.43266  -0.42852  -0.42782
 Alpha  occ. eigenvalues --   -0.42554  -0.42246  -0.42160  -0.41895  -0.41635
 Alpha  occ. eigenvalues --   -0.41103  -0.40944  -0.40475  -0.39811  -0.39717
 Alpha  occ. eigenvalues --   -0.39409  -0.39102  -0.38783  -0.38278  -0.38161
 Alpha  occ. eigenvalues --   -0.37660  -0.37221  -0.36865  -0.36573  -0.36493
 Alpha  occ. eigenvalues --   -0.35927  -0.35125  -0.35070  -0.34943  -0.34578
 Alpha  occ. eigenvalues --   -0.33784  -0.33124  -0.32830  -0.32080  -0.31438
 Alpha  occ. eigenvalues --   -0.30558  -0.30061  -0.29008  -0.28731  -0.28346
 Alpha  occ. eigenvalues --   -0.27171  -0.26382  -0.25589  -0.24822  -0.24540
 Alpha  occ. eigenvalues --   -0.24184  -0.23900  -0.23121  -0.22343  -0.18774
 Alpha virt. eigenvalues --   -0.10838  -0.06705  -0.06288  -0.01614  -0.01302
 Alpha virt. eigenvalues --    0.00456   0.00606   0.01197   0.02790   0.02965
 Alpha virt. eigenvalues --    0.03108   0.03665   0.04487   0.05063   0.05237

 Mulliken charges:
               1
     1  O   -0.198325
     2  O   -0.141330
     3  O   -0.316785
     4  O   -0.214076
     5  O   -0.185861
     6  O   -0.203447
     7  N   -0.165883
     8  N   -0.247969
     9  N   -0.099633
    10  N   -0.324477
    11  C    0.117051
    12  C    0.105824
    13  C   -0.045067
    14  C    0.001094
    15  C   -0.097781
    16  C    0.102960
    17  C   -0.148857
    18  C    0.091576
    19  C    0.007426
    20  C   -0.135476
    21  C    0.104480
    22  C    0.143108
    23  C   -0.029300
    24  C    0.023672
    25  C    0.033504
    26  C   -0.185303
    27  C   -0.039182
    28  C    0.042757
    29  C    0.010314
    30  C   -0.015442
    31  C   -0.033438
    32  C    0.144019
    33  C   -0.145458
    34  C    0.126187
    35  C    0.155663
    36  C   -0.032325
    37  C    0.171533
    38  C    0.043873
    39  C   -0.153731
    40  C    0.157624
    41  C   -0.021895
    42  C    0.124568
    43  C   -0.032890
    44  H    0.020622
    45  H   -0.012098
    46  H    0.007215
    47  H    0.152368
    48  H    0.132894
    49  H    0.021825
    50  H   -0.015515
    51  H    0.032775
    52  H    0.008433
    53  H    0.000578
    54  H    0.001448
    55  H    0.048342
    56  H    0.057297
    57  H    0.047402
    58  H    0.081134
    59  H    0.011868
    60  H    0.203122
    61  H    0.034976
    62  H    0.020256
    63  H   -0.023440
    64  H    0.060077
    65  H    0.056915
    66  H    0.024464
    67  H    0.004165
    68  H    0.037073
    69  H    0.007611
    70  H    0.022763
    71  H    0.016844
    72  H    0.238478
    73  H    0.007038
    74  H    0.002460
    75  H    0.019734
    76  H   -0.033952
    77  H    0.150068
    78  H    0.030622
    79  H    0.030836
 Sum of Mulliken charges =   0.00000

 Dipole moment (field-independent basis, Debye):
    X=              0.6493    Y=              0.1291    Z=              2.0914  Tot=              2.1936
 Quadrupole moment (field-independent basis, Debye-Ang):
   XX=           -211.7965   YY=           -246.3570   ZZ=           -265.7621
   XY=              0.1873   XZ=             32.8514   YZ=             -3.4692

 Normal termination of Gaussian 09 at Wed Jul 10 05:10:36 2019.
