 Gaussian 09, Revision D.01,
 Gaussian 09:  ES64L-G09RevD.01 24-Apr-2013

 --------------------------
 # td=(NStates=1) B3LYP/SVP
 --------------------------

 --
 TD
 --
 Symbolic Z-matrix:
 Charge =  0 Multiplicity = 1

                         Standard orientation:
 ---------------------------------------------------------------------
 Center     Atomic      Atomic             Coordinates (Angstroms)
 Number     Number       Type             X           Y           Z
 ---------------------------------------------------------------------
      1          8           0        5.298675   -0.067422   -3.289346
      2          8           0       -2.940444   -2.930107    3.419565
      3          8           0       -3.202005   -0.706662    3.333065
      4          8           0       -1.159584    7.189152    1.538318
      5          8           0       -0.134755    6.934765   -0.543823
      6          8           0       -2.180629   -4.083415   -0.034519
      7          7           0        2.431362    0.772660    0.621934
      8          7           0        4.287104   -0.556478   -1.299669
      9          7           0       -1.840145    0.644963   -0.391315
     10          7           0       -2.759230   -1.894428   -0.546388
     11          6           0        4.728392   -1.307763   -0.074445
     12          6           0        4.413979   -0.525159    1.313803
     13          6           0        3.031868   -0.169625    1.422512
     14          6           0        2.024456   -0.644114    2.240865
     15          6           0        0.728192   -0.018614    1.754873
     16          6           0        1.078408    0.877571    0.820931
     17          6           0        6.219599   -1.571484   -0.232241
     18          6           0       -0.532083   -0.182293    2.520868
     19          6           0        6.624608   -1.020393   -1.477116
     20          6           0        0.202123    1.905035    0.150063
     21          6           0       -1.096945    1.775545   -0.274400
     22          6           0        5.363593   -0.543129   -2.139781
     23          6           0       -1.779790    2.926961   -0.755081
     24          6           0        2.272880   -1.781181    3.309693
     25          6           0        7.061665   -2.157351    0.834314
     26          6           0       -3.082606    2.506651   -1.213345
     27          6           0       -1.135913   -1.587019    2.520151
     28          6           0       -3.083919    1.044554   -1.058676
     29          6           0       -1.400745    4.335714   -0.854507
     30          6           0        7.911576   -0.965430   -2.275766
     31          6           0       -1.422846    5.098067    0.492257
     32          6           0       -4.091248    3.246404   -1.814503
     33          6           0       -4.089851    0.073633   -1.340763
     34          6           0       -2.499415   -1.761002    3.117103
     35          6           0       -3.883212   -1.328153   -1.010441
     36          6           0        9.135773   -1.205949   -1.775365
     37          6           0       -0.847883    6.570570    0.355981
     38          6           0       -4.896066   -2.360891   -1.523518
     39          6           0       -4.283189   -3.607578   -1.046705
     40          6           0       -2.950530   -3.282457   -0.449666
     41          6           0       -6.098116   -2.057592   -2.285760
     42          6           0       -4.775130   -4.974673   -1.134455
     43          6           0       -6.995335   -3.027847   -2.902013
     44          1           0        4.324838   -2.284696   -0.129862
     45          1           0        5.194493    0.218675    1.270566
     46          1           0        4.812463   -1.036239    2.063387
     47          1           0        3.104540    1.340042    0.042189
     48          1           0        3.490717   -1.076955   -1.707343
     49          1           0       -0.310120   -0.210729    3.665824
     50          1           0       -1.145742    0.772137    2.240947
     51          1           0        0.780240    2.773370   -0.181055
     52          1           0        3.355413   -1.581202    3.722389
     53          1           0        1.400367   -1.793464    4.120236
     54          1           0        2.335104   -2.835954    2.723177
     55          1           0        6.476099   -2.687468    1.560460
     56          1           0        7.358942   -1.250951    1.507496
     57          1           0        7.992304   -2.671607    0.413329
     58          1           0       -1.075237   -2.095472    1.527360
     59          1           0       -0.231751   -2.257612    2.884928
     60          1           0       -1.639272   -0.371805    0.027176
     61          1           0       -1.886111    4.892380   -1.616664
     62          1           0       -0.360392    4.383237   -1.312942
     63          1           0        7.751120   -0.839244   -3.369690
     64          1           0       -0.780667    4.522941    1.254885
     65          1           0       -2.556365    5.178111    1.029236
     66          1           0       -3.932989    4.371433   -1.970545
     67          1           0       -4.978789    3.131098   -1.169608
     68          1           0       -4.466281    2.750008   -2.892947
     69          1           0       -4.854419    0.525107   -1.950213
     70          1           0        9.410584   -1.383960   -0.764970
     71          1           0       10.004532   -1.231966   -2.196057
     72          1           0       -3.918859   -2.600281    3.672861
     73          1           0       -6.498822   -1.109349   -2.539702
     74          1           0       -4.626027   -5.493789   -2.070392
     75          1           0       -4.037118   -5.369324   -0.136649
     76          1           0       -5.946916   -4.842211   -0.804177
     77          1           0       -0.805335    8.183879    1.519328
     78          1           0       -8.091214   -2.801951   -3.221057
     79          1           0       -7.046778   -4.359733   -2.579106
 ---------------------------------------------------------------------

 SCF Done:  E(RB3LYP) =  -1947.77926388     A.U. after   17 cycles

 Excitation energies and oscillator strengths:

 Excited State   1:      Singlet-A      1.9784 eV  626.69 nm  f=0.3230  <S**2>=0.000
     154 ->156         0.36487
     155 ->156         0.60014
 This state for optimization and/or second-order correction.
 Total Energy, E(TD-HF/TD-KS) =  -1947.70655928
 Copying the excited state density for this state as the 1-particle RhoCI density.

 The electronic state is 1-A.
 Alpha  occ. eigenvalues --  -19.20003 -19.19472 -19.14646 -19.11333 -19.10426
 Alpha  occ. eigenvalues --  -19.09776 -14.37448 -14.36541 -14.35933 -14.29384
 Alpha  occ. eigenvalues --  -10.33557 -10.31365 -10.28334 -10.26634 -10.25423
 Alpha  occ. eigenvalues --  -10.25247 -10.24429 -10.24106 -10.23682 -10.23159
 Alpha  occ. eigenvalues --  -10.22856 -10.22728 -10.22660 -10.22511 -10.22125
 Alpha  occ. eigenvalues --  -10.21990 -10.21951 -10.21631 -10.21610 -10.21417
 Alpha  occ. eigenvalues --  -10.21396 -10.21311 -10.21156 -10.21143 -10.20851
 Alpha  occ. eigenvalues --  -10.20314 -10.20235 -10.20114 -10.20027 -10.19810
 Alpha  occ. eigenvalues --  -10.19094 -10.18663 -10.18662  -1.10620  -1.09176
 Alpha  occ. eigenvalues --   -1.03846  -1.01983  -1.01666  -0.98060  -0.96222
 Alpha  occ. eigenvalues --   -0.96070  -0.93643  -0.91276  -0.82926  -0.82675
 Alpha  occ. eigenvalues --   -0.81717  -0.80233  -0.80032  -0.78691  -0.77410
 Alpha  occ. eigenvalues --   -0.76726  -0.75635  -0.75295  -0.73848  -0.72530
 Alpha  occ. eigenvalues --   -0.72207  -0.70696  -0.68202  -0.67865  -0.67526
 Alpha  occ. eigenvalues --   -0.66388  -0.66077  -0.63609  -0.62185  -0.59977
 Alpha  occ. eigenvalues --   -0.59335  -0.58579  -0.57853  -0.56982  -0.56157
 Alpha  occ. eigenvalues --   -0.55237  -0.54967  -0.54665  -0.53543  -0.53416
 Alpha  occ. eigenvalues --   -0.52632  -0.51956  -0.50621  -0.49757  -0.49723
 Alpha  occ. eigenvalues --   -0.49218  -0.48849  -0.48526  -0.48194  -0.47583
 Alpha  occ. eigenvalues --   -0.47240  -0.47060  -0.46950  -0.46446  -0.45825
 Alpha  occ. eigenvalues --   -0.44995  -0.44890  -0.44520  -0.44436  -0.43950
 Alpha  occ. eigenvalues --   -0.43660  -0.43340  -0.42959  -0.42326  -0.42273
 Alpha  occ. eigenvalues --   -0.41939  -0.41764  -0.41473  -0.41192  -0.40979
 Alpha  occ. eigenvalues --   -0.40572  -0.40352  -0.39952  -0.39782  -0.39411
 Alpha  occ. eigenvalues --   -0.39302  -0.39126  -0.38968  -0.38831  -0.38522
 Alpha  occ. eigenvalues --   -0.38384  -0.37729  -0.37437  -0.36769  -0.36387
 Alpha  occ. eigenvalues --   -0.36105  -0.35112  -0.34674  -0.34266  -0.33964
 Alpha  occ. eigenvalues --   -0.33901  -0.33542  -0.31604  -0.31502  -0.31109
 Alpha  occ. eigenvalues --   -0.30107  -0.29487  -0.29409  -0.28149  -0.27999
 Alpha  occ. eigenvalues --   -0.27876  -0.26209  -0.25147  -0.24987  -0.24741
 Alpha  occ. eigenvalues --   -0.24322  -0.23838  -0.22918  -0.21069  -0.19262
 Alpha virt. eigenvalues --   -0.11288  -0.07411  -0.06520  -0.02459  -0.01178
 Alpha virt. eigenvalues --   -0.00336   0.00292   0.01299   0.01754   0.02380
 Alpha virt. eigenvalues --    0.03041   0.03484   0.03947   0.04287   0.04576

 Mulliken charges:
               1
     1  O   -0.248693
     2  O   -0.144447
     3  O   -0.331359
     4  O   -0.236330
     5  O   -0.202536
     6  O   -0.166010
     7  N   -0.071174
     8  N   -0.141513
     9  N   -0.166394
    10  N   -0.287010
    11  C    0.042173
    12  C    0.271126
    13  C   -0.034742
    14  C   -0.147776
    15  C   -0.115927
    16  C    0.055837
    17  C   -0.219282
    18  C    0.040014
    19  C   -0.047687
    20  C   -0.114372
    21  C    0.169673
    22  C    0.096915
    23  C   -0.079178
    24  C   -0.023037
    25  C    0.082378
    26  C   -0.055182
    27  C   -0.061203
    28  C    0.086718
    29  C    0.111663
    30  C    0.026302
    31  C   -0.102198
    32  C   -0.000518
    33  C   -0.087595
    34  C    0.184730
    35  C    0.132154
    36  C    0.032889
    37  C    0.177367
    38  C    0.066353
    39  C   -0.195227
    40  C    0.161489
    41  C   -0.024819
    42  C   -0.035851
    43  C   -0.151893
    44  H    0.012143
    45  H   -0.018002
    46  H   -0.084880
    47  H    0.135925
    48  H    0.149477
    49  H    0.019987
    50  H    0.048872
    51  H   -0.004646
    52  H    0.035191
    53  H    0.057324
    54  H    0.051441
    55  H    0.012916
    56  H    0.046140
    57  H    0.068048
    58  H    0.054592
    59  H    0.023827
    60  H    0.215709
    61  H   -0.007476
    62  H    0.022699
    63  H    0.033315
    64  H    0.064200
    65  H    0.062905
    66  H    0.035557
    67  H    0.034195
    68  H    0.054671
    69  H   -0.035128
    70  H   -0.009946
    71  H   -0.033483
    72  H    0.215460
    73  H   -0.000932
    74  H    0.057048
    75  H    0.067005
    76  H    0.056371
    77  H    0.217651
    78  H    0.051867
    79  H    0.044131
 Sum of Mulliken charges =   0.00000

 Dipole moment (field-independent basis, Debye):
    X=              1.9533    Y=              2.6766    Z=              3.2973  Tot=              4.6745
 Quadrupole moment (field-independent basis, Debye-Ang):
   XX=           -213.8772   YY=           -239.0160   ZZ=           -269.4495
   XY=            -24.2493   XZ=             32.1387   YZ=              2.7114

 Normal termination of Gaussian 09 at Wed Jul 10 09:28:14 2019.
