 Gaussian 09, Revision D.01,
 Gaussian 09:  ES64L-G09RevD.01 24-Apr-2013

 --------------------------
 # td=(NStates=1) B3LYP/SVP
 --------------------------

 --
 TD
 --
 Symbolic Z-matrix:
 Charge =  0 Multiplicity = 1

                         Standard orientation:
 ---------------------------------------------------------------------
 Center     Atomic      Atomic             Coordinates (Angstroms)
 Number     Number       Type             X           Y           Z
 ---------------------------------------------------------------------
      1          8           0        5.339970   -0.087254   -3.358325
      2          8           0       -2.796316   -3.203387    3.143307
      3          8           0       -3.172518   -0.987171    3.180675
      4          8           0       -1.595495    7.215825    1.571105
      5          8           0       -0.457536    6.981462   -0.391799
      6          8           0       -2.173560   -4.124136   -0.193332
      7          7           0        2.452615    0.883747    0.615207
      8          7           0        4.512585   -0.647603   -1.274625
      9          7           0       -1.832898    0.644967   -0.406601
     10          7           0       -2.758232   -1.887614   -0.559563
     11          6           0        4.872062   -1.263441   -0.065214
     12          6           0        4.492081   -0.420175    1.158816
     13          6           0        3.053995   -0.178307    1.351780
     14          6           0        2.086643   -0.703549    2.071584
     15          6           0        0.837592   -0.112472    1.776081
     16          6           0        1.059584    0.852544    0.874959
     17          6           0        6.420222   -1.382965   -0.261364
     18          6           0       -0.440870   -0.408991    2.526892
     19          6           0        6.753944   -0.909517   -1.451144
     20          6           0        0.232123    1.815720    0.179349
     21          6           0       -1.035390    1.735725   -0.287778
     22          6           0        5.514268   -0.428358   -2.224649
     23          6           0       -1.788808    2.940608   -0.922724
     24          6           0        2.304144   -1.669841    3.079054
     25          6           0        7.285904   -1.971402    0.814242
     26          6           0       -3.030340    2.422159   -1.188016
     27          6           0       -1.050518   -1.762584    2.441469
     28          6           0       -3.063685    1.010905   -0.942821
     29          6           0       -1.443174    4.428806   -0.884901
     30          6           0        8.107093   -0.853080   -1.997910
     31          6           0       -1.720642    5.119238    0.431057
     32          6           0       -4.216148    3.161404   -1.754261
     33          6           0       -4.106072    0.119157   -1.118575
     34          6           0       -2.484472   -1.843597    2.961951
     35          6           0       -3.942162   -1.357181   -0.961321
     36          6           0        9.295351   -0.832026   -1.454908
     37          6           0       -1.177980    6.581020    0.470486
     38          6           0       -4.925906   -2.392950   -1.352128
     39          6           0       -4.345954   -3.574808   -1.035877
     40          6           0       -2.972988   -3.304029   -0.554537
     41          6           0       -6.334880   -2.105235   -1.916359
     42          6           0       -4.822053   -5.007164   -1.264648
     43          6           0       -6.950640   -3.013522   -2.724004
     44          1           0        4.533505   -2.289129    0.228712
     45          1           0        5.050014    0.577784    0.977028
     46          1           0        4.766328   -0.992434    2.111214
     47          1           0        2.956519    1.490615    0.019118
     48          1           0        3.628325   -0.494737   -1.795253
     49          1           0       -0.111334   -0.306240    3.737524
     50          1           0       -1.179640    0.397535    2.393992
     51          1           0        0.568208    2.665051    0.016112
     52          1           0        3.352201   -1.895610    3.574226
     53          1           0        1.593817   -1.512621    3.817339
     54          1           0        2.165176   -2.542516    2.482555
     55          1           0        6.706700   -2.749054    1.328795
     56          1           0        7.538446   -1.265921    1.635686
     57          1           0        8.095845   -2.430710    0.390287
     58          1           0       -1.219053   -1.974446    1.340660
     59          1           0       -0.510074   -2.606259    3.056443
     60          1           0       -1.733161   -0.404033   -0.284565
     61          1           0       -2.083516    4.785084   -1.902479
     62          1           0       -0.280826    4.526567   -1.043429
     63          1           0        7.991747   -0.700276   -3.149843
     64          1           0       -1.405188    4.654426    1.444376
     65          1           0       -2.640560    5.406600    0.841305
     66          1           0       -4.017204    4.271955   -1.901542
     67          1           0       -5.101177    3.040987   -1.178577
     68          1           0       -4.385748    2.702292   -2.829677
     69          1           0       -5.086983    0.430197   -1.450954
     70          1           0        9.213944   -0.956907   -0.355173
     71          1           0       10.135210   -0.774514   -2.119767
     72          1           0       -3.620204   -3.099062    3.550909
     73          1           0       -6.750951   -1.180136   -1.634256
     74          1           0       -4.388624   -5.325831   -2.383145
     75          1           0       -4.359545   -5.420056   -0.400873
     76          1           0       -6.012558   -4.990956   -1.171927
     77          1           0       -1.434758    8.160993    1.602289
     78          1           0       -8.018556   -2.657688   -2.916319
     79          1           0       -6.505119   -4.010675   -2.912239
 ---------------------------------------------------------------------

 SCF Done:  E(RB3LYP) =  -1947.87465164     A.U. after   16 cycles

 Excitation energies and oscillator strengths:

 Excited State   1:      Singlet-A      2.1238 eV  583.79 nm  f=0.4236  <S**2>=0.000
     155 ->156         0.70043
     155 <-156        -0.10167
 This state for optimization and/or second-order correction.
 Total Energy, E(TD-HF/TD-KS) =  -1947.79660407
 Copying the excited state density for this state as the 1-particle RhoCI density.

 The electronic state is 1-A.
 Alpha  occ. eigenvalues --  -19.19675 -19.15233 -19.13246 -19.12863 -19.11297
 Alpha  occ. eigenvalues --  -19.11178 -14.36141 -14.36017 -14.35155 -14.29791
 Alpha  occ. eigenvalues --  -10.32782 -10.29966 -10.28995 -10.26779 -10.24941
 Alpha  occ. eigenvalues --  -10.24470 -10.24348 -10.24251 -10.23836 -10.21992
 Alpha  occ. eigenvalues --  -10.21886 -10.21754 -10.21579 -10.21421 -10.21122
 Alpha  occ. eigenvalues --  -10.21001 -10.20838 -10.20797 -10.20661 -10.20621
 Alpha  occ. eigenvalues --  -10.20472 -10.20270 -10.20064 -10.19647 -10.19637
 Alpha  occ. eigenvalues --  -10.19602 -10.19490 -10.19203 -10.18859 -10.18706
 Alpha  occ. eigenvalues --  -10.18025 -10.17772 -10.16898  -1.11110  -1.10963
 Alpha  occ. eigenvalues --   -1.04183  -1.02836  -1.02729  -1.01787  -0.97784
 Alpha  occ. eigenvalues --   -0.96525  -0.94605  -0.91695  -0.82389  -0.82354
 Alpha  occ. eigenvalues --   -0.82052  -0.81691  -0.80010  -0.79578  -0.78017
 Alpha  occ. eigenvalues --   -0.77329  -0.76309  -0.75767  -0.74664  -0.72784
 Alpha  occ. eigenvalues --   -0.72029  -0.71492  -0.69659  -0.69122  -0.68870
 Alpha  occ. eigenvalues --   -0.66324  -0.65762  -0.63659  -0.62280  -0.60555
 Alpha  occ. eigenvalues --   -0.59951  -0.58445  -0.57945  -0.57619  -0.56343
 Alpha  occ. eigenvalues --   -0.55684  -0.55058  -0.54704  -0.53894  -0.53084
 Alpha  occ. eigenvalues --   -0.51672  -0.51202  -0.50466  -0.50004  -0.49444
 Alpha  occ. eigenvalues --   -0.48805  -0.48645  -0.48182  -0.47989  -0.47869
 Alpha  occ. eigenvalues --   -0.47622  -0.47443  -0.47221  -0.46503  -0.45581
 Alpha  occ. eigenvalues --   -0.45497  -0.45169  -0.44455  -0.44370  -0.43882
 Alpha  occ. eigenvalues --   -0.43730  -0.43376  -0.43182  -0.42994  -0.42638
 Alpha  occ. eigenvalues --   -0.42490  -0.42037  -0.41900  -0.41709  -0.41133
 Alpha  occ. eigenvalues --   -0.40981  -0.40919  -0.40713  -0.40523  -0.40429
 Alpha  occ. eigenvalues --   -0.39715  -0.39402  -0.39279  -0.38886  -0.38604
 Alpha  occ. eigenvalues --   -0.38103  -0.37822  -0.36935  -0.36667  -0.36575
 Alpha  occ. eigenvalues --   -0.36289  -0.35758  -0.35366  -0.34623  -0.34346
 Alpha  occ. eigenvalues --   -0.34110  -0.33865  -0.33031  -0.32694  -0.31827
 Alpha  occ. eigenvalues --   -0.31710  -0.30573  -0.28747  -0.28609  -0.28518
 Alpha  occ. eigenvalues --   -0.27439  -0.27142  -0.26257  -0.26057  -0.24753
 Alpha  occ. eigenvalues --   -0.24621  -0.23944  -0.23486  -0.22803  -0.18973
 Alpha virt. eigenvalues --   -0.10610  -0.05791  -0.04798  -0.01111   0.00559
 Alpha virt. eigenvalues --    0.01618   0.01699   0.03099   0.03262   0.03664
 Alpha virt. eigenvalues --    0.03848   0.04738   0.05048   0.05427   0.05607

 Mulliken charges:
               1
     1  O   -0.186580
     2  O   -0.199892
     3  O   -0.118326
     4  O   -0.179162
     5  O   -0.197826
     6  O   -0.163534
     7  N   -0.134473
     8  N   -0.200325
     9  N   -0.079866
    10  N   -0.333578
    11  C    0.117069
    12  C    0.165090
    13  C   -0.065504
    14  C   -0.109566
    15  C   -0.049338
    16  C    0.127704
    17  C   -0.211939
    18  C   -0.000691
    19  C   -0.055347
    20  C    0.041429
    21  C    0.058801
    22  C    0.146130
    23  C   -0.091215
    24  C    0.096714
    25  C    0.151764
    26  C   -0.122252
    27  C   -0.021501
    28  C    0.139424
    29  C    0.058408
    30  C   -0.065043
    31  C   -0.003619
    32  C    0.077175
    33  C   -0.099935
    34  C    0.079478
    35  C    0.057863
    36  C    0.014867
    37  C    0.111768
    38  C    0.019104
    39  C   -0.231038
    40  C    0.157558
    41  C   -0.009019
    42  C    0.029844
    43  C   -0.016320
    44  H    0.013066
    45  H   -0.004846
    46  H   -0.005818
    47  H    0.091972
    48  H    0.131208
    49  H    0.013090
    50  H    0.013129
    51  H   -0.156480
    52  H    0.018766
    53  H   -0.005340
    54  H    0.021760
    55  H    0.000815
    56  H    0.043393
    57  H    0.012811
    58  H    0.079048
    59  H    0.050943
    60  H    0.165647
    61  H    0.066811
    62  H    0.052132
    63  H    0.015830
    64  H    0.049488
    65  H   -0.004814
    66  H    0.019818
    67  H    0.023629
    68  H    0.045308
    69  H   -0.039019
    70  H    0.006915
    71  H    0.024209
    72  H    0.130419
    73  H   -0.007810
    74  H    0.077737
    75  H    0.038646
    76  H    0.046511
    77  H    0.184430
    78  H    0.038915
    79  H    0.043382
 Sum of Mulliken charges =   0.00000

 Dipole moment (field-independent basis, Debye):
    X=             -1.5913    Y=              3.4792    Z=              3.3501  Tot=              5.0853
 Quadrupole moment (field-independent basis, Debye-Ang):
   XX=           -219.8613   YY=           -239.4757   ZZ=           -262.1210
   XY=            -18.0857   XZ=             28.1074   YZ=              7.7926

 Normal termination of Gaussian 09 at Wed Jul 10 15:35:56 2019.
