 Gaussian 09, Revision D.01,
 Gaussian 09:  ES64L-G09RevD.01 24-Apr-2013

 --------------------------
 # td=(NStates=1) B3LYP/SVP
 --------------------------

 --
 TD
 --
 Symbolic Z-matrix:
 Charge =  0 Multiplicity = 1

                         Standard orientation:
 ---------------------------------------------------------------------
 Center     Atomic      Atomic             Coordinates (Angstroms)
 Number     Number       Type             X           Y           Z
 ---------------------------------------------------------------------
      1          8           0        5.337190   -0.388786   -3.358817
      2          8           0       -2.983668   -3.188008    3.198370
      3          8           0       -3.203867   -0.928241    3.361052
      4          8           0       -1.079050    7.234922    1.538907
      5          8           0       -0.098573    6.927717   -0.401888
      6          8           0       -2.073737   -3.961706   -0.265281
      7          7           0        2.401290    0.687744    0.504322
      8          7           0        4.432938   -0.866892   -1.256920
      9          7           0       -1.999257    0.834257   -0.375566
     10          7           0       -2.764063   -1.765092   -0.490189
     11          6           0        4.904360   -1.328063   -0.000373
     12          6           0        4.443561   -0.395413    1.283243
     13          6           0        2.970921   -0.134503    1.340499
     14          6           0        2.026496   -0.749002    2.188204
     15          6           0        0.780456   -0.152013    1.796565
     16          6           0        0.908606    0.752821    0.740304
     17          6           0        6.422545   -1.396605   -0.234255
     18          6           0       -0.521714   -0.422077    2.453757
     19          6           0        6.715661   -0.997589   -1.454295
     20          6           0        0.092068    1.855418    0.162448
     21          6           0       -1.187489    1.913715   -0.261171
     22          6           0        5.523179   -0.614620   -2.190666
     23          6           0       -1.912787    3.000503   -0.904632
     24          6           0        2.266765   -1.838681    3.174283
     25          6           0        7.269573   -1.878981    0.869811
     26          6           0       -3.210974    2.482435   -1.232981
     27          6           0       -1.142493   -1.859989    2.557282
     28          6           0       -3.187259    1.077017   -1.034008
     29          6           0       -1.454357    4.425028   -0.830980
     30          6           0        8.041926   -0.954222   -2.150735
     31          6           0       -1.415242    5.109095    0.516204
     32          6           0       -4.391943    3.082528   -1.772261
     33          6           0       -4.167490    0.054435   -1.232496
     34          6           0       -2.579833   -1.862475    3.041130
     35          6           0       -3.820962   -1.277445   -1.016580
     36          6           0        9.262230   -0.737833   -1.549695
     37          6           0       -0.845304    6.537491    0.474932
     38          6           0       -4.790495   -2.277444   -1.524421
     39          6           0       -4.224333   -3.444687   -1.201386
     40          6           0       -2.872630   -3.175988   -0.628933
     41          6           0       -6.241094   -2.044496   -1.951777
     42          6           0       -4.735128   -4.850496   -1.433912
     43          6           0       -7.090123   -2.882462   -2.456484
     44          1           0        4.366501   -2.289196    0.201864
     45          1           0        5.005282    0.768745    1.045198
     46          1           0        4.664999   -0.729234    2.263448
     47          1           0        2.893278    1.160780   -0.229395
     48          1           0        3.263456   -0.874579   -1.581911
     49          1           0       -0.360741   -0.000935    3.596700
     50          1           0       -1.313357    0.326750    1.972911
     51          1           0        0.811943    2.693690    0.007534
     52          1           0        3.279925   -2.136867    3.399048
     53          1           0        1.780915   -1.572972    4.106832
     54          1           0        1.803190   -2.785037    3.028600
     55          1           0        6.783674   -2.715278    1.462516
     56          1           0        7.746447   -0.978275    1.340711
     57          1           0        8.115012   -2.664605    0.472003
     58          1           0       -1.088190   -2.275577    1.487057
     59          1           0       -0.444817   -2.600287    3.144873
     60          1           0       -1.653325   -0.116788   -0.141459
     61          1           0       -1.950874    5.065717   -1.550394
     62          1           0       -0.414828    4.469871   -1.304815
     63          1           0        8.002215   -0.928054   -3.214378
     64          1           0       -0.827370    4.562199    1.286708
     65          1           0       -2.595665    5.296197    0.831066
     66          1           0       -4.379418    4.220339   -1.729647
     67          1           0       -5.292066    2.949654   -1.219336
     68          1           0       -4.723689    2.779725   -2.859101
     69          1           0       -4.974492    0.357513   -1.597083
     70          1           0        9.293456   -0.695262   -0.404282
     71          1           0       10.053307   -0.777622   -2.188877
     72          1           0       -3.919664   -3.089552    3.695515
     73          1           0       -6.747751   -1.141351   -1.869040
     74          1           0       -5.107622   -5.213087   -2.380462
     75          1           0       -3.949350   -5.427617   -1.123886
     76          1           0       -5.610376   -5.050294   -0.720499
     77          1           0       -0.416839    8.049507    1.552079
     78          1           0       -8.039258   -2.608804   -2.843176
     79          1           0       -6.756812   -3.919140   -2.406930
 ---------------------------------------------------------------------

 SCF Done:  E(RB3LYP) =  -1947.86998646     A.U. after   16 cycles

 Excitation energies and oscillator strengths:

 Excited State   1:      Singlet-A      2.1538 eV  575.67 nm  f=0.5192  <S**2>=0.000
     155 ->156         0.70309
     155 <-156        -0.11237
 This state for optimization and/or second-order correction.
 Total Energy, E(TD-HF/TD-KS) =  -1947.79083750
 Copying the excited state density for this state as the 1-particle RhoCI density.

 The electronic state is 1-A.
 Alpha  occ. eigenvalues --  -19.20088 -19.16589 -19.12396 -19.12354 -19.10918
 Alpha  occ. eigenvalues --  -19.10792 -14.38006 -14.35937 -14.35649 -14.28224
 Alpha  occ. eigenvalues --  -10.32397 -10.30678 -10.29002 -10.26193 -10.25554
 Alpha  occ. eigenvalues --  -10.24195 -10.23920 -10.23734 -10.23272 -10.23194
 Alpha  occ. eigenvalues --  -10.22887 -10.22767 -10.22481 -10.22236 -10.22030
 Alpha  occ. eigenvalues --  -10.22020 -10.20991 -10.20884 -10.20645 -10.20595
 Alpha  occ. eigenvalues --  -10.20519 -10.20347 -10.20050 -10.19979 -10.19810
 Alpha  occ. eigenvalues --  -10.19233 -10.19069 -10.18987 -10.18966 -10.18572
 Alpha  occ. eigenvalues --  -10.17821 -10.17699 -10.17125  -1.11703  -1.08066
 Alpha  occ. eigenvalues --   -1.03749  -1.03249  -1.00551  -0.99274  -0.98586
 Alpha  occ. eigenvalues --   -0.97979  -0.93269  -0.93247  -0.82376  -0.82209
 Alpha  occ. eigenvalues --   -0.81970  -0.80987  -0.80291  -0.78944  -0.77668
 Alpha  occ. eigenvalues --   -0.76729  -0.75971  -0.75251  -0.74800  -0.73000
 Alpha  occ. eigenvalues --   -0.72007  -0.71557  -0.69812  -0.68755  -0.68141
 Alpha  occ. eigenvalues --   -0.66349  -0.65772  -0.63565  -0.60873  -0.60793
 Alpha  occ. eigenvalues --   -0.60212  -0.57929  -0.57768  -0.57477  -0.56668
 Alpha  occ. eigenvalues --   -0.56447  -0.55500  -0.54685  -0.53535  -0.52945
 Alpha  occ. eigenvalues --   -0.52307  -0.50952  -0.50320  -0.49889  -0.49459
 Alpha  occ. eigenvalues --   -0.49304  -0.48738  -0.48308  -0.48148  -0.47731
 Alpha  occ. eigenvalues --   -0.47497  -0.46823  -0.46672  -0.46095  -0.45480
 Alpha  occ. eigenvalues --   -0.45282  -0.45016  -0.44890  -0.44770  -0.44215
 Alpha  occ. eigenvalues --   -0.43494  -0.43094  -0.42971  -0.42777  -0.42534
 Alpha  occ. eigenvalues --   -0.42105  -0.41835  -0.41635  -0.41576  -0.41418
 Alpha  occ. eigenvalues --   -0.41125  -0.40719  -0.40391  -0.39916  -0.39797
 Alpha  occ. eigenvalues --   -0.39594  -0.39435  -0.39287  -0.38883  -0.38653
 Alpha  occ. eigenvalues --   -0.38437  -0.38180  -0.37425  -0.37014  -0.36787
 Alpha  occ. eigenvalues --   -0.35780  -0.35659  -0.35458  -0.34589  -0.34082
 Alpha  occ. eigenvalues --   -0.33988  -0.33596  -0.32827  -0.32208  -0.31513
 Alpha  occ. eigenvalues --   -0.31221  -0.30754  -0.29102  -0.28129  -0.27827
 Alpha  occ. eigenvalues --   -0.27696  -0.26538  -0.25599  -0.25294  -0.25083
 Alpha  occ. eigenvalues --   -0.24830  -0.23978  -0.23352  -0.22524  -0.19044
 Alpha virt. eigenvalues --   -0.10655  -0.06062  -0.05725  -0.00482  -0.00255
 Alpha virt. eigenvalues --    0.00091   0.00954   0.01651   0.01929   0.02318
 Alpha virt. eigenvalues --    0.02943   0.03726   0.04101   0.04703   0.04954

 Mulliken charges:
               1
     1  O   -0.192842
     2  O   -0.264845
     3  O   -0.174947
     4  O   -0.169293
     5  O   -0.246107
     6  O   -0.147900
     7  N   -0.084535
     8  N   -0.339789
     9  N   -0.083352
    10  N   -0.236846
    11  C    0.121073
    12  C    0.107828
    13  C   -0.117539
    14  C   -0.098605
    15  C   -0.056941
    16  C    0.024011
    17  C   -0.152238
    18  C   -0.038604
    19  C   -0.026123
    20  C   -0.084948
    21  C    0.117371
    22  C    0.180356
    23  C   -0.063115
    24  C    0.133046
    25  C    0.020411
    26  C   -0.088831
    27  C   -0.047698
    28  C    0.095223
    29  C    0.080656
    30  C   -0.024658
    31  C   -0.025815
    32  C    0.055158
    33  C   -0.009006
    34  C    0.163959
    35  C    0.118437
    36  C    0.013255
    37  C    0.102495
    38  C    0.045339
    39  C   -0.225076
    40  C    0.137240
    41  C   -0.001898
    42  C    0.131070
    43  C   -0.004782
    44  H    0.023762
    45  H    0.017196
    46  H   -0.001450
    47  H    0.107739
    48  H    0.194424
    49  H    0.026990
    50  H    0.035519
    51  H    0.012442
    52  H   -0.011137
    53  H   -0.000016
    54  H    0.012170
    55  H    0.032659
    56  H    0.071504
    57  H    0.045554
    58  H    0.081807
    59  H    0.044529
    60  H    0.153597
    61  H   -0.000556
    62  H    0.022179
    63  H    0.002818
    64  H    0.055072
    65  H    0.054146
    66  H    0.006810
    67  H    0.011118
    68  H    0.047602
    69  H   -0.161010
    70  H    0.030246
    71  H    0.007405
    72  H    0.205526
    73  H   -0.038070
    74  H    0.033528
    75  H   -0.014427
    76  H    0.023541
    77  H    0.224988
    78  H    0.011067
    79  H   -0.009874
 Sum of Mulliken charges =   0.00000

 Dipole moment (field-independent basis, Debye):
    X=              1.3298    Y=              2.7080    Z=              3.6842  Tot=              4.7618
 Quadrupole moment (field-independent basis, Debye-Ang):
   XX=           -213.9028   YY=           -243.7179   ZZ=           -262.9374
   XY=            -12.5783   XZ=             29.0691   YZ=              3.1881

 Normal termination of Gaussian 09 at Wed Jul 10 01:15:27 2019.
