 Gaussian 09, Revision D.01,
 Gaussian 09:  ES64L-G09RevD.01 24-Apr-2013

 --------------------------
 # td=(NStates=1) B3LYP/SVP
 --------------------------

 --
 TD
 --
 Symbolic Z-matrix:
 Charge =  0 Multiplicity = 1

                         Standard orientation:
 ---------------------------------------------------------------------
 Center     Atomic      Atomic             Coordinates (Angstroms)
 Number     Number       Type             X           Y           Z
 ---------------------------------------------------------------------
      1          8           0        5.339798   -0.091335   -3.378265
      2          8           0       -3.012277   -3.063223    3.083718
      3          8           0       -3.278386   -0.860338    3.016723
      4          8           0       -1.465091    7.261177    1.426764
      5          8           0       -0.187800    6.920921   -0.357251
      6          8           0       -2.074558   -3.994721    0.063979
      7          7           0        2.409523    0.982075    0.647101
      8          7           0        4.429538   -0.594426   -1.245087
      9          7           0       -1.939303    0.606900   -0.418825
     10          7           0       -2.699705   -1.819219   -0.481869
     11          6           0        4.808142   -1.163183   -0.048823
     12          6           0        4.493487   -0.391375    1.204396
     13          6           0        3.012450   -0.070076    1.404893
     14          6           0        2.015816   -0.715706    2.190882
     15          6           0        0.794383   -0.094811    1.875393
     16          6           0        0.995774    0.827642    0.812109
     17          6           0        6.341748   -1.436745   -0.263160
     18          6           0       -0.502833   -0.346327    2.589705
     19          6           0        6.709629   -1.021091   -1.438173
     20          6           0        0.225911    1.866957    0.208608
     21          6           0       -1.155344    1.778925   -0.219112
     22          6           0        5.463797   -0.450224   -2.212857
     23          6           0       -1.905973    2.938589   -0.805477
     24          6           0        2.236664   -1.742379    3.173955
     25          6           0        7.135405   -2.010628    0.855308
     26          6           0       -3.129181    2.437835   -1.170519
     27          6           0       -1.127869   -1.821057    2.459378
     28          6           0       -3.016327    0.956321   -0.963391
     29          6           0       -1.459983    4.316221   -0.846033
     30          6           0        8.031600   -0.943066   -2.118068
     31          6           0       -1.698682    5.171051    0.449972
     32          6           0       -4.241062    3.095617   -1.845888
     33          6           0       -3.958516    0.063754   -1.345506
     34          6           0       -2.532648   -1.790059    2.882743
     35          6           0       -3.810274   -1.312543   -1.147200
     36          6           0        9.268411   -1.032021   -1.484796
     37          6           0       -1.028976    6.535929    0.455590
     38          6           0       -4.834091   -2.376074   -1.462961
     39          6           0       -4.141815   -3.529139   -1.127679
     40          6           0       -2.870906   -3.169462   -0.481498
     41          6           0       -6.086077   -2.224357   -2.159187
     42          6           0       -4.635545   -4.967532   -1.037488
     43          6           0       -6.838574   -3.213956   -2.661879
     44          1           0        4.342988   -2.264173    0.342706
     45          1           0        4.991612    0.699846    1.214432
     46          1           0        4.825028   -0.898335    2.101636
     47          1           0        2.973970    1.333325   -0.170270
     48          1           0        3.569094   -0.682203   -1.719885
     49          1           0       -0.497286   -0.037092    3.554468
     50          1           0       -1.163678    0.379706    2.197394
     51          1           0        0.704240    2.868473    0.068761
     52          1           0        3.199234   -1.681569    3.684372
     53          1           0        1.540727   -1.695165    3.983279
     54          1           0        2.165874   -2.611362    2.732786
     55          1           0        6.602624   -2.975508    1.443402
     56          1           0        7.007722   -1.282382    1.883934
     57          1           0        8.320539   -2.164086    0.521026
     58          1           0       -1.005188   -2.103251    1.433591
     59          1           0       -0.696250   -2.665221    2.794574
     60          1           0       -1.829474   -0.347626   -0.055739
     61          1           0       -2.002566    5.023774   -1.728619
     62          1           0       -0.468120    4.483057   -1.159549
     63          1           0        8.078983   -0.858941   -3.224825
     64          1           0       -1.233077    4.704261    1.190393
     65          1           0       -2.810582    5.355521    0.801719
     66          1           0       -4.033095    4.272363   -1.735750
     67          1           0       -5.355920    2.928388   -1.389743
     68          1           0       -4.454777    2.976476   -2.950609
     69          1           0       -5.003521    0.444656   -1.525880
     70          1           0        9.291109   -1.204522   -0.314565
     71          1           0       10.102015   -0.976494   -2.305807
     72          1           0       -4.131697   -3.115072    3.141056
     73          1           0       -6.661029   -1.335107   -2.175681
     74          1           0       -4.686267   -5.230418   -2.101497
     75          1           0       -3.920625   -5.639688   -0.619616
     76          1           0       -5.660926   -5.151512   -0.571137
     77          1           0       -0.858982    8.040878    1.513694
     78          1           0       -7.996842   -2.866658   -2.954512
     79          1           0       -6.570963   -4.333672   -2.593535
 ---------------------------------------------------------------------

 SCF Done:  E(RB3LYP) =  -1947.83816169     A.U. after   19 cycles

 Excitation energies and oscillator strengths:

 Excited State   1:      Singlet-A      2.1587 eV  574.35 nm  f=0.4619  <S**2>=0.000
     154 ->156         0.16190
     155 ->156         0.68240
     155 <-156        -0.10837
 This state for optimization and/or second-order correction.
 Total Energy, E(TD-HF/TD-KS) =  -1947.75883158
 Copying the excited state density for this state as the 1-particle RhoCI density.

 The electronic state is 1-A.
 Alpha  occ. eigenvalues --  -19.20430 -19.15527 -19.12779 -19.12733 -19.10555
 Alpha  occ. eigenvalues --  -19.08668 -14.38507 -14.36870 -14.36517 -14.28485
 Alpha  occ. eigenvalues --  -10.32729 -10.30692 -10.29784 -10.26749 -10.25284
 Alpha  occ. eigenvalues --  -10.25047 -10.25036 -10.23738 -10.23629 -10.23575
 Alpha  occ. eigenvalues --  -10.23079 -10.23022 -10.22717 -10.22533 -10.21955
 Alpha  occ. eigenvalues --  -10.21942 -10.21893 -10.21771 -10.21464 -10.21441
 Alpha  occ. eigenvalues --  -10.21172 -10.21012 -10.20599 -10.20101 -10.20021
 Alpha  occ. eigenvalues --  -10.19601 -10.19517 -10.19353 -10.18673 -10.18244
 Alpha  occ. eigenvalues --  -10.18067 -10.17988 -10.17959  -1.12798  -1.05933
 Alpha  occ. eigenvalues --   -1.03798  -1.00746  -1.00586  -0.97949  -0.96750
 Alpha  occ. eigenvalues --   -0.96608  -0.95851  -0.90410  -0.83769  -0.83079
 Alpha  occ. eigenvalues --   -0.82139  -0.81200  -0.80134  -0.79506  -0.78612
 Alpha  occ. eigenvalues --   -0.77584  -0.76367  -0.75122  -0.74473  -0.73143
 Alpha  occ. eigenvalues --   -0.72018  -0.70895  -0.69757  -0.68799  -0.68732
 Alpha  occ. eigenvalues --   -0.67768  -0.65917  -0.63502  -0.62208  -0.60469
 Alpha  occ. eigenvalues --   -0.59757  -0.58607  -0.58244  -0.57575  -0.57396
 Alpha  occ. eigenvalues --   -0.56574  -0.55782  -0.55606  -0.54628  -0.53214
 Alpha  occ. eigenvalues --   -0.51913  -0.51393  -0.50744  -0.50654  -0.49954
 Alpha  occ. eigenvalues --   -0.49375  -0.49323  -0.48612  -0.48344  -0.47412
 Alpha  occ. eigenvalues --   -0.47140  -0.46731  -0.46146  -0.46033  -0.45503
 Alpha  occ. eigenvalues --   -0.45258  -0.44934  -0.44645  -0.44254  -0.44123
 Alpha  occ. eigenvalues --   -0.43818  -0.42793  -0.42687  -0.42607  -0.42271
 Alpha  occ. eigenvalues --   -0.42121  -0.41809  -0.41514  -0.41316  -0.40910
 Alpha  occ. eigenvalues --   -0.40586  -0.40310  -0.39764  -0.39720  -0.39553
 Alpha  occ. eigenvalues --   -0.39270  -0.39054  -0.38751  -0.38599  -0.38434
 Alpha  occ. eigenvalues --   -0.38251  -0.37864  -0.37481  -0.36945  -0.36424
 Alpha  occ. eigenvalues --   -0.36069  -0.35694  -0.34748  -0.34139  -0.33974
 Alpha  occ. eigenvalues --   -0.33826  -0.33007  -0.32964  -0.32834  -0.31858
 Alpha  occ. eigenvalues --   -0.30966  -0.29723  -0.28558  -0.28365  -0.27940
 Alpha  occ. eigenvalues --   -0.27336  -0.26867  -0.26446  -0.26247  -0.25466
 Alpha  occ. eigenvalues --   -0.24984  -0.23565  -0.23114  -0.21878  -0.18941
 Alpha virt. eigenvalues --   -0.10515  -0.06601  -0.06350  -0.01131  -0.00922
 Alpha virt. eigenvalues --   -0.00120   0.00165   0.01682   0.01817   0.02244
 Alpha virt. eigenvalues --    0.03163   0.03524   0.03902   0.04043   0.04514

 Mulliken charges:
               1
     1  O   -0.205489
     2  O   -0.288540
     3  O   -0.221156
     4  O   -0.129359
     5  O   -0.256581
     6  O   -0.271317
     7  N   -0.164714
     8  N   -0.160107
     9  N    0.029134
    10  N   -0.308038
    11  C    0.049846
    12  C    0.158856
    13  C   -0.102837
    14  C   -0.139208
    15  C   -0.109097
    16  C    0.107780
    17  C   -0.068820
    18  C    0.183748
    19  C   -0.061552
    20  C   -0.104623
    21  C    0.066256
    22  C    0.162527
    23  C   -0.020376
    24  C    0.210860
    25  C   -0.087570
    26  C   -0.058470
    27  C    0.093154
    28  C    0.066984
    29  C    0.008409
    30  C   -0.041059
    31  C    0.049384
    32  C   -0.028087
    33  C   -0.157618
    34  C    0.138427
    35  C    0.089208
    36  C   -0.072078
    37  C    0.089903
    38  C    0.076903
    39  C   -0.194138
    40  C    0.159106
    41  C   -0.000975
    42  C    0.092432
    43  C   -0.108051
    44  H    0.034828
    45  H    0.013255
    46  H   -0.018406
    47  H    0.142376
    48  H    0.124378
    49  H   -0.024934
    50  H   -0.027408
    51  H    0.021743
    52  H   -0.000748
    53  H    0.003722
    54  H   -0.014983
    55  H    0.052761
    56  H    0.060186
    57  H    0.074162
    58  H    0.043645
    59  H   -0.028274
    60  H    0.158750
    61  H    0.035238
    62  H    0.008842
    63  H    0.026922
    64  H   -0.010609
    65  H    0.058160
    66  H    0.028345
    67  H    0.043789
    68  H    0.049076
    69  H   -0.005547
    70  H    0.051157
    71  H    0.056869
    72  H    0.239540
    73  H   -0.019359
    74  H    0.022326
    75  H    0.013433
    76  H    0.040885
    77  H    0.195070
    78  H    0.042853
    79  H    0.034900
 Sum of Mulliken charges =   0.00000

 Dipole moment (field-independent basis, Debye):
    X=              1.5976    Y=              3.0263    Z=              3.4137  Tot=              4.8336
 Quadrupole moment (field-independent basis, Debye-Ang):
   XX=           -219.8676   YY=           -246.8792   ZZ=           -262.8947
   XY=            -15.7121   XZ=             26.3552   YZ=              6.9151

 Normal termination of Gaussian 09 at Wed Jul 10 20:47:20 2019.
