 Gaussian 09, Revision D.01,
 Gaussian 09:  ES64L-G09RevD.01 24-Apr-2013

 --------------------------
 # td=(NStates=1) B3LYP/SVP
 --------------------------

 --
 TD
 --
 Symbolic Z-matrix:
 Charge =  0 Multiplicity = 1

                         Standard orientation:
 ---------------------------------------------------------------------
 Center     Atomic      Atomic             Coordinates (Angstroms)
 Number     Number       Type             X           Y           Z
 ---------------------------------------------------------------------
      1          8           0        5.439862   -0.465716   -3.436210
      2          8           0       -3.033973   -3.093209    3.253048
      3          8           0       -3.098754   -0.938252    3.679304
      4          8           0       -1.153721    6.982731    1.778469
      5          8           0       -0.604559    7.197541   -0.423586
      6          8           0       -2.245540   -4.045217   -0.174728
      7          7           0        2.378602    0.851621    0.590228
      8          7           0        4.432578   -0.684728   -1.416817
      9          7           0       -1.978753    0.766168   -0.282456
     10          7           0       -2.898584   -1.731053   -0.423413
     11          6           0        4.867459   -1.322332   -0.113632
     12          6           0        4.466305   -0.470646    1.237250
     13          6           0        3.080554   -0.170158    1.341343
     14          6           0        2.022767   -0.847090    2.063823
     15          6           0        0.768787   -0.352045    1.617021
     16          6           0        1.033821    0.725807    0.803566
     17          6           0        6.336590   -1.368401   -0.200347
     18          6           0       -0.501501   -0.443784    2.379430
     19          6           0        6.788854   -0.999664   -1.390016
     20          6           0        0.259610    1.816689    0.069294
     21          6           0       -1.052693    1.777685   -0.241909
     22          6           0        5.489051   -0.659959   -2.179945
     23          6           0       -1.769187    2.965382   -0.889752
     24          6           0        2.200473   -1.886012    3.167210
     25          6           0        7.129972   -2.011449    0.921830
     26          6           0       -3.036234    2.512811   -1.207854
     27          6           0       -1.199371   -1.855838    2.361356
     28          6           0       -3.108868    1.040507   -0.884632
     29          6           0       -1.301758    4.403478   -0.839450
     30          6           0        8.015717   -0.822092   -2.122112
     31          6           0       -1.411504    5.080577    0.552753
     32          6           0       -4.067855    3.269057   -1.999097
     33          6           0       -4.081608    0.140569   -1.293670
     34          6           0       -2.506466   -1.835662    3.222738
     35          6           0       -3.914452   -1.180474   -1.079152
     36          6           0        9.229462   -0.702048   -1.515433
     37          6           0       -0.974375    6.423528    0.568427
     38          6           0       -4.918296   -2.216116   -1.550758
     39          6           0       -4.325562   -3.489348   -1.173623
     40          6           0       -3.033966   -3.213375   -0.554675
     41          6           0       -6.199272   -1.978303   -2.099863
     42          6           0       -4.861510   -4.911713   -1.306777
     43          6           0       -6.878836   -2.890421   -2.803644
     44          1           0        4.525451   -2.338405    0.132148
     45          1           0        5.053395    0.611419    1.027389
     46          1           0        4.855446   -0.966619    2.040698
     47          1           0        2.987075    1.380658   -0.063760
     48          1           0        3.483451   -0.781155   -1.795882
     49          1           0       -0.284646   -0.314153    3.510924
     50          1           0       -1.457078    0.244922    2.162921
     51          1           0        0.886616    2.837570    0.091306
     52          1           0        3.302665   -1.999353    3.283858
     53          1           0        1.827127   -1.479781    4.144793
     54          1           0        1.631552   -2.824563    2.902628
     55          1           0        6.441661   -2.769734    1.563984
     56          1           0        7.259824   -1.107047    1.583368
     57          1           0        8.327023   -2.422812    0.679623
     58          1           0       -1.390218   -2.227889    1.265503
     59          1           0       -0.572630   -2.711226    2.768610
     60          1           0       -1.782438   -0.376912   -0.175375
     61          1           0       -1.651522    5.071021   -1.576183
     62          1           0       -0.267454    4.553745   -1.180496
     63          1           0        8.104140   -0.770368   -3.141589
     64          1           0       -0.886133    4.572355    1.277378
     65          1           0       -2.463590    5.231686    1.007062
     66          1           0       -3.579632    4.265650   -2.142891
     67          1           0       -4.965239    3.638319   -1.299315
     68          1           0       -4.294282    2.741462   -3.046817
     69          1           0       -5.012289    0.442219   -1.955271
     70          1           0        9.463184   -0.710041   -0.362220
     71          1           0       10.086072   -0.455144   -2.047191
     72          1           0       -3.721341   -2.994155    4.110566
     73          1           0       -6.698151   -0.914736   -1.973839
     74          1           0       -4.821456   -5.291676   -2.471567
     75          1           0       -4.188618   -5.652599   -0.819768
     76          1           0       -5.797324   -4.929334   -0.814443
     77          1           0       -0.954197    8.220914    1.724494
     78          1           0       -7.907359   -2.575346   -3.160603
     79          1           0       -6.779160   -3.890943   -3.091391
 ---------------------------------------------------------------------

 SCF Done:  E(RB3LYP) =  -1947.80858775     A.U. after   17 cycles

 Excitation energies and oscillator strengths:

 Excited State   1:      Singlet-A      2.0820 eV  595.51 nm  f=0.3729  <S**2>=0.000
     154 ->156         0.16885
     155 ->156         0.67983
 This state for optimization and/or second-order correction.
 Total Energy, E(TD-HF/TD-KS) =  -1947.73207660
 Copying the excited state density for this state as the 1-particle RhoCI density.

 The electronic state is 1-A.
 Alpha  occ. eigenvalues --  -19.19954 -19.16216 -19.12259 -19.11926 -19.11367
 Alpha  occ. eigenvalues --  -19.08630 -14.38451 -14.37262 -14.37063 -14.29559
 Alpha  occ. eigenvalues --  -10.32680 -10.30116 -10.27948 -10.27124 -10.26080
 Alpha  occ. eigenvalues --  -10.25164 -10.24915 -10.23812 -10.23509 -10.23249
 Alpha  occ. eigenvalues --  -10.22978 -10.22936 -10.22870 -10.22054 -10.21994
 Alpha  occ. eigenvalues --  -10.21958 -10.21936 -10.21356 -10.21350 -10.21325
 Alpha  occ. eigenvalues --  -10.20985 -10.20508 -10.20398 -10.20393 -10.20117
 Alpha  occ. eigenvalues --  -10.19987 -10.19905 -10.19798 -10.19755 -10.19741
 Alpha  occ. eigenvalues --  -10.19392 -10.19174 -10.18852  -1.08517  -1.06913
 Alpha  occ. eigenvalues --   -1.02378  -1.01080  -0.99435  -0.98618  -0.97171
 Alpha  occ. eigenvalues --   -0.95590  -0.93113  -0.91223  -0.83514  -0.83207
 Alpha  occ. eigenvalues --   -0.81456  -0.80882  -0.80519  -0.79874  -0.79145
 Alpha  occ. eigenvalues --   -0.77381  -0.76109  -0.74656  -0.74297  -0.72253
 Alpha  occ. eigenvalues --   -0.71167  -0.70845  -0.69511  -0.68623  -0.68083
 Alpha  occ. eigenvalues --   -0.66502  -0.65156  -0.63944  -0.61673  -0.61240
 Alpha  occ. eigenvalues --   -0.58843  -0.58395  -0.57481  -0.57087  -0.56694
 Alpha  occ. eigenvalues --   -0.55421  -0.54917  -0.54254  -0.53510  -0.52901
 Alpha  occ. eigenvalues --   -0.52388  -0.51554  -0.51048  -0.50682  -0.49471
 Alpha  occ. eigenvalues --   -0.49270  -0.48462  -0.48159  -0.47451  -0.47232
 Alpha  occ. eigenvalues --   -0.47151  -0.46618  -0.46358  -0.45975  -0.45751
 Alpha  occ. eigenvalues --   -0.45527  -0.44757  -0.44204  -0.43679  -0.43310
 Alpha  occ. eigenvalues --   -0.43016  -0.42644  -0.42479  -0.42202  -0.41976
 Alpha  occ. eigenvalues --   -0.41795  -0.41633  -0.41409  -0.41130  -0.41007
 Alpha  occ. eigenvalues --   -0.40815  -0.40421  -0.40133  -0.40012  -0.39672
 Alpha  occ. eigenvalues --   -0.39345  -0.39029  -0.38265  -0.38061  -0.37869
 Alpha  occ. eigenvalues --   -0.37592  -0.37301  -0.37081  -0.36517  -0.36172
 Alpha  occ. eigenvalues --   -0.35908  -0.35769  -0.35323  -0.34996  -0.34667
 Alpha  occ. eigenvalues --   -0.34523  -0.34209  -0.32333  -0.32170  -0.31606
 Alpha  occ. eigenvalues --   -0.30637  -0.30575  -0.29311  -0.28248  -0.27366
 Alpha  occ. eigenvalues --   -0.27287  -0.26639  -0.26356  -0.24761  -0.24538
 Alpha  occ. eigenvalues --   -0.24004  -0.23900  -0.23365  -0.21853  -0.19585
 Alpha virt. eigenvalues --   -0.10905  -0.06828  -0.05387  -0.04305  -0.01932
 Alpha virt. eigenvalues --   -0.00674   0.00147   0.00717   0.01781   0.02336
 Alpha virt. eigenvalues --    0.03220   0.03465   0.03902   0.04036   0.04367

 Mulliken charges:
               1
     1  O   -0.292953
     2  O   -0.255432
     3  O   -0.188088
     4  O   -0.299707
     5  O   -0.327834
     6  O   -0.185251
     7  N   -0.130978
     8  N   -0.114543
     9  N   -0.094584
    10  N   -0.367461
    11  C    0.105272
    12  C    0.122060
    13  C   -0.046379
    14  C   -0.168449
    15  C   -0.030583
    16  C    0.067037
    17  C   -0.167886
    18  C   -0.034796
    19  C    0.033795
    20  C   -0.110631
    21  C    0.124513
    22  C    0.085936
    23  C   -0.056401
    24  C    0.091381
    25  C   -0.020583
    26  C   -0.153640
    27  C   -0.104440
    28  C    0.124712
    29  C    0.103354
    30  C    0.029715
    31  C    0.064791
    32  C    0.052191
    33  C   -0.176320
    34  C    0.136676
    35  C    0.117913
    36  C   -0.056072
    37  C    0.162149
    38  C    0.047778
    39  C   -0.179735
    40  C    0.194595
    41  C   -0.062699
    42  C    0.068758
    43  C   -0.024908
    44  H    0.029359
    45  H    0.016481
    46  H   -0.029951
    47  H    0.131510
    48  H    0.146451
    49  H    0.019201
    50  H    0.061888
    51  H    0.046677
    52  H   -0.006250
    53  H    0.028235
    54  H    0.053216
    55  H    0.046650
    56  H    0.045913
    57  H    0.080157
    58  H    0.098922
    59  H    0.023215
    60  H    0.222517
    61  H   -0.002715
    62  H    0.004419
    63  H   -0.015103
    64  H    0.014692
    65  H    0.065575
    66  H    0.007252
    67  H    0.041787
    68  H    0.069281
    69  H    0.015187
    70  H    0.027215
    71  H    0.007752
    72  H    0.213369
    73  H    0.034642
    74  H    0.050894
    75  H    0.027286
    76  H    0.028035
    77  H    0.288840
    78  H    0.018967
    79  H    0.006158
 Sum of Mulliken charges =   0.00000

 Dipole moment (field-independent basis, Debye):
    X=             -0.0172    Y=              2.1082    Z=              3.7700  Tot=              4.3195
 Quadrupole moment (field-independent basis, Debye-Ang):
   XX=           -221.0526   YY=           -248.2724   ZZ=           -264.1427
   XY=             -7.8794   XZ=             34.9804   YZ=              6.7003

 Normal termination of Gaussian 09 at Mon Jul  8 07:25:13 2019.
