 Gaussian 09, Revision D.01,
 Gaussian 09:  ES64L-G09RevD.01 24-Apr-2013

 --------------------------
 # td=(NStates=1) B3LYP/SVP
 --------------------------

 --
 TD
 --
 Symbolic Z-matrix:
 Charge =  0 Multiplicity = 1

                         Standard orientation:
 ---------------------------------------------------------------------
 Center     Atomic      Atomic             Coordinates (Angstroms)
 Number     Number       Type             X           Y           Z
 ---------------------------------------------------------------------
      1          8           0        5.303531   -0.405970   -3.286476
      2          8           0       -2.990306   -3.045703    3.172563
      3          8           0       -3.351225   -0.814789    3.024611
      4          8           0       -1.537954    7.277404    1.323495
      5          8           0        0.019056    6.741535   -0.273855
      6          8           0       -2.104903   -4.025186   -0.000643
      7          7           0        2.381439    0.891828    0.575918
      8          7           0        4.351354   -0.831586   -1.257401
      9          7           0       -1.850673    0.746038   -0.437758
     10          7           0       -2.675447   -1.775905   -0.517817
     11          6           0        4.812476   -1.269868    0.090325
     12          6           0        4.503726   -0.232595    1.230192
     13          6           0        2.968641    0.057417    1.347298
     14          6           0        1.974635   -0.569412    2.146839
     15          6           0        0.757273   -0.055070    1.775055
     16          6           0        1.036218    0.911932    0.759225
     17          6           0        6.336816   -1.427742   -0.150298
     18          6           0       -0.654719   -0.272875    2.342827
     19          6           0        6.657184   -1.096486   -1.307635
     20          6           0        0.295957    1.893957    0.066944
     21          6           0       -1.000636    1.824490   -0.360297
     22          6           0        5.387086   -0.696454   -2.074611
     23          6           0       -1.798804    2.946233   -0.919434
     24          6           0        2.075524   -1.602486    3.239673
     25          6           0        7.239906   -1.967442    0.980951
     26          6           0       -3.003095    2.450355   -1.364749
     27          6           0       -1.107387   -1.665075    2.381892
     28          6           0       -3.008161    1.073002   -1.091661
     29          6           0       -1.344439    4.334970   -0.850733
     30          6           0        7.865711   -0.998436   -2.113747
     31          6           0       -1.563838    5.071421    0.490632
     32          6           0       -4.191222    3.199376   -1.898971
     33          6           0       -4.046500    0.067600   -1.269779
     34          6           0       -2.517380   -1.716789    2.958938
     35          6           0       -3.894201   -1.319386   -0.957308
     36          6           0        9.109954   -1.088474   -1.649258
     37          6           0       -0.943962    6.434312    0.462138
     38          6           0       -4.833703   -2.469862   -1.312777
     39          6           0       -4.258129   -3.599538   -1.000127
     40          6           0       -2.829812   -3.194286   -0.411407
     41          6           0       -6.217019   -2.168403   -1.870849
     42          6           0       -4.656324   -5.024557   -1.080779
     43          6           0       -6.928920   -3.100298   -2.521353
     44          1           0        4.290370   -2.464906    0.166607
     45          1           0        5.036941    0.585736    0.898871
     46          1           0        5.028559   -0.329983    2.358694
     47          1           0        2.918952    1.392057   -0.149425
     48          1           0        3.629527   -0.726098   -1.708381
     49          1           0       -0.595019    0.302042    3.315831
     50          1           0       -1.390398    0.364805    1.806656
     51          1           0        0.798514    2.628545   -0.198178
     52          1           0        3.095084   -1.611958    3.701390
     53          1           0        1.497403   -1.273788    4.203519
     54          1           0        1.797522   -2.787720    2.890175
     55          1           0        6.443819   -2.748240    1.594868
     56          1           0        7.517692   -1.071457    1.602437
     57          1           0        8.025144   -2.332039    0.528374
     58          1           0       -0.968141   -2.270640    1.414256
     59          1           0       -0.343766   -2.296754    2.991826
     60          1           0       -1.619148   -0.158115   -0.271922
     61          1           0       -1.654799    4.888124   -1.721848
     62          1           0       -0.220594    4.405405   -1.036456
     63          1           0        7.741120   -0.872542   -3.180308
     64          1           0       -1.085932    4.526534    1.229927
     65          1           0       -2.582969    4.943010    0.627337
     66          1           0       -4.060217    4.291326   -1.910334
     67          1           0       -5.165396    3.031566   -1.378183
     68          1           0       -4.332180    2.981282   -3.035777
     69          1           0       -4.887127    0.404158   -1.877368
     70          1           0        9.297679   -1.080021   -0.566383
     71          1           0       10.181983   -1.002843   -2.135977
     72          1           0       -3.878524   -2.993565    3.466136
     73          1           0       -6.544951   -1.105059   -1.861584
     74          1           0       -4.343248   -5.296031   -2.239403
     75          1           0       -3.917104   -5.601528   -0.473389
     76          1           0       -5.633143   -5.224763   -0.804712
     77          1           0       -1.118258    8.152480    1.284989
     78          1           0       -7.696616   -2.843271   -3.320462
     79          1           0       -6.752215   -4.213881   -2.832892
 ---------------------------------------------------------------------

 SCF Done:  E(RB3LYP) =  -1947.82627000     A.U. after   16 cycles

 Excitation energies and oscillator strengths:

 Excited State   1:      Singlet-A      2.2148 eV  559.80 nm  f=0.5255  <S**2>=0.000
     155 ->156         0.70287
     155 <-156        -0.12589
 This state for optimization and/or second-order correction.
 Total Energy, E(TD-HF/TD-KS) =  -1947.74487730
 Copying the excited state density for this state as the 1-particle RhoCI density.

 The electronic state is 1-A.
 Alpha  occ. eigenvalues --  -19.20129 -19.14943 -19.13710 -19.11995 -19.10482
 Alpha  occ. eigenvalues --  -19.10013 -14.40009 -14.35757 -14.35640 -14.28685
 Alpha  occ. eigenvalues --  -10.33756 -10.31319 -10.28759 -10.28387 -10.26049
 Alpha  occ. eigenvalues --  -10.24618 -10.24417 -10.24128 -10.23759 -10.23186
 Alpha  occ. eigenvalues --  -10.22640 -10.22097 -10.21867 -10.21637 -10.21103
 Alpha  occ. eigenvalues --  -10.20929 -10.20655 -10.20579 -10.20523 -10.20463
 Alpha  occ. eigenvalues --  -10.20442 -10.20339 -10.20272 -10.20085 -10.19722
 Alpha  occ. eigenvalues --  -10.19550 -10.19540 -10.19435 -10.19373 -10.18944
 Alpha  occ. eigenvalues --  -10.18838 -10.18586 -10.17958  -1.10534  -1.05931
 Alpha  occ. eigenvalues --   -1.03156  -1.03106  -1.02627  -1.00476  -0.98799
 Alpha  occ. eigenvalues --   -0.97625  -0.95109  -0.89776  -0.85143  -0.83497
 Alpha  occ. eigenvalues --   -0.82946  -0.82021  -0.79891  -0.79285  -0.78765
 Alpha  occ. eigenvalues --   -0.77505  -0.76809  -0.75442  -0.74111  -0.73102
 Alpha  occ. eigenvalues --   -0.72171  -0.71203  -0.69638  -0.69438  -0.68420
 Alpha  occ. eigenvalues --   -0.67004  -0.66325  -0.64130  -0.62450  -0.61932
 Alpha  occ. eigenvalues --   -0.60662  -0.59964  -0.58982  -0.58015  -0.57737
 Alpha  occ. eigenvalues --   -0.56727  -0.56205  -0.55323  -0.54700  -0.53315
 Alpha  occ. eigenvalues --   -0.52657  -0.51825  -0.51095  -0.50844  -0.50238
 Alpha  occ. eigenvalues --   -0.49617  -0.49085  -0.48908  -0.48547  -0.48128
 Alpha  occ. eigenvalues --   -0.47285  -0.46847  -0.46332  -0.45624  -0.45439
 Alpha  occ. eigenvalues --   -0.45318  -0.44682  -0.44376  -0.43834  -0.43669
 Alpha  occ. eigenvalues --   -0.43584  -0.43300  -0.43133  -0.42731  -0.42303
 Alpha  occ. eigenvalues --   -0.42206  -0.41655  -0.41483  -0.41305  -0.40805
 Alpha  occ. eigenvalues --   -0.40720  -0.40438  -0.40244  -0.40088  -0.39776
 Alpha  occ. eigenvalues --   -0.39569  -0.39397  -0.38979  -0.38730  -0.38341
 Alpha  occ. eigenvalues --   -0.37945  -0.37827  -0.37649  -0.37019  -0.36652
 Alpha  occ. eigenvalues --   -0.36311  -0.36149  -0.35398  -0.34663  -0.34574
 Alpha  occ. eigenvalues --   -0.34173  -0.33414  -0.33185  -0.32798  -0.31510
 Alpha  occ. eigenvalues --   -0.30812  -0.30133  -0.29253  -0.28612  -0.27447
 Alpha  occ. eigenvalues --   -0.27165  -0.26973  -0.26077  -0.25988  -0.25793
 Alpha  occ. eigenvalues --   -0.25459  -0.23846  -0.23031  -0.21915  -0.18560
 Alpha virt. eigenvalues --   -0.10179  -0.05145  -0.04798  -0.01589  -0.00560
 Alpha virt. eigenvalues --   -0.00120   0.00768   0.01384   0.02379   0.02694
 Alpha virt. eigenvalues --    0.03476   0.03994   0.04469   0.04662   0.05023

 Mulliken charges:
               1
     1  O   -0.266053
     2  O   -0.219471
     3  O   -0.240010
     4  O   -0.164806
     5  O   -0.262112
     6  O   -0.164755
     7  N    0.043561
     8  N   -0.045710
     9  N   -0.002011
    10  N   -0.335123
    11  C    0.055589
    12  C    0.187707
    13  C   -0.140015
    14  C   -0.135181
    15  C   -0.069086
    16  C    0.041880
    17  C   -0.275785
    18  C    0.086197
    19  C    0.051436
    20  C   -0.000415
    21  C    0.109637
    22  C    0.059189
    23  C   -0.086427
    24  C   -0.004404
    25  C    0.120983
    26  C   -0.095173
    27  C   -0.026540
    28  C    0.058237
    29  C    0.022877
    30  C    0.031404
    31  C    0.127337
    32  C    0.065369
    33  C   -0.090689
    34  C    0.189995
    35  C    0.106570
    36  C   -0.079935
    37  C    0.149022
    38  C    0.042108
    39  C   -0.247965
    40  C    0.159805
    41  C    0.029928
    42  C    0.092725
    43  C   -0.099798
    44  H    0.068871
    45  H   -0.041319
    46  H    0.059962
    47  H    0.127949
    48  H    0.031627
    49  H    0.016824
    50  H    0.014546
    51  H   -0.142843
    52  H   -0.004624
    53  H    0.039118
    54  H    0.073190
    55  H    0.053785
    56  H    0.043296
    57  H   -0.002306
    58  H    0.088039
    59  H    0.026753
    60  H    0.089882
    61  H    0.004358
    62  H    0.019322
    63  H    0.012252
    64  H    0.012671
    65  H    0.008603
    66  H    0.004317
    67  H    0.041632
    68  H    0.036872
    69  H   -0.027601
    70  H    0.004255
    71  H    0.050150
    72  H    0.157527
    73  H    0.011141
    74  H    0.046312
    75  H    0.029130
    76  H    0.018894
    77  H    0.187401
    78  H    0.021582
    79  H    0.038340
 Sum of Mulliken charges =   0.00000

 Dipole moment (field-independent basis, Debye):
    X=              2.6642    Y=              4.3594    Z=              3.3806  Tot=              6.1262
 Quadrupole moment (field-independent basis, Debye-Ang):
   XX=           -226.9087   YY=           -242.0968   ZZ=           -262.1841
   XY=            -13.8871   XZ=             34.1352   YZ=              4.4023

 Normal termination of Gaussian 09 at Sun Jul  7 19:53:38 2019.
