 Gaussian 09, Revision D.01,
 Gaussian 09:  ES64L-G09RevD.01 24-Apr-2013

 --------------------------
 # td=(NStates=1) B3LYP/SVP
 --------------------------

 --
 TD
 --
 Symbolic Z-matrix:
 Charge =  0 Multiplicity = 1

                         Standard orientation:
 ---------------------------------------------------------------------
 Center     Atomic      Atomic             Coordinates (Angstroms)
 Number     Number       Type             X           Y           Z
 ---------------------------------------------------------------------
      1          8           0        5.406521   -0.169450   -3.361823
      2          8           0       -2.847145   -3.304614    2.854521
      3          8           0       -3.196034   -1.021949    3.396467
      4          8           0       -1.698410    7.220148    1.504596
      5          8           0       -0.690486    7.060554   -0.581278
      6          8           0       -1.811289   -3.970297   -0.261085
      7          7           0        2.359032    0.955579    0.660855
      8          7           0        4.510319   -0.602446   -1.308090
      9          7           0       -1.895828    0.653047   -0.361990
     10          7           0       -2.730891   -1.811126   -0.485595
     11          6           0        4.835296   -1.075955   -0.071235
     12          6           0        4.400416   -0.205147    1.132159
     13          6           0        3.014515    0.047234    1.459088
     14          6           0        1.944186   -0.686520    2.227378
     15          6           0        0.715212   -0.054324    1.873224
     16          6           0        0.978022    0.976561    0.897582
     17          6           0        6.385781   -1.299313   -0.148728
     18          6           0       -0.538032   -0.304664    2.613567
     19          6           0        6.657493   -0.848296   -1.370719
     20          6           0        0.106759    1.901718    0.236901
     21          6           0       -1.156866    1.805679   -0.249172
     22          6           0        5.477299   -0.446250   -2.186082
     23          6           0       -1.913826    2.825145   -0.806679
     24          6           0        2.298309   -1.720813    3.293761
     25          6           0        7.226991   -1.893588    0.874950
     26          6           0       -3.201748    2.336878   -1.242518
     27          6           0       -1.004690   -1.773433    2.503595
     28          6           0       -3.168432    0.952344   -0.880438
     29          6           0       -1.520094    4.314708   -0.896930
     30          6           0        7.977176   -0.774666   -2.038809
     31          6           0       -1.673070    5.041339    0.400421
     32          6           0       -4.335957    3.064087   -1.847199
     33          6           0       -4.145173   -0.026366   -1.324787
     34          6           0       -2.466202   -1.904486    3.015274
     35          6           0       -3.892601   -1.316578   -1.086928
     36          6           0        9.233814   -0.772483   -1.604824
     37          6           0       -1.254734    6.613412    0.336272
     38          6           0       -4.754374   -2.512041   -1.395835
     39          6           0       -4.002483   -3.594584   -1.185646
     40          6           0       -2.709488   -3.166315   -0.507803
     41          6           0       -6.081387   -2.364704   -1.929283
     42          6           0       -4.201817   -5.099526   -1.330436
     43          6           0       -6.823606   -3.343074   -2.488862
     44          1           0        4.261384   -2.088226    0.044140
     45          1           0        4.968264    0.796691    1.010316
     46          1           0        5.013588   -0.547869    1.948507
     47          1           0        2.606818    1.386494   -0.054838
     48          1           0        3.524279   -0.617445   -1.768958
     49          1           0       -0.357492   -0.176733    3.580172
     50          1           0       -1.380555    0.280531    2.430779
     51          1           0        0.640885    2.860826   -0.037974
     52          1           0        3.554116   -1.899488    3.364067
     53          1           0        1.925579   -1.232891    4.306504
     54          1           0        1.900837   -2.677970    3.215597
     55          1           0        6.897074   -2.860465    1.398691
     56          1           0        7.369099   -1.100623    1.631416
     57          1           0        8.180254   -2.100715    0.356094
     58          1           0       -1.029627   -2.250198    1.522049
     59          1           0       -0.569626   -2.500137    3.244585
     60          1           0       -1.711587   -0.380588   -0.476388
     61          1           0       -2.225685    4.656887   -1.565039
     62          1           0       -0.482300    4.314370   -1.224196
     63          1           0        7.780073   -0.791668   -3.136352
     64          1           0       -0.950149    4.540882    1.203693
     65          1           0       -2.660457    5.093344    0.769173
     66          1           0       -4.366187    4.172925   -1.944620
     67          1           0       -5.268039    2.827705   -1.384125
     68          1           0       -4.475164    2.647304   -2.869975
     69          1           0       -5.083227    0.352726   -1.738490
     70          1           0        9.355998   -0.670420   -0.410782
     71          1           0       10.138213   -0.557737   -2.211490
     72          1           0       -3.752445   -3.275786    3.185216
     73          1           0       -6.496626   -1.384077   -1.818134
     74          1           0       -4.500366   -5.239142   -2.427495
     75          1           0       -3.370450   -5.771886   -1.019924
     76          1           0       -5.150496   -5.364759   -0.732394
     77          1           0       -1.443219    8.122965    1.508034
     78          1           0       -7.892435   -3.130123   -2.775265
     79          1           0       -6.394147   -4.491086   -2.697589
 ---------------------------------------------------------------------

 SCF Done:  E(RB3LYP) =  -1947.90512159     A.U. after   20 cycles

 Excitation energies and oscillator strengths:

 Excited State   1:      Singlet-A      1.9714 eV  628.91 nm  f=0.1528  <S**2>=0.000
     153 ->156        -0.11222
     154 ->156         0.44128
     155 ->156         0.53869
 This state for optimization and/or second-order correction.
 Total Energy, E(TD-HF/TD-KS) =  -1947.83267349
 Copying the excited state density for this state as the 1-particle RhoCI density.

 The electronic state is 1-A.
 Alpha  occ. eigenvalues --  -19.19073 -19.15723 -19.14937 -19.13196 -19.10461
 Alpha  occ. eigenvalues --  -19.08557 -14.38983 -14.36669 -14.35682 -14.27705
 Alpha  occ. eigenvalues --  -10.33350 -10.31220 -10.28477 -10.25996 -10.25462
 Alpha  occ. eigenvalues --  -10.24911 -10.24602 -10.24462 -10.24037 -10.23536
 Alpha  occ. eigenvalues --  -10.22532 -10.22423 -10.22389 -10.22358 -10.21854
 Alpha  occ. eigenvalues --  -10.21827 -10.21650 -10.21311 -10.21264 -10.21177
 Alpha  occ. eigenvalues --  -10.20710 -10.20514 -10.20272 -10.20208 -10.19938
 Alpha  occ. eigenvalues --  -10.19890 -10.19319 -10.19211 -10.19016 -10.18632
 Alpha  occ. eigenvalues --  -10.18145 -10.18008 -10.17989  -1.10826  -1.06162
 Alpha  occ. eigenvalues --   -1.04392  -1.03992  -1.00400  -0.99162  -0.98949
 Alpha  occ. eigenvalues --   -0.97733  -0.97319  -0.90379  -0.83292  -0.83190
 Alpha  occ. eigenvalues --   -0.82758  -0.82179  -0.80736  -0.79198  -0.77854
 Alpha  occ. eigenvalues --   -0.77352  -0.77002  -0.76067  -0.73643  -0.72931
 Alpha  occ. eigenvalues --   -0.72471  -0.71716  -0.70885  -0.68690  -0.68256
 Alpha  occ. eigenvalues --   -0.68115  -0.67004  -0.63969  -0.61421  -0.61052
 Alpha  occ. eigenvalues --   -0.60545  -0.59564  -0.58879  -0.57908  -0.57322
 Alpha  occ. eigenvalues --   -0.56517  -0.55128  -0.54653  -0.54384  -0.52988
 Alpha  occ. eigenvalues --   -0.52654  -0.51208  -0.50675  -0.50395  -0.49959
 Alpha  occ. eigenvalues --   -0.49302  -0.49095  -0.48875  -0.48174  -0.47654
 Alpha  occ. eigenvalues --   -0.47535  -0.47071  -0.46572  -0.46399  -0.45441
 Alpha  occ. eigenvalues --   -0.45071  -0.44913  -0.44738  -0.44024  -0.43975
 Alpha  occ. eigenvalues --   -0.43760  -0.43578  -0.43131  -0.42748  -0.42625
 Alpha  occ. eigenvalues --   -0.42376  -0.42028  -0.41883  -0.41702  -0.41652
 Alpha  occ. eigenvalues --   -0.41480  -0.40895  -0.40789  -0.40427  -0.40129
 Alpha  occ. eigenvalues --   -0.39690  -0.39390  -0.38828  -0.38748  -0.38384
 Alpha  occ. eigenvalues --   -0.38335  -0.38092  -0.37813  -0.37410  -0.37151
 Alpha  occ. eigenvalues --   -0.36784  -0.36471  -0.35745  -0.34924  -0.34721
 Alpha  occ. eigenvalues --   -0.34301  -0.33773  -0.33122  -0.33052  -0.31614
 Alpha  occ. eigenvalues --   -0.31222  -0.30988  -0.29110  -0.28471  -0.27613
 Alpha  occ. eigenvalues --   -0.27096  -0.26545  -0.25829  -0.25699  -0.25171
 Alpha  occ. eigenvalues --   -0.25105  -0.23877  -0.22299  -0.21251  -0.19546
 Alpha virt. eigenvalues --   -0.11507  -0.05852  -0.05504  -0.01243   0.00180
 Alpha virt. eigenvalues --    0.00300   0.01066   0.01393   0.02240   0.02940
 Alpha virt. eigenvalues --    0.03434   0.03793   0.04924   0.05030   0.05109

 Mulliken charges:
               1
     1  O   -0.212258
     2  O   -0.245810
     3  O   -0.211623
     4  O   -0.194940
     5  O   -0.155333
     6  O   -0.243938
     7  N    0.026484
     8  N   -0.124916
     9  N   -0.104862
    10  N   -0.330583
    11  C    0.058748
    12  C    0.125696
    13  C   -0.000468
    14  C   -0.118869
    15  C   -0.082186
    16  C    0.022904
    17  C   -0.171377
    18  C    0.250611
    19  C   -0.088720
    20  C   -0.126145
    21  C    0.169354
    22  C    0.112570
    23  C   -0.165881
    24  C    0.028796
    25  C    0.072214
    26  C   -0.127038
    27  C   -0.053051
    28  C    0.084907
    29  C    0.230675
    30  C   -0.003093
    31  C   -0.050031
    32  C    0.107262
    33  C   -0.134779
    34  C    0.148248
    35  C    0.159595
    36  C   -0.067805
    37  C    0.133522
    38  C    0.069929
    39  C   -0.218527
    40  C    0.159507
    41  C   -0.004550
    42  C    0.052915
    43  C   -0.084143
    44  H    0.027476
    45  H    0.000579
    46  H   -0.015136
    47  H    0.026094
    48  H    0.152736
    49  H   -0.047999
    50  H   -0.006615
    51  H    0.003651
    52  H    0.030440
    53  H    0.045571
    54  H    0.034819
    55  H    0.047301
    56  H    0.040199
    57  H    0.035714
    58  H    0.073052
    59  H    0.031994
    60  H    0.157987
    61  H   -0.025382
    62  H    0.007841
    63  H    0.020453
    64  H    0.051384
    65  H    0.018976
    66  H    0.026478
    67  H    0.014933
    68  H    0.027507
    69  H   -0.020525
    70  H    0.025553
    71  H    0.041375
    72  H    0.163856
    73  H   -0.030200
    74  H    0.032994
    75  H    0.045310
    76  H    0.031433
    77  H    0.162083
    78  H    0.026767
    79  H    0.048290
 Sum of Mulliken charges =   0.00000

 Dipole moment (field-independent basis, Debye):
    X=              1.6865    Y=              4.5647    Z=              3.8396  Tot=              6.1987
 Quadrupole moment (field-independent basis, Debye-Ang):
   XX=           -227.8022   YY=           -246.2778   ZZ=           -265.2359
   XY=            -17.2759   XZ=             33.1039   YZ=              1.1870

 Normal termination of Gaussian 09 at Mon Jul  8 12:06:22 2019.
