 Gaussian 09, Revision D.01,
 Gaussian 09:  ES64L-G09RevD.01 24-Apr-2013

 --------------------------
 # td=(NStates=1) B3LYP/SVP
 --------------------------

 --
 TD
 --
 Symbolic Z-matrix:
 Charge =  0 Multiplicity = 1

                         Standard orientation:
 ---------------------------------------------------------------------
 Center     Atomic      Atomic             Coordinates (Angstroms)
 Number     Number       Type             X           Y           Z
 ---------------------------------------------------------------------
      1          8           0        5.219685   -0.136667   -3.263331
      2          8           0       -2.775575   -3.131051    3.430591
      3          8           0       -3.306504   -0.976307    2.999049
      4          8           0       -1.862730    7.207329    1.557435
      5          8           0       -0.616556    6.983646   -0.393795
      6          8           0       -1.909772   -4.062802   -0.002453
      7          7           0        2.413435    0.947197    0.621020
      8          7           0        4.369931   -0.735956   -1.232756
      9          7           0       -1.815216    0.623169   -0.493559
     10          7           0       -2.598129   -1.913003   -0.590849
     11          6           0        4.940613   -1.120917   -0.023080
     12          6           0        4.424725   -0.310611    1.219502
     13          6           0        3.017973   -0.089776    1.362365
     14          6           0        2.045932   -0.661530    2.046457
     15          6           0        0.700041   -0.096621    1.650944
     16          6           0        1.025416    0.947037    0.735161
     17          6           0        6.482771   -1.183310   -0.114999
     18          6           0       -0.522374   -0.334705    2.484983
     19          6           0        6.701743   -0.809935   -1.412634
     20          6           0        0.209255    1.914396    0.103977
     21          6           0       -1.078032    1.806497   -0.343838
     22          6           0        5.486547   -0.508956   -2.134065
     23          6           0       -1.799411    2.886673   -0.721981
     24          6           0        2.248059   -1.863183    2.945771
     25          6           0        7.428408   -1.838960    0.985219
     26          6           0       -3.072235    2.396486   -1.167904
     27          6           0       -1.110584   -1.783676    2.459587
     28          6           0       -3.020091    0.977968   -0.977825
     29          6           0       -1.486432    4.411937   -0.833669
     30          6           0        7.983725   -0.545508   -2.057626
     31          6           0       -1.965297    5.103571    0.536699
     32          6           0       -4.249028    3.115545   -1.774611
     33          6           0       -4.050072    0.005925   -1.196532
     34          6           0       -2.485249   -1.836839    2.946252
     35          6           0       -3.785250   -1.432019   -1.075748
     36          6           0        9.237532   -0.726417   -1.581976
     37          6           0       -1.418762    6.535255    0.454626
     38          6           0       -4.725862   -2.484447   -1.495515
     39          6           0       -4.111496   -3.717003   -1.084609
     40          6           0       -2.753642   -3.280699   -0.515764
     41          6           0       -5.993610   -2.322983   -2.241774
     42          6           0       -4.552421   -5.038530   -1.212614
     43          6           0       -6.859833   -3.237347   -2.555651
     44          1           0        4.600374   -2.107836    0.304893
     45          1           0        5.006572    0.592685    1.289505
     46          1           0        5.065186   -0.791670    2.085285
     47          1           0        2.938486    1.625028   -0.081641
     48          1           0        3.402499   -0.823171   -1.623621
     49          1           0       -0.440391    0.020867    3.541375
     50          1           0       -1.339970    0.408021    2.017491
     51          1           0        0.574874    2.919773    0.089916
     52          1           0        3.358039   -1.557439    3.563430
     53          1           0        1.122838   -2.316936    3.642782
     54          1           0        2.291702   -3.020577    2.278188
     55          1           0        6.801593   -2.466165    1.661718
     56          1           0        8.034149   -1.024569    1.268515
     57          1           0        8.189283   -2.418368    0.597515
     58          1           0       -1.114628   -2.252787    1.449250
     59          1           0       -0.348881   -2.258130    3.119997
     60          1           0       -1.470725   -0.406762   -0.342405
     61          1           0       -1.659037    4.834036   -2.092842
     62          1           0       -0.315136    4.300461   -0.872425
     63          1           0        7.764566   -0.186068   -3.055794
     64          1           0       -1.678271    4.795756    1.390496
     65          1           0       -3.192355    5.275003    0.565023
     66          1           0       -4.078287    4.179534   -1.710180
     67          1           0       -5.250193    2.985490   -1.220235
     68          1           0       -4.444065    2.564216   -2.767461
     69          1           0       -5.107501    0.321023   -1.553638
     70          1           0        9.334950   -1.085087   -0.400669
     71          1           0       10.041125   -0.534060   -2.370926
     72          1           0       -3.652180   -3.268007    3.477565
     73          1           0       -6.455838   -1.190999   -2.239364
     74          1           0       -4.534289   -5.385950   -2.221344
     75          1           0       -3.762602   -5.728128   -0.625860
     76          1           0       -5.631638   -5.099893   -0.539151
     77          1           0       -1.382997    7.930688    1.533716
     78          1           0       -7.922947   -3.145131   -3.006855
     79          1           0       -6.681179   -4.471781   -2.353979
 ---------------------------------------------------------------------

 SCF Done:  E(RB3LYP) =  -1947.70972478     A.U. after   17 cycles

 Excitation energies and oscillator strengths:

 Excited State   1:      Singlet-A      2.0680 eV  599.54 nm  f=0.3422  <S**2>=0.000
     154 ->156         0.28239
     155 ->156         0.64280
     155 <-156        -0.10860
 This state for optimization and/or second-order correction.
 Total Energy, E(TD-HF/TD-KS) =  -1947.63372708
 Copying the excited state density for this state as the 1-particle RhoCI density.

 The electronic state is 1-A.
 Alpha  occ. eigenvalues --  -19.19548 -19.14670 -19.14043 -19.11657 -19.10450
 Alpha  occ. eigenvalues --  -19.09842 -14.38631 -14.36557 -14.34798 -14.29165
 Alpha  occ. eigenvalues --  -10.33975 -10.30314 -10.28790 -10.26262 -10.25038
 Alpha  occ. eigenvalues --  -10.24949 -10.24746 -10.24569 -10.23920 -10.23911
 Alpha  occ. eigenvalues --  -10.23902 -10.23881 -10.23486 -10.22825 -10.22369
 Alpha  occ. eigenvalues --  -10.21959 -10.21686 -10.21665 -10.21249 -10.21203
 Alpha  occ. eigenvalues --  -10.21078 -10.20908 -10.20895 -10.20659 -10.20492
 Alpha  occ. eigenvalues --  -10.20276 -10.20193 -10.20143 -10.20081 -10.20040
 Alpha  occ. eigenvalues --  -10.20019 -10.19227 -10.18659  -1.12304  -1.07294
 Alpha  occ. eigenvalues --   -1.02735  -1.01531  -0.99409  -0.99095  -0.98649
 Alpha  occ. eigenvalues --   -0.97399  -0.93875  -0.90741  -0.83221  -0.82666
 Alpha  occ. eigenvalues --   -0.81760  -0.80263  -0.80202  -0.79478  -0.78656
 Alpha  occ. eigenvalues --   -0.77054  -0.76180  -0.75833  -0.74745  -0.73298
 Alpha  occ. eigenvalues --   -0.72676  -0.70790  -0.69388  -0.68720  -0.67658
 Alpha  occ. eigenvalues --   -0.66044  -0.65982  -0.63372  -0.61598  -0.60829
 Alpha  occ. eigenvalues --   -0.59832  -0.59190  -0.58104  -0.57443  -0.56821
 Alpha  occ. eigenvalues --   -0.55266  -0.54882  -0.54414  -0.52819  -0.52390
 Alpha  occ. eigenvalues --   -0.51784  -0.51382  -0.51109  -0.50668  -0.50309
 Alpha  occ. eigenvalues --   -0.49875  -0.49362  -0.48568  -0.48027  -0.47422
 Alpha  occ. eigenvalues --   -0.46996  -0.46532  -0.46213  -0.45867  -0.45737
 Alpha  occ. eigenvalues --   -0.45244  -0.45122  -0.44540  -0.44442  -0.43773
 Alpha  occ. eigenvalues --   -0.43472  -0.43084  -0.43028  -0.42655  -0.42308
 Alpha  occ. eigenvalues --   -0.41843  -0.41605  -0.41519  -0.41327  -0.40904
 Alpha  occ. eigenvalues --   -0.40802  -0.40434  -0.39980  -0.39622  -0.39266
 Alpha  occ. eigenvalues --   -0.39005  -0.38953  -0.38673  -0.38520  -0.38159
 Alpha  occ. eigenvalues --   -0.37798  -0.37116  -0.36427  -0.36333  -0.36064
 Alpha  occ. eigenvalues --   -0.35876  -0.35745  -0.34408  -0.34207  -0.34036
 Alpha  occ. eigenvalues --   -0.33627  -0.33412  -0.32450  -0.31619  -0.30794
 Alpha  occ. eigenvalues --   -0.30615  -0.30194  -0.29721  -0.28777  -0.27552
 Alpha  occ. eigenvalues --   -0.26903  -0.26127  -0.25881  -0.25387  -0.24726
 Alpha  occ. eigenvalues --   -0.23824  -0.23711  -0.23590  -0.21820  -0.19391
 Alpha virt. eigenvalues --   -0.11292  -0.07183  -0.06952  -0.02340  -0.00427
 Alpha virt. eigenvalues --    0.00183   0.00575   0.00771   0.01403   0.01818
 Alpha virt. eigenvalues --    0.02872   0.03309   0.03632   0.03694   0.04512

 Mulliken charges:
               1
     1  O   -0.212576
     2  O   -0.194381
     3  O   -0.191354
     4  O   -0.114531
     5  O   -0.252993
     6  O   -0.252552
     7  N   -0.161523
     8  N   -0.219906
     9  N   -0.098668
    10  N   -0.291463
    11  C    0.074034
    12  C    0.089924
    13  C    0.080744
    14  C   -0.089330
    15  C   -0.074150
    16  C    0.112496
    17  C   -0.163239
    18  C   -0.024782
    19  C   -0.090920
    20  C   -0.119735
    21  C    0.117485
    22  C    0.158389
    23  C   -0.095167
    24  C   -0.145720
    25  C    0.152861
    26  C   -0.134830
    27  C    0.037920
    28  C    0.116765
    29  C   -0.027707
    30  C    0.010714
    31  C    0.083965
    32  C    0.081523
    33  C   -0.130518
    34  C    0.129059
    35  C    0.088282
    36  C   -0.061544
    37  C    0.142241
    38  C    0.021496
    39  C   -0.172364
    40  C    0.172193
    41  C    0.020620
    42  C   -0.009620
    43  C   -0.149731
    44  H    0.004492
    45  H   -0.030599
    46  H   -0.003277
    47  H    0.154610
    48  H    0.156190
    49  H    0.025913
    50  H    0.033313
    51  H   -0.021780
    52  H    0.055730
    53  H    0.069090
    54  H    0.063006
    55  H    0.054754
    56  H    0.028408
    57  H    0.013680
    58  H    0.082748
    59  H    0.006277
    60  H    0.195657
    61  H    0.097986
    62  H    0.036317
    63  H    0.000264
    64  H   -0.012584
    65  H    0.077864
    66  H    0.015820
    67  H    0.034060
    68  H    0.049313
    69  H   -0.000796
    70  H    0.030789
    71  H    0.052793
    72  H    0.129006
    73  H    0.027076
    74  H    0.045850
    75  H    0.046293
    76  H    0.064413
    77  H    0.116674
    78  H    0.044491
    79  H    0.044753
 Sum of Mulliken charges =   0.00000

 Dipole moment (field-independent basis, Debye):
    X=              1.5503    Y=              3.6830    Z=              2.4697  Tot=              4.6975
 Quadrupole moment (field-independent basis, Debye-Ang):
   XX=           -212.5931   YY=           -247.8455   ZZ=           -268.8593
   XY=            -12.7106   XZ=             31.1456   YZ=              7.7605

 Normal termination of Gaussian 09 at Wed Jul 10 16:59:08 2019.
