 Gaussian 09, Revision D.01,
 Gaussian 09:  ES64L-G09RevD.01 24-Apr-2013

 --------------------------
 # td=(NStates=1) B3LYP/SVP
 --------------------------

 --
 TD
 --
 Symbolic Z-matrix:
 Charge =  0 Multiplicity = 1

                         Standard orientation:
 ---------------------------------------------------------------------
 Center     Atomic      Atomic             Coordinates (Angstroms)
 Number     Number       Type             X           Y           Z
 ---------------------------------------------------------------------
      1          8           0        5.616239   -0.368054   -3.314201
      2          8           0       -2.947747   -3.014114    3.255747
      3          8           0       -3.244299   -0.802645    3.135242
      4          8           0       -1.466774    7.335592    1.238293
      5          8           0       -0.058208    6.775788   -0.484293
      6          8           0       -2.075298   -4.141870   -0.214425
      7          7           0        2.379627    0.830347    0.482439
      8          7           0        4.526769   -0.773366   -1.344880
      9          7           0       -1.898314    0.684481   -0.313867
     10          7           0       -2.792761   -1.908463   -0.453699
     11          6           0        4.923265   -1.290271    0.008577
     12          6           0        4.493540   -0.344710    1.067414
     13          6           0        2.980222   -0.146256    1.254434
     14          6           0        1.991409   -0.704757    2.056086
     15          6           0        0.764684   -0.076559    1.754579
     16          6           0        1.038317    0.880073    0.766116
     17          6           0        6.442345   -1.381152   -0.153205
     18          6           0       -0.566307   -0.362248    2.567817
     19          6           0        6.784721   -0.923949   -1.358491
     20          6           0        0.181779    1.873309    0.118193
     21          6           0       -1.077558    1.831453   -0.289238
     22          6           0        5.591038   -0.625323   -2.177936
     23          6           0       -1.932099    2.910905   -0.851744
     24          6           0        2.374178   -1.713832    3.076581
     25          6           0        7.199568   -1.930615    0.973327
     26          6           0       -3.111408    2.388935   -1.138768
     27          6           0       -1.113907   -1.771672    2.381991
     28          6           0       -3.176265    1.021651   -0.771138
     29          6           0       -1.468863    4.361266   -0.728317
     30          6           0        8.069277   -0.871419   -1.981431
     31          6           0       -1.772254    5.212059    0.456734
     32          6           0       -4.489166    3.086783   -1.676272
     33          6           0       -4.154137    0.041533   -1.012073
     34          6           0       -2.526809   -1.782260    2.948121
     35          6           0       -3.926765   -1.374278   -0.932425
     36          6           0        9.232896   -0.644890   -1.351369
     37          6           0       -0.983243    6.576068    0.339403
     38          6           0       -4.842266   -2.423742   -1.380636
     39          6           0       -4.294972   -3.643053   -1.068073
     40          6           0       -2.962147   -3.282305   -0.459075
     41          6           0       -6.180135   -2.159915   -1.896538
     42          6           0       -4.670898   -5.020458   -1.349760
     43          6           0       -6.821339   -2.913478   -2.790361
     44          1           0        4.416282   -2.107481    0.299646
     45          1           0        4.805828    0.765160    0.883789
     46          1           0        4.796899   -0.638713    2.090383
     47          1           0        2.586587    1.321739   -0.344427
     48          1           0        3.588445   -0.937251   -1.668685
     49          1           0       -0.488254   -0.301136    3.649620
     50          1           0       -1.284691    0.401204    2.266453
     51          1           0        0.538040    2.848729   -0.191686
     52          1           0        3.593072   -1.670793    3.374619
     53          1           0        1.782302   -1.679656    4.105113
     54          1           0        2.182583   -2.718866    2.605864
     55          1           0        6.824780   -2.810939    1.465543
     56          1           0        7.462739   -1.185497    1.726822
     57          1           0        8.034904   -2.211315    0.352922
     58          1           0       -1.216052   -2.112539    1.302976
     59          1           0       -0.519212   -2.661774    2.674925
     60          1           0       -1.916364   -0.248097   -0.090278
     61          1           0       -1.992609    4.959025   -1.525959
     62          1           0       -0.382861    4.124513   -1.019538
     63          1           0        8.119075   -0.945634   -3.071332
     64          1           0       -1.397446    4.980581    1.421843
     65          1           0       -2.926764    5.356734    0.392859
     66          1           0       -4.406320    4.029064   -2.231285
     67          1           0       -5.251972    3.140724   -0.818365
     68          1           0       -5.048372    2.445825   -2.623305
     69          1           0       -5.208351    0.423993   -1.244679
     70          1           0        9.609059   -0.490706   -0.301416
     71          1           0       10.159763   -0.627198   -1.942064
     72          1           0       -3.829286   -2.881796    3.603016
     73          1           0       -6.596342   -1.130502   -1.667141
     74          1           0       -4.228249   -5.579292   -2.286237
     75          1           0       -4.285874   -5.593226   -0.366943
     76          1           0       -5.977772   -4.731179   -1.367048
     77          1           0       -1.002036    8.125395    1.065747
     78          1           0       -7.884711   -2.619917   -3.089785
     79          1           0       -6.735573   -3.929110   -3.367948
 ---------------------------------------------------------------------

 SCF Done:  E(RB3LYP) =  -1947.86977295     A.U. after   17 cycles

 Excitation energies and oscillator strengths:

 Excited State   1:      Singlet-A      2.1325 eV  581.41 nm  f=0.2834  <S**2>=0.000
     153 ->156        -0.15701
     154 ->156         0.32267
     155 ->156         0.60179
 This state for optimization and/or second-order correction.
 Total Energy, E(TD-HF/TD-KS) =  -1947.79140661
 Copying the excited state density for this state as the 1-particle RhoCI density.

 The electronic state is 1-A.
 Alpha  occ. eigenvalues --  -19.22180 -19.16957 -19.14014 -19.10983 -19.09989
 Alpha  occ. eigenvalues --  -19.09834 -14.37831 -14.35651 -14.34693 -14.28995
 Alpha  occ. eigenvalues --  -10.33883 -10.30514 -10.27582 -10.26003 -10.24666
 Alpha  occ. eigenvalues --  -10.24447 -10.23595 -10.23541 -10.22961 -10.22944
 Alpha  occ. eigenvalues --  -10.22815 -10.22155 -10.21774 -10.21753 -10.21737
 Alpha  occ. eigenvalues --  -10.21691 -10.21513 -10.21441 -10.21425 -10.21358
 Alpha  occ. eigenvalues --  -10.20803 -10.20454 -10.19941 -10.19929 -10.19727
 Alpha  occ. eigenvalues --  -10.19718 -10.19453 -10.19448 -10.19384 -10.19187
 Alpha  occ. eigenvalues --  -10.19099 -10.18906 -10.18654  -1.15885  -1.08889
 Alpha  occ. eigenvalues --   -1.05037  -1.01186  -0.99268  -0.98899  -0.98421
 Alpha  occ. eigenvalues --   -0.97854  -0.94144  -0.91879  -0.83438  -0.82968
 Alpha  occ. eigenvalues --   -0.81818  -0.81135  -0.80397  -0.79897  -0.78873
 Alpha  occ. eigenvalues --   -0.77303  -0.76320  -0.75880  -0.74518  -0.72365
 Alpha  occ. eigenvalues --   -0.72007  -0.71040  -0.69723  -0.68955  -0.68507
 Alpha  occ. eigenvalues --   -0.66424  -0.65604  -0.63900  -0.62672  -0.61589
 Alpha  occ. eigenvalues --   -0.60189  -0.58763  -0.58618  -0.58082  -0.56949
 Alpha  occ. eigenvalues --   -0.56467  -0.55829  -0.55320  -0.53628  -0.53103
 Alpha  occ. eigenvalues --   -0.52184  -0.51917  -0.51714  -0.51619  -0.51122
 Alpha  occ. eigenvalues --   -0.49737  -0.49148  -0.49003  -0.48312  -0.47278
 Alpha  occ. eigenvalues --   -0.47005  -0.46934  -0.46829  -0.45850  -0.45568
 Alpha  occ. eigenvalues --   -0.45101  -0.44958  -0.44586  -0.44486  -0.44040
 Alpha  occ. eigenvalues --   -0.43696  -0.43392  -0.42860  -0.42649  -0.42500
 Alpha  occ. eigenvalues --   -0.42202  -0.41837  -0.41581  -0.41422  -0.40909
 Alpha  occ. eigenvalues --   -0.40615  -0.40336  -0.40088  -0.39879  -0.39706
 Alpha  occ. eigenvalues --   -0.39517  -0.38908  -0.38409  -0.38131  -0.37880
 Alpha  occ. eigenvalues --   -0.37666  -0.36880  -0.36675  -0.36417  -0.36333
 Alpha  occ. eigenvalues --   -0.36072  -0.35712  -0.35246  -0.34284  -0.33946
 Alpha  occ. eigenvalues --   -0.33619  -0.33030  -0.32607  -0.32146  -0.31773
 Alpha  occ. eigenvalues --   -0.30708  -0.30660  -0.28994  -0.28707  -0.27166
 Alpha  occ. eigenvalues --   -0.26954  -0.26828  -0.26698  -0.25786  -0.25014
 Alpha  occ. eigenvalues --   -0.24393  -0.23946  -0.23531  -0.22037  -0.19451
 Alpha virt. eigenvalues --   -0.10848  -0.06032  -0.04902  -0.00950  -0.00594
 Alpha virt. eigenvalues --    0.01314   0.01744   0.01882   0.02548   0.03024
 Alpha virt. eigenvalues --    0.04103   0.04324   0.05032   0.05371   0.05713

 Mulliken charges:
               1
     1  O   -0.158245
     2  O   -0.149990
     3  O   -0.263185
     4  O   -0.051892
     5  O   -0.264953
     6  O   -0.249866
     7  N   -0.038842
     8  N   -0.212421
     9  N   -0.063204
    10  N   -0.272256
    11  C    0.193985
    12  C    0.151990
    13  C   -0.111068
    14  C   -0.092025
    15  C   -0.081830
    16  C    0.041681
    17  C   -0.140640
    18  C    0.135323
    19  C   -0.047327
    20  C   -0.059874
    21  C    0.077406
    22  C    0.123648
    23  C   -0.055170
    24  C   -0.021812
    25  C    0.107382
    26  C   -0.076487
    27  C   -0.032989
    28  C    0.054771
    29  C    0.050663
    30  C   -0.007235
    31  C    0.018431
    32  C   -0.013048
    33  C   -0.103313
    34  C    0.121852
    35  C    0.097536
    36  C   -0.072343
    37  C    0.100036
    38  C    0.027737
    39  C   -0.122333
    40  C    0.154235
    41  C   -0.013962
    42  C   -0.071495
    43  C   -0.097529
    44  H   -0.038889
    45  H    0.009143
    46  H   -0.001904
    47  H    0.104920
    48  H    0.117315
    49  H    0.000765
    50  H    0.011568
    51  H   -0.035891
    52  H    0.031174
    53  H    0.043053
    54  H    0.046677
    55  H    0.014943
    56  H    0.041457
    57  H    0.023293
    58  H    0.076502
    59  H    0.017250
    60  H    0.090446
    61  H    0.012847
    62  H    0.044199
    63  H    0.022375
    64  H    0.024901
    65  H    0.058544
    66  H    0.024696
    67  H    0.057656
    68  H    0.044531
    69  H    0.000481
    70  H    0.027146
    71  H    0.016370
    72  H    0.162544
    73  H    0.020364
    74  H    0.078261
    75  H    0.061820
    76  H    0.052875
    77  H    0.152357
    78  H    0.019032
    79  H    0.055836
 Sum of Mulliken charges =   0.00000

 Dipole moment (field-independent basis, Debye):
    X=             -0.5112    Y=              4.3456    Z=              3.1978  Tot=              5.4195
 Quadrupole moment (field-independent basis, Debye-Ang):
   XX=           -224.8267   YY=           -234.9232   ZZ=           -262.2912
   XY=            -19.4682   XZ=             31.7457   YZ=              4.5569

 Normal termination of Gaussian 09 at Tue Jul  9 22:37:34 2019.
