 Gaussian 09, Revision D.01,
 Gaussian 09:  ES64L-G09RevD.01 24-Apr-2013

 --------------------------
 # td=(NStates=1) B3LYP/SVP
 --------------------------

 --
 TD
 --
 Symbolic Z-matrix:
 Charge =  0 Multiplicity = 1

                         Standard orientation:
 ---------------------------------------------------------------------
 Center     Atomic      Atomic             Coordinates (Angstroms)
 Number     Number       Type             X           Y           Z
 ---------------------------------------------------------------------
      1          8           0        5.335158   -0.725427   -3.436603
      2          8           0       -2.782853   -3.131931    3.479527
      3          8           0       -3.316370   -0.990149    3.312638
      4          8           0       -1.240729    7.208796    1.486164
      5          8           0       -0.246550    6.821011   -0.530873
      6          8           0       -2.123463   -4.021486   -0.023585
      7          7           0        2.316297    1.025511    0.601246
      8          7           0        4.354152   -0.952440   -1.371086
      9          7           0       -1.967703    0.782256   -0.376780
     10          7           0       -2.676009   -1.770658   -0.491755
     11          6           0        4.803902   -1.315012    0.038248
     12          6           0        4.405789   -0.178344    1.097587
     13          6           0        2.946542    0.027003    1.224528
     14          6           0        1.965283   -0.702548    2.039415
     15          6           0        0.733093   -0.149389    1.716751
     16          6           0        0.962933    0.884845    0.775634
     17          6           0        6.303860   -1.273521   -0.169383
     18          6           0       -0.548673   -0.267099    2.521259
     19          6           0        6.625520   -1.095633   -1.428745
     20          6           0        0.101993    1.844418    0.166332
     21          6           0       -1.157184    1.815196   -0.321072
     22          6           0        5.412178   -0.849650   -2.238631
     23          6           0       -1.930086    2.959811   -0.810386
     24          6           0        2.364740   -1.577356    3.157981
     25          6           0        7.279610   -1.696931    0.907077
     26          6           0       -3.214072    2.458254   -1.173981
     27          6           0       -1.088076   -1.686487    2.552778
     28          6           0       -3.111269    1.069394   -0.972116
     29          6           0       -1.486160    4.382379   -0.934966
     30          6           0        7.956762   -0.954089   -2.052645
     31          6           0       -1.615225    5.121159    0.426532
     32          6           0       -4.312392    3.340826   -1.834230
     33          6           0       -3.964659    0.015011   -1.325263
     34          6           0       -2.469519   -1.837583    3.122518
     35          6           0       -3.785438   -1.328133   -1.063521
     36          6           0        9.187309   -0.619341   -1.398136
     37          6           0       -1.007244    6.423915    0.327747
     38          6           0       -4.866753   -2.445080   -1.326868
     39          6           0       -4.185122   -3.628719   -1.033808
     40          6           0       -2.914985   -3.211572   -0.551294
     41          6           0       -6.110352   -2.180490   -1.977578
     42          6           0       -4.595878   -4.975553   -1.233113
     43          6           0       -6.754204   -3.134039   -2.711698
     44          1           0        4.344921   -2.368048    0.213125
     45          1           0        4.899565    0.799264    0.891508
     46          1           0        4.853319   -0.493593    2.065096
     47          1           0        2.646090    1.421915   -0.354858
     48          1           0        3.439258   -1.093995   -1.790282
     49          1           0       -0.217237    0.051744    3.474676
     50          1           0       -1.291150    0.281240    2.103382
     51          1           0        0.651959    2.810877    0.044200
     52          1           0        3.556346   -1.649588    3.290010
     53          1           0        1.927193   -1.350978    4.018889
     54          1           0        1.978862   -2.771401    3.085927
     55          1           0        6.946157   -2.306877    1.747251
     56          1           0        7.827454   -0.742989    1.510927
     57          1           0        8.072300   -2.324308    0.627275
     58          1           0       -1.265100   -2.019619    1.518589
     59          1           0       -0.385936   -2.625691    3.092585
     60          1           0       -1.685764   -0.183507   -0.092344
     61          1           0       -1.987500    4.890292   -1.816580
     62          1           0       -0.618866    4.391833   -1.220464
     63          1           0        8.142152   -1.132937   -3.175857
     64          1           0       -1.132027    4.508024    1.179677
     65          1           0       -2.806147    5.361691    0.600567
     66          1           0       -4.201943    4.206665   -1.887294
     67          1           0       -5.237095    3.150161   -1.105919
     68          1           0       -4.539403    2.920723   -2.741400
     69          1           0       -4.960915    0.510264   -1.758176
     70          1           0        9.546339   -0.188999   -0.269937
     71          1           0       10.035683   -0.794979   -2.073800
     72          1           0       -3.669946   -3.175014    3.650534
     73          1           0       -6.501014   -1.187039   -1.839960
     74          1           0       -4.414680   -5.338545   -2.218575
     75          1           0       -3.895869   -5.702949   -0.760371
     76          1           0       -5.891950   -5.001888   -1.036442
     77          1           0       -0.881879    8.139778    1.468025
     78          1           0       -7.791865   -3.203980   -3.161437
     79          1           0       -6.273338   -4.080605   -3.209788
 ---------------------------------------------------------------------

 SCF Done:  E(RB3LYP) =  -1947.77912284     A.U. after   23 cycles

 Excitation energies and oscillator strengths:

 Excited State   1:      Singlet-A      2.0926 eV  592.48 nm  f=0.5155  <S**2>=0.000
     155 ->156         0.69558
     155 <-156        -0.11782
 This state for optimization and/or second-order correction.
 Total Energy, E(TD-HF/TD-KS) =  -1947.70222041
 Copying the excited state density for this state as the 1-particle RhoCI density.

 The electronic state is 1-A.
 Alpha  occ. eigenvalues --  -19.17317 -19.14876 -19.13795 -19.10883 -19.09916
 Alpha  occ. eigenvalues --  -19.09345 -14.39903 -14.36158 -14.35388 -14.29364
 Alpha  occ. eigenvalues --  -10.32895 -10.30397 -10.28102 -10.27069 -10.25718
 Alpha  occ. eigenvalues --  -10.23996 -10.23941 -10.23490 -10.22997 -10.22971
 Alpha  occ. eigenvalues --  -10.22866 -10.22771 -10.22368 -10.22281 -10.22225
 Alpha  occ. eigenvalues --  -10.21723 -10.21526 -10.21241 -10.21118 -10.21091
 Alpha  occ. eigenvalues --  -10.21074 -10.20714 -10.20411 -10.20349 -10.20336
 Alpha  occ. eigenvalues --  -10.20173 -10.19977 -10.19764 -10.19418 -10.19225
 Alpha  occ. eigenvalues --  -10.19181 -10.19036 -10.18768  -1.07861  -1.07749
 Alpha  occ. eigenvalues --   -1.03020  -1.01201  -1.00374  -0.99719  -0.99375
 Alpha  occ. eigenvalues --   -0.98351  -0.93626  -0.90945  -0.83502  -0.82833
 Alpha  occ. eigenvalues --   -0.82547  -0.82079  -0.81017  -0.80037  -0.78671
 Alpha  occ. eigenvalues --   -0.77314  -0.76654  -0.75582  -0.74206  -0.73429
 Alpha  occ. eigenvalues --   -0.71996  -0.71480  -0.70689  -0.69729  -0.68682
 Alpha  occ. eigenvalues --   -0.67913  -0.66858  -0.64059  -0.61094  -0.60459
 Alpha  occ. eigenvalues --   -0.59772  -0.58989  -0.58948  -0.58487  -0.57882
 Alpha  occ. eigenvalues --   -0.57351  -0.56849  -0.55581  -0.54617  -0.53406
 Alpha  occ. eigenvalues --   -0.52065  -0.51641  -0.51090  -0.50546  -0.50042
 Alpha  occ. eigenvalues --   -0.49535  -0.48290  -0.47819  -0.47710  -0.47547
 Alpha  occ. eigenvalues --   -0.47156  -0.47000  -0.46646  -0.46095  -0.45838
 Alpha  occ. eigenvalues --   -0.45569  -0.45060  -0.44943  -0.44325  -0.44110
 Alpha  occ. eigenvalues --   -0.43803  -0.43359  -0.42806  -0.42619  -0.42165
 Alpha  occ. eigenvalues --   -0.41913  -0.41798  -0.41405  -0.41240  -0.41033
 Alpha  occ. eigenvalues --   -0.40497  -0.40343  -0.40193  -0.39938  -0.39647
 Alpha  occ. eigenvalues --   -0.39130  -0.38886  -0.38615  -0.38551  -0.38311
 Alpha  occ. eigenvalues --   -0.38174  -0.37893  -0.37585  -0.37440  -0.37082
 Alpha  occ. eigenvalues --   -0.36819  -0.36306  -0.35430  -0.35343  -0.34650
 Alpha  occ. eigenvalues --   -0.34265  -0.33840  -0.33343  -0.32459  -0.31193
 Alpha  occ. eigenvalues --   -0.30704  -0.30217  -0.29288  -0.28913  -0.27508
 Alpha  occ. eigenvalues --   -0.26728  -0.26412  -0.26067  -0.25761  -0.25680
 Alpha  occ. eigenvalues --   -0.24391  -0.23566  -0.23475  -0.22210  -0.18493
 Alpha virt. eigenvalues --   -0.10439  -0.06746  -0.06406  -0.01720  -0.00915
 Alpha virt. eigenvalues --   -0.00191   0.00068   0.01576   0.02234   0.02417
 Alpha virt. eigenvalues --    0.03064   0.03337   0.04464   0.04768   0.05020

 Mulliken charges:
               1
     1  O   -0.208193
     2  O   -0.165932
     3  O   -0.234778
     4  O   -0.268438
     5  O   -0.215725
     6  O   -0.241098
     7  N   -0.046533
     8  N   -0.237573
     9  N    0.013924
    10  N   -0.306472
    11  C    0.099024
    12  C    0.155583
    13  C   -0.101559
    14  C   -0.089032
    15  C   -0.108394
    16  C    0.025621
    17  C   -0.151419
    18  C    0.238665
    19  C    0.017654
    20  C   -0.167447
    21  C    0.098985
    22  C    0.123414
    23  C   -0.157873
    24  C    0.051728
    25  C    0.044718
    26  C   -0.158794
    27  C   -0.094156
    28  C    0.032060
    29  C    0.251490
    30  C   -0.062188
    31  C   -0.010081
    32  C    0.298268
    33  C   -0.150093
    34  C    0.125507
    35  C    0.116034
    36  C   -0.094401
    37  C    0.155591
    38  C    0.032597
    39  C   -0.124335
    40  C    0.158846
    41  C    0.030828
    42  C    0.050615
    43  C   -0.102604
    44  H    0.062209
    45  H    0.006600
    46  H    0.013930
    47  H    0.161279
    48  H    0.128208
    49  H    0.007068
    50  H   -0.033758
    51  H   -0.003689
    52  H    0.026222
    53  H   -0.015495
    54  H    0.040031
    55  H    0.004827
    56  H    0.040784
    57  H    0.017801
    58  H    0.078807
    59  H    0.061014
    60  H    0.157067
    61  H    0.017159
    62  H   -0.098655
    63  H    0.053594
    64  H    0.056817
    65  H    0.072886
    66  H   -0.115208
    67  H    0.030100
    68  H    0.009919
    69  H   -0.010175
    70  H    0.065765
    71  H    0.031225
    72  H    0.138741
    73  H   -0.002911
    74  H    0.016632
    75  H    0.017450
    76  H    0.056871
    77  H    0.199800
    78  H    0.034337
    79  H    0.048714
 Sum of Mulliken charges =   0.00000

 Dipole moment (field-independent basis, Debye):
    X=              1.6889    Y=              3.3231    Z=              2.1134  Tot=              4.2851
 Quadrupole moment (field-independent basis, Debye-Ang):
   XX=           -219.4074   YY=           -245.7033   ZZ=           -264.7388
   XY=            -11.3845   XZ=             39.2830   YZ=              4.9210

 Normal termination of Gaussian 09 at Wed Jul 10 14:29:06 2019.
