 Gaussian 09, Revision D.01,
 Gaussian 09:  ES64L-G09RevD.01 24-Apr-2013

 --------------------------
 # td=(NStates=1) B3LYP/SVP
 --------------------------

 --
 TD
 --
 Symbolic Z-matrix:
 Charge =  0 Multiplicity = 1

                         Standard orientation:
 ---------------------------------------------------------------------
 Center     Atomic      Atomic             Coordinates (Angstroms)
 Number     Number       Type             X           Y           Z
 ---------------------------------------------------------------------
      1          8           0        5.170543   -0.209841   -3.328402
      2          8           0       -3.092191   -3.014903    3.152217
      3          8           0       -3.231353   -0.726338    2.823901
      4          8           0       -1.187049    7.596058    1.296425
      5          8           0       -0.022772    6.964626   -0.599129
      6          8           0       -2.205946   -4.174617   -0.199262
      7          7           0        2.415172    0.671971    0.567912
      8          7           0        4.369325   -0.707331   -1.266848
      9          7           0       -1.806975    0.720348   -0.382920
     10          7           0       -2.705510   -1.834400   -0.650058
     11          6           0        4.813789   -1.318516   -0.016482
     12          6           0        4.411394   -0.561962    1.234424
     13          6           0        2.927294   -0.357440    1.333727
     14          6           0        1.978833   -0.849338    2.170463
     15          6           0        0.784632   -0.147844    1.910752
     16          6           0        1.011910    0.837016    0.927700
     17          6           0        6.305928   -1.453240   -0.206583
     18          6           0       -0.517788   -0.355447    2.582868
     19          6           0        6.662388   -0.990519   -1.510771
     20          6           0        0.275859    1.815841    0.410315
     21          6           0       -0.980688    1.824554   -0.146935
     22          6           0        5.406576   -0.690935   -2.178494
     23          6           0       -1.770665    2.919217   -0.657017
     24          6           0        2.133161   -1.853830    3.267406
     25          6           0        7.174584   -2.071250    0.828275
     26          6           0       -3.018744    2.465619   -0.981628
     27          6           0       -1.115922   -1.749383    2.573320
     28          6           0       -3.053830    1.023800   -0.781037
     29          6           0       -1.347896    4.300293   -0.825524
     30          6           0        7.947389   -0.972616   -2.124002
     31          6           0       -1.471292    5.328877    0.363242
     32          6           0       -4.211839    3.269836   -1.445734
     33          6           0       -4.036331    0.118589   -1.187264
     34          6           0       -2.587655   -1.841907    2.901331
     35          6           0       -3.849043   -1.293613   -1.114401
     36          6           0        9.167487   -0.878007   -1.582447
     37          6           0       -0.794722    6.717437    0.284989
     38          6           0       -4.910661   -2.331906   -1.475708
     39          6           0       -4.205098   -3.542186   -1.298497
     40          6           0       -2.925728   -3.179829   -0.601372
     41          6           0       -6.334708   -2.067689   -1.905072
     42          6           0       -4.769937   -4.966706   -1.180763
     43          6           0       -6.867101   -3.001909   -2.885278
     44          1           0        4.440592   -2.422999    0.174447
     45          1           0        4.799745    0.327661    1.469846
     46          1           0        4.783071   -1.145604    2.147200
     47          1           0        2.824654    1.095778   -0.144424
     48          1           0        3.332100   -0.515493   -1.379783
     49          1           0       -0.672915   -0.253942    3.804898
     50          1           0       -1.401827    0.282201    2.199751
     51          1           0        0.763360    2.791482    0.171733
     52          1           0        3.178556   -1.918741    3.641408
     53          1           0        1.407954   -1.701958    4.227504
     54          1           0        1.956027   -2.954105    2.783532
     55          1           0        6.645659   -2.722009    1.597117
     56          1           0        7.630198   -1.359772    1.554854
     57          1           0        7.965717   -2.642027    0.433594
     58          1           0       -1.402135   -2.180911    1.509109
     59          1           0       -0.552562   -2.668150    3.172241
     60          1           0       -1.378867   -0.328003   -0.374736
     61          1           0       -1.674073    4.813024   -1.696394
     62          1           0       -0.366304    4.000113   -1.211754
     63          1           0        7.884630   -0.896258   -3.336913
     64          1           0       -1.038344    4.841731    1.188477
     65          1           0       -2.598322    5.409463    0.522275
     66          1           0       -3.860242    4.424602   -1.291434
     67          1           0       -5.153279    3.015788   -0.951171
     68          1           0       -4.283055    3.197429   -2.507198
     69          1           0       -4.921528    0.717894   -1.371633
     70          1           0        9.428665   -0.971501   -0.349859
     71          1           0       10.087554   -0.928666   -2.198236
     72          1           0       -4.169762   -2.813427    3.358517
     73          1           0       -6.713438   -1.132965   -1.376392
     74          1           0       -4.743145   -5.376340   -2.147141
     75          1           0       -4.281837   -5.532905   -0.457407
     76          1           0       -5.890049   -4.628196   -0.913542
     77          1           0       -0.574271    8.262437    1.168605
     78          1           0       -7.941109   -2.558844   -3.056928
     79          1           0       -6.254828   -3.830827   -3.505590
 ---------------------------------------------------------------------

 SCF Done:  E(RB3LYP) =  -1947.80446381     A.U. after   19 cycles

 Excitation energies and oscillator strengths:

 Excited State   1:      Singlet-A      2.0713 eV  598.59 nm  f=0.1730  <S**2>=0.000
     153 ->156        -0.25757
     154 ->156         0.44168
     155 ->156         0.47454
 This state for optimization and/or second-order correction.
 Total Energy, E(TD-HF/TD-KS) =  -1947.72834556
 Copying the excited state density for this state as the 1-particle RhoCI density.

 The electronic state is 1-A.
 Alpha  occ. eigenvalues --  -19.19908 -19.19195 -19.14604 -19.09929 -19.09368
 Alpha  occ. eigenvalues --  -19.08992 -14.38120 -14.36809 -14.36101 -14.29561
 Alpha  occ. eigenvalues --  -10.33770 -10.30998 -10.28773 -10.25992 -10.25864
 Alpha  occ. eigenvalues --  -10.24421 -10.24359 -10.24274 -10.23789 -10.23727
 Alpha  occ. eigenvalues --  -10.23343 -10.22662 -10.22545 -10.22125 -10.21925
 Alpha  occ. eigenvalues --  -10.21783 -10.21747 -10.21662 -10.21588 -10.21559
 Alpha  occ. eigenvalues --  -10.21490 -10.21187 -10.20830 -10.20620 -10.20600
 Alpha  occ. eigenvalues --  -10.20498 -10.20421 -10.20311 -10.19981 -10.19492
 Alpha  occ. eigenvalues --  -10.19321 -10.19184 -10.17757  -1.10890  -1.08613
 Alpha  occ. eigenvalues --   -1.03047  -1.00444  -0.98813  -0.98324  -0.97485
 Alpha  occ. eigenvalues --   -0.95869  -0.92937  -0.91276  -0.83578  -0.82996
 Alpha  occ. eigenvalues --   -0.82598  -0.82334  -0.80328  -0.78641  -0.78067
 Alpha  occ. eigenvalues --   -0.77207  -0.76581  -0.76056  -0.73592  -0.72604
 Alpha  occ. eigenvalues --   -0.72464  -0.71494  -0.69525  -0.68649  -0.68297
 Alpha  occ. eigenvalues --   -0.67299  -0.66772  -0.64055  -0.61931  -0.60886
 Alpha  occ. eigenvalues --   -0.60772  -0.59121  -0.58513  -0.58047  -0.57163
 Alpha  occ. eigenvalues --   -0.56841  -0.55072  -0.54681  -0.53948  -0.52553
 Alpha  occ. eigenvalues --   -0.52389  -0.51438  -0.50862  -0.50655  -0.50060
 Alpha  occ. eigenvalues --   -0.49598  -0.49424  -0.49024  -0.48019  -0.47383
 Alpha  occ. eigenvalues --   -0.47377  -0.46974  -0.46461  -0.46069  -0.45713
 Alpha  occ. eigenvalues --   -0.45217  -0.45008  -0.44498  -0.44050  -0.43608
 Alpha  occ. eigenvalues --   -0.43383  -0.42859  -0.42830  -0.42527  -0.42368
 Alpha  occ. eigenvalues --   -0.42195  -0.41932  -0.41895  -0.41412  -0.41310
 Alpha  occ. eigenvalues --   -0.40985  -0.40620  -0.39904  -0.39810  -0.39665
 Alpha  occ. eigenvalues --   -0.39142  -0.39046  -0.38838  -0.38460  -0.38401
 Alpha  occ. eigenvalues --   -0.38111  -0.37687  -0.37402  -0.37201  -0.37122
 Alpha  occ. eigenvalues --   -0.36744  -0.35977  -0.34340  -0.34176  -0.33617
 Alpha  occ. eigenvalues --   -0.33582  -0.32912  -0.32484  -0.32106  -0.32008
 Alpha  occ. eigenvalues --   -0.30096  -0.29435  -0.29306  -0.27992  -0.27152
 Alpha  occ. eigenvalues --   -0.25916  -0.25814  -0.25596  -0.25003  -0.24794
 Alpha  occ. eigenvalues --   -0.24281  -0.23898  -0.23050  -0.21745  -0.19478
 Alpha virt. eigenvalues --   -0.11108  -0.07417  -0.06517  -0.02543  -0.01064
 Alpha virt. eigenvalues --   -0.00012   0.00125   0.00958   0.01670   0.02333
 Alpha virt. eigenvalues --    0.02990   0.03599   0.04414   0.04747   0.05031

 Mulliken charges:
               1
     1  O   -0.277439
     2  O   -0.188242
     3  O   -0.339649
     4  O   -0.169468
     5  O   -0.197372
     6  O   -0.294114
     7  N   -0.081584
     8  N   -0.212890
     9  N   -0.130285
    10  N   -0.254565
    11  C    0.088201
    12  C    0.227514
    13  C   -0.097290
    14  C   -0.078126
    15  C    0.021038
    16  C    0.146034
    17  C   -0.149186
    18  C   -0.027153
    19  C   -0.016244
    20  C   -0.131021
    21  C    0.054342
    22  C    0.175628
    23  C   -0.063440
    24  C    0.008695
    25  C    0.078907
    26  C   -0.136005
    27  C   -0.096782
    28  C    0.077531
    29  C    0.045054
    30  C   -0.043056
    31  C    0.050551
    32  C    0.091112
    33  C   -0.089430
    34  C    0.150615
    35  C    0.130155
    36  C   -0.096748
    37  C    0.140005
    38  C   -0.037201
    39  C   -0.206572
    40  C    0.173365
    41  C   -0.034114
    42  C    0.114777
    43  C   -0.077561
    44  H    0.041373
    45  H   -0.034756
    46  H   -0.010576
    47  H    0.062731
    48  H    0.148737
    49  H    0.029371
    50  H    0.058894
    51  H   -0.002974
    52  H    0.007695
    53  H    0.055795
    54  H    0.054733
    55  H    0.018984
    56  H    0.036621
    57  H    0.028839
    58  H    0.081491
    59  H    0.046694
    60  H    0.205766
    61  H   -0.003134
    62  H    0.008121
    63  H    0.055862
    64  H    0.022008
    65  H    0.047349
    66  H    0.026854
    67  H    0.047762
    68  H    0.023312
    69  H   -0.040649
    70  H    0.042972
    71  H    0.039717
    72  H    0.247269
    73  H    0.039972
    74  H    0.008173
    75  H    0.023381
    76  H    0.037624
    77  H    0.146619
    78  H    0.051334
    79  H    0.098055
 Sum of Mulliken charges =   0.00000

 Dipole moment (field-independent basis, Debye):
    X=              1.1595    Y=              2.6153    Z=              4.5286  Tot=              5.3565
 Quadrupole moment (field-independent basis, Debye-Ang):
   XX=           -214.6376   YY=           -253.8353   ZZ=           -263.0874
   XY=            -16.5963   XZ=             32.2903   YZ=             -1.0332

 Normal termination of Gaussian 09 at Tue Jul  9 18:43:51 2019.
