 Gaussian 09, Revision D.01,
 Gaussian 09:  ES64L-G09RevD.01 24-Apr-2013

 --------------------------
 # td=(NStates=1) B3LYP/SVP
 --------------------------

 --
 TD
 --
 Symbolic Z-matrix:
 Charge =  0 Multiplicity = 1

                         Standard orientation:
 ---------------------------------------------------------------------
 Center     Atomic      Atomic             Coordinates (Angstroms)
 Number     Number       Type             X           Y           Z
 ---------------------------------------------------------------------
      1          8           0        5.421373   -0.066301   -3.227601
      2          8           0       -3.151752   -3.046478    3.055276
      3          8           0       -3.405433   -0.829882    3.260509
      4          8           0       -1.186133    7.208694    1.622191
      5          8           0       -0.002668    6.956948   -0.240060
      6          8           0       -2.197508   -3.911758   -0.100728
      7          7           0        2.406004    0.830676    0.567797
      8          7           0        4.478057   -0.586936   -1.208599
      9          7           0       -1.858101    0.749119   -0.485451
     10          7           0       -2.779950   -1.691768   -0.595401
     11          6           0        4.756946   -1.356394   -0.064160
     12          6           0        4.489360   -0.369707    1.239614
     13          6           0        3.016131   -0.168574    1.292718
     14          6           0        1.960950   -0.784307    2.042899
     15          6           0        0.777807   -0.246520    1.748859
     16          6           0        1.012803    0.743890    0.702550
     17          6           0        6.319057   -1.601658   -0.098433
     18          6           0       -0.492416   -0.328583    2.456483
     19          6           0        6.703145   -1.115374   -1.320138
     20          6           0        0.271031    1.839263   -0.037126
     21          6           0       -1.018653    1.788899   -0.460270
     22          6           0        5.500222   -0.527438   -2.093525
     23          6           0       -1.817777    3.057036   -0.900368
     24          6           0        2.185749   -1.900856    3.005367
     25          6           0        7.064642   -2.361608    0.981073
     26          6           0       -3.022378    2.590697   -1.214100
     27          6           0       -1.218715   -1.706578    2.382257
     28          6           0       -3.057218    1.078538   -1.066113
     29          6           0       -1.245102    4.429857   -0.758529
     30          6           0        8.049837   -1.031049   -2.078197
     31          6           0       -1.375751    5.112818    0.589633
     32          6           0       -4.195209    3.349202   -1.753390
     33          6           0       -4.022523    0.192549   -1.317617
     34          6           0       -2.665276   -1.770832    2.903906
     35          6           0       -3.827781   -1.221486   -1.191729
     36          6           0        9.273953   -1.161673   -1.489034
     37          6           0       -0.826616    6.511413    0.533007
     38          6           0       -4.916284   -2.366608   -1.454782
     39          6           0       -4.319744   -3.483800   -1.116021
     40          6           0       -3.007177   -3.162289   -0.591442
     41          6           0       -6.284269   -2.053241   -2.017375
     42          6           0       -4.812228   -4.843325   -1.114722
     43          6           0       -7.161418   -3.118027   -2.385219
     44          1           0        4.243721   -2.353986   -0.056953
     45          1           0        4.907591    0.648591    1.336056
     46          1           0        4.741894   -0.948110    2.081675
     47          1           0        2.846966    1.247691   -0.319678
     48          1           0        3.505595   -0.565381   -1.617601
     49          1           0       -0.380868   -0.362203    3.486062
     50          1           0       -1.130340    0.556385    2.231052
     51          1           0        0.879989    2.681493   -0.122803
     52          1           0        3.229860   -1.913355    3.272638
     53          1           0        1.613497   -1.567625    3.786552
     54          1           0        1.897891   -2.845049    2.881919
     55          1           0        6.267750   -2.898133    1.442225
     56          1           0        7.610393   -1.695369    1.779346
     57          1           0        7.871189   -2.914181    0.379785
     58          1           0       -1.324804   -2.213617    1.342687
     59          1           0       -0.856317   -2.608801    2.893215
     60          1           0       -1.670888   -0.173099   -0.211263
     61          1           0       -1.625257    4.754985   -1.635489
     62          1           0       -0.166536    4.526757   -1.035285
     63          1           0        7.840634   -0.893743   -3.230510
     64          1           0       -0.696233    4.570685    1.324420
     65          1           0       -2.261080    5.103853    1.176080
     66          1           0       -4.063090    4.501297   -1.936510
     67          1           0       -5.267939    3.133827   -1.370604
     68          1           0       -4.116237    2.853071   -2.711797
     69          1           0       -4.710671    0.516632   -1.922795
     70          1           0        9.468579   -1.150286   -0.356910
     71          1           0       10.166430   -0.931566   -2.069471
     72          1           0       -3.886132   -3.148996    3.276704
     73          1           0       -6.448653   -0.919649   -2.448089
     74          1           0       -5.099438   -5.324433   -2.114225
     75          1           0       -3.924756   -5.415293   -0.418551
     76          1           0       -5.784156   -5.010644   -0.619111
     77          1           0       -0.878632    8.208801    1.328691
     78          1           0       -7.940596   -2.953538   -2.884191
     79          1           0       -6.975059   -4.179848   -1.978844
 ---------------------------------------------------------------------

 SCF Done:  E(RB3LYP) =  -1947.77436734     A.U. after   16 cycles

 Excitation energies and oscillator strengths:

 Excited State   1:      Singlet-A      1.9251 eV  644.03 nm  f=0.3323  <S**2>=0.000
     155 ->156         0.70561
 This state for optimization and/or second-order correction.
 Total Energy, E(TD-HF/TD-KS) =  -1947.70361983
 Copying the excited state density for this state as the 1-particle RhoCI density.

 The electronic state is 1-A.
 Alpha  occ. eigenvalues --  -19.19152 -19.14456 -19.13139 -19.12179 -19.10525
 Alpha  occ. eigenvalues --  -19.10294 -14.37972 -14.36113 -14.36054 -14.30044
 Alpha  occ. eigenvalues --  -10.32376 -10.31159 -10.28677 -10.27622 -10.26005
 Alpha  occ. eigenvalues --  -10.24461 -10.23759 -10.23664 -10.23356 -10.22679
 Alpha  occ. eigenvalues --  -10.22344 -10.22245 -10.21826 -10.21743 -10.21691
 Alpha  occ. eigenvalues --  -10.21571 -10.21537 -10.21336 -10.21316 -10.20917
 Alpha  occ. eigenvalues --  -10.20853 -10.20786 -10.20391 -10.20336 -10.20238
 Alpha  occ. eigenvalues --  -10.20179 -10.19697 -10.19356 -10.19020 -10.18176
 Alpha  occ. eigenvalues --  -10.17909 -10.17334 -10.16988  -1.09862  -1.09567
 Alpha  occ. eigenvalues --   -1.03440  -1.02659  -1.00094  -0.98868  -0.97912
 Alpha  occ. eigenvalues --   -0.97069  -0.94938  -0.92555  -0.83439  -0.82076
 Alpha  occ. eigenvalues --   -0.81969  -0.81204  -0.80825  -0.79219  -0.78346
 Alpha  occ. eigenvalues --   -0.76783  -0.76085  -0.75439  -0.74489  -0.72561
 Alpha  occ. eigenvalues --   -0.71967  -0.71177  -0.69775  -0.69259  -0.69024
 Alpha  occ. eigenvalues --   -0.68477  -0.66049  -0.64293  -0.62011  -0.60911
 Alpha  occ. eigenvalues --   -0.60191  -0.59585  -0.58488  -0.57731  -0.57640
 Alpha  occ. eigenvalues --   -0.57036  -0.55726  -0.55119  -0.54243  -0.53086
 Alpha  occ. eigenvalues --   -0.52252  -0.51475  -0.50529  -0.50239  -0.49372
 Alpha  occ. eigenvalues --   -0.49025  -0.48889  -0.47753  -0.47356  -0.47247
 Alpha  occ. eigenvalues --   -0.47049  -0.46860  -0.46141  -0.45769  -0.45451
 Alpha  occ. eigenvalues --   -0.45256  -0.44833  -0.44571  -0.44397  -0.43914
 Alpha  occ. eigenvalues --   -0.43818  -0.43635  -0.43436  -0.43263  -0.42983
 Alpha  occ. eigenvalues --   -0.42661  -0.42159  -0.41742  -0.41264  -0.40969
 Alpha  occ. eigenvalues --   -0.40805  -0.40483  -0.40350  -0.40155  -0.39901
 Alpha  occ. eigenvalues --   -0.39769  -0.39592  -0.39377  -0.39006  -0.38908
 Alpha  occ. eigenvalues --   -0.38311  -0.38100  -0.37770  -0.37033  -0.36816
 Alpha  occ. eigenvalues --   -0.36561  -0.35901  -0.35557  -0.34945  -0.34421
 Alpha  occ. eigenvalues --   -0.33164  -0.33108  -0.32592  -0.32217  -0.31318
 Alpha  occ. eigenvalues --   -0.30993  -0.30133  -0.28969  -0.28623  -0.28515
 Alpha  occ. eigenvalues --   -0.27110  -0.26358  -0.25881  -0.25722  -0.25371
 Alpha  occ. eigenvalues --   -0.24775  -0.24516  -0.24183  -0.22787  -0.17920
 Alpha virt. eigenvalues --   -0.10072  -0.05919  -0.05429  -0.01660  -0.00947
 Alpha virt. eigenvalues --    0.00537   0.01194   0.01356   0.02095   0.03244
 Alpha virt. eigenvalues --    0.03536   0.04052   0.04556   0.05107   0.05547

 Mulliken charges:
               1
     1  O   -0.232472
     2  O   -0.077399
     3  O   -0.264227
     4  O   -0.229411
     5  O   -0.236782
     6  O   -0.177157
     7  N   -0.124820
     8  N   -0.163912
     9  N   -0.001416
    10  N   -0.293830
    11  C    0.018063
    12  C    0.249763
    13  C   -0.146846
    14  C   -0.139749
    15  C   -0.056609
    16  C    0.007002
    17  C   -0.168123
    18  C    0.158329
    19  C   -0.105845
    20  C   -0.119704
    21  C    0.106491
    22  C    0.134774
    23  C   -0.100538
    24  C    0.213855
    25  C    0.068249
    26  C   -0.098838
    27  C   -0.062383
    28  C    0.096877
    29  C    0.145734
    30  C   -0.007243
    31  C    0.069341
    32  C    0.018848
    33  C   -0.008660
    34  C    0.116454
    35  C    0.041346
    36  C   -0.058919
    37  C    0.119116
    38  C    0.037890
    39  C   -0.153612
    40  C    0.170420
    41  C   -0.067282
    42  C   -0.007855
    43  C    0.051852
    44  H    0.048265
    45  H    0.025978
    46  H   -0.038545
    47  H    0.145618
    48  H    0.147389
    49  H   -0.017939
    50  H    0.029904
    51  H   -0.030532
    52  H   -0.025882
    53  H   -0.027027
    54  H   -0.006096
    55  H    0.020566
    56  H    0.060486
    57  H    0.062373
    58  H    0.078914
    59  H    0.021779
    60  H    0.119347
    61  H   -0.022751
    62  H    0.012431
    63  H    0.057685
    64  H    0.051747
    65  H    0.016199
    66  H    0.040647
    67  H    0.047945
    68  H    0.033735
    69  H   -0.102652
    70  H    0.037608
    71  H    0.030501
    72  H    0.051449
    73  H    0.051216
    74  H    0.039171
    75  H    0.064410
    76  H    0.028909
    77  H    0.226297
    78  H   -0.039479
    79  H    0.039566
 Sum of Mulliken charges =   0.00000

 Dipole moment (field-independent basis, Debye):
    X=             -0.8084    Y=              0.8157    Z=              1.3537  Tot=              1.7752
 Quadrupole moment (field-independent basis, Debye-Ang):
   XX=           -221.0570   YY=           -240.1071   ZZ=           -264.4561
   XY=            -10.9019   XZ=             40.0378   YZ=              0.5540

 Normal termination of Gaussian 09 at Wed Jul 10 01:46:50 2019.
