 Gaussian 09, Revision D.01,
 Gaussian 09:  ES64L-G09RevD.01 24-Apr-2013

 --------------------------
 # td=(NStates=1) B3LYP/SVP
 --------------------------

 --
 TD
 --
 Symbolic Z-matrix:
 Charge =  0 Multiplicity = 1

                         Standard orientation:
 ---------------------------------------------------------------------
 Center     Atomic      Atomic             Coordinates (Angstroms)
 Number     Number       Type             X           Y           Z
 ---------------------------------------------------------------------
      1          8           0        5.345236    0.030942   -3.361681
      2          8           0       -2.718897   -3.270679    3.121438
      3          8           0       -3.363001   -1.059957    3.107571
      4          8           0       -1.818836    7.153478    1.554975
      5          8           0       -0.444480    6.910287   -0.254955
      6          8           0       -2.065835   -3.969142    0.078476
      7          7           0        2.376966    0.900181    0.642286
      8          7           0        4.463749   -0.604333   -1.274991
      9          7           0       -1.823937    0.596693   -0.383734
     10          7           0       -2.763573   -1.824399   -0.568499
     11          6           0        4.852923   -1.170063   -0.085730
     12          6           0        4.482166   -0.255553    1.165381
     13          6           0        2.989993   -0.070796    1.300564
     14          6           0        2.077302   -0.672855    2.105890
     15          6           0        0.777011   -0.116099    1.887802
     16          6           0        0.977858    0.842083    0.868978
     17          6           0        6.406674   -1.391403   -0.171074
     18          6           0       -0.571559   -0.356001    2.591014
     19          6           0        6.690971   -0.825471   -1.402510
     20          6           0        0.235273    1.822137    0.168959
     21          6           0       -0.993589    1.772244   -0.349939
     22          6           0        5.483099   -0.380228   -2.165628
     23          6           0       -1.854498    2.876546   -0.893577
     24          6           0        2.297820   -1.733881    3.110121
     25          6           0        7.245581   -2.007710    0.768214
     26          6           0       -3.063843    2.388058   -1.202503
     27          6           0       -0.949097   -1.821598    2.398521
     28          6           0       -3.067257    0.975168   -0.956051
     29          6           0       -1.436429    4.301225   -0.857797
     30          6           0        7.946377   -0.594081   -2.092075
     31          6           0       -1.771980    4.993236    0.475838
     32          6           0       -4.259622    3.161586   -1.681413
     33          6           0       -4.092158    0.036003   -1.291845
     34          6           0       -2.408806   -1.899337    2.917433
     35          6           0       -3.893720   -1.393896   -1.086511
     36          6           0        9.178302   -0.810591   -1.472448
     37          6           0       -1.165212    6.434387    0.553846
     38          6           0       -4.840215   -2.367843   -1.440693
     39          6           0       -4.197960   -3.586382   -1.005190
     40          6           0       -2.889852   -3.225202   -0.392163
     41          6           0       -6.170320   -1.992460   -2.037708
     42          6           0       -4.533783   -5.109245   -1.330003
     43          6           0       -6.837709   -2.925248   -2.901888
     44          1           0        4.265709   -2.109308    0.116239
     45          1           0        4.892302    0.665261    0.893824
     46          1           0        4.845814   -0.834117    2.065435
     47          1           0        2.873502    1.146646   -0.409673
     48          1           0        3.445272   -0.500045   -1.555186
     49          1           0       -0.489039   -0.027812    3.582702
     50          1           0       -1.446454    0.192937    2.056813
     51          1           0        0.671956    2.803022    0.043501
     52          1           0        3.327619   -1.727901    3.286040
     53          1           0        1.764113   -1.683726    4.111573
     54          1           0        2.049729   -2.863934    2.827129
     55          1           0        6.765991   -2.420903    1.488104
     56          1           0        7.944993   -1.176677    1.229789
     57          1           0        7.967460   -2.832627    0.380497
     58          1           0       -0.999523   -2.219788    1.272401
     59          1           0       -0.351681   -2.297298    3.102161
     60          1           0       -1.623859   -0.438027   -0.220157
     61          1           0       -1.807745    4.969989   -1.636420
     62          1           0       -0.259420    4.320486   -0.977655
     63          1           0        7.953452   -0.010457   -3.108780
     64          1           0       -1.290939    4.328676    1.286395
     65          1           0       -2.805601    4.786537    0.825326
     66          1           0       -4.334420    4.204620   -1.505832
     67          1           0       -5.139041    2.874428   -0.997648
     68          1           0       -4.491422    2.610147   -2.735656
     69          1           0       -4.998392    0.403239   -1.615349
     70          1           0        9.589190   -1.327970   -0.427193
     71          1           0        9.982511   -0.737465   -2.317045
     72          1           0       -3.668619   -3.270935    3.469957
     73          1           0       -6.645676   -1.097852   -1.761341
     74          1           0       -4.269025   -5.284605   -2.319000
     75          1           0       -3.759251   -5.786921   -0.721206
     76          1           0       -5.642141   -5.243958   -0.987912
     77          1           0       -1.217400    7.883955    1.689113
     78          1           0       -7.791492   -2.517028   -3.113460
     79          1           0       -6.416849   -3.997414   -3.164399
 ---------------------------------------------------------------------

 SCF Done:  E(RB3LYP) =  -1947.84293466     A.U. after   16 cycles

 Excitation energies and oscillator strengths:

 Excited State   1:      Singlet-A      2.0031 eV  618.98 nm  f=0.2994  <S**2>=0.000
     154 ->156         0.31254
     155 ->156         0.62584
 This state for optimization and/or second-order correction.
 Total Energy, E(TD-HF/TD-KS) =  -1947.76932385
 Copying the excited state density for this state as the 1-particle RhoCI density.

 The electronic state is 1-A.
 Alpha  occ. eigenvalues --  -19.18546 -19.15948 -19.15109 -19.12142 -19.11287
 Alpha  occ. eigenvalues --  -19.10376 -14.38700 -14.37036 -14.36006 -14.28324
 Alpha  occ. eigenvalues --  -10.33685 -10.31575 -10.29231 -10.26608 -10.25633
 Alpha  occ. eigenvalues --  -10.24922 -10.23996 -10.22963 -10.22636 -10.22606
 Alpha  occ. eigenvalues --  -10.22415 -10.22185 -10.22097 -10.21845 -10.21641
 Alpha  occ. eigenvalues --  -10.21531 -10.21493 -10.21465 -10.21299 -10.21250
 Alpha  occ. eigenvalues --  -10.21070 -10.20912 -10.20858 -10.20777 -10.20694
 Alpha  occ. eigenvalues --  -10.20485 -10.20098 -10.20094 -10.19915 -10.19810
 Alpha  occ. eigenvalues --  -10.19457 -10.18886 -10.18818  -1.10665  -1.04358
 Alpha  occ. eigenvalues --   -1.02846  -1.02569  -1.01368  -0.98912  -0.95665
 Alpha  occ. eigenvalues --   -0.95520  -0.95094  -0.92490  -0.83300  -0.82783
 Alpha  occ. eigenvalues --   -0.82099  -0.81206  -0.79575  -0.78726  -0.77785
 Alpha  occ. eigenvalues --   -0.77295  -0.76612  -0.75593  -0.73540  -0.72294
 Alpha  occ. eigenvalues --   -0.72089  -0.71097  -0.69381  -0.68690  -0.67798
 Alpha  occ. eigenvalues --   -0.66309  -0.65579  -0.64031  -0.61047  -0.60173
 Alpha  occ. eigenvalues --   -0.59576  -0.59252  -0.58676  -0.57154  -0.56402
 Alpha  occ. eigenvalues --   -0.55859  -0.55175  -0.54522  -0.54086  -0.53048
 Alpha  occ. eigenvalues --   -0.52209  -0.51782  -0.51173  -0.50826  -0.49972
 Alpha  occ. eigenvalues --   -0.49488  -0.48976  -0.47890  -0.47731  -0.47423
 Alpha  occ. eigenvalues --   -0.47314  -0.46724  -0.46452  -0.45932  -0.45496
 Alpha  occ. eigenvalues --   -0.45201  -0.44838  -0.44554  -0.44429  -0.44020
 Alpha  occ. eigenvalues --   -0.43415  -0.43295  -0.42969  -0.42563  -0.41994
 Alpha  occ. eigenvalues --   -0.41864  -0.41755  -0.41584  -0.41302  -0.40948
 Alpha  occ. eigenvalues --   -0.40875  -0.40747  -0.40134  -0.39994  -0.39750
 Alpha  occ. eigenvalues --   -0.39305  -0.39201  -0.39099  -0.38527  -0.38338
 Alpha  occ. eigenvalues --   -0.37870  -0.37761  -0.37272  -0.37187  -0.37015
 Alpha  occ. eigenvalues --   -0.36577  -0.35737  -0.35573  -0.35112  -0.34353
 Alpha  occ. eigenvalues --   -0.34185  -0.33947  -0.33828  -0.32772  -0.31515
 Alpha  occ. eigenvalues --   -0.30474  -0.30130  -0.29636  -0.28263  -0.27989
 Alpha  occ. eigenvalues --   -0.26693  -0.26453  -0.25999  -0.25883  -0.25193
 Alpha  occ. eigenvalues --   -0.24276  -0.23848  -0.23409  -0.21680  -0.19290
 Alpha virt. eigenvalues --   -0.11058  -0.07164  -0.06336  -0.01933  -0.01623
 Alpha virt. eigenvalues --   -0.00940  -0.00769   0.00185   0.01480   0.02791
 Alpha virt. eigenvalues --    0.03273   0.03944   0.04718   0.04814   0.05356

 Mulliken charges:
               1
     1  O   -0.274933
     2  O   -0.244655
     3  O   -0.292607
     4  O   -0.201231
     5  O   -0.173562
     6  O   -0.182281
     7  N   -0.133477
     8  N   -0.168448
     9  N   -0.167100
    10  N   -0.310075
    11  C    0.017860
    12  C    0.252850
    13  C   -0.125840
    14  C   -0.122538
    15  C   -0.059440
    16  C    0.084980
    17  C   -0.107650
    18  C    0.072048
    19  C   -0.066868
    20  C   -0.115284
    21  C    0.113488
    22  C    0.180186
    23  C   -0.052987
    24  C    0.057443
    25  C    0.119025
    26  C   -0.123423
    27  C    0.006136
    28  C    0.140232
    29  C    0.043238
    30  C   -0.048789
    31  C   -0.040189
    32  C    0.083485
    33  C   -0.080030
    34  C    0.178590
    35  C    0.091352
    36  C   -0.110559
    37  C    0.170580
    38  C    0.025984
    39  C   -0.216829
    40  C    0.176098
    41  C   -0.051567
    42  C    0.033868
    43  C   -0.018886
    44  H    0.017292
    45  H   -0.035229
    46  H    0.010640
    47  H    0.169498
    48  H    0.150098
    49  H    0.002348
    50  H    0.044402
    51  H   -0.019234
    52  H   -0.034580
    53  H    0.024866
    54  H    0.042588
    55  H   -0.047530
    56  H    0.055214
    57  H    0.057064
    58  H    0.127163
    59  H    0.002664
    60  H    0.172304
    61  H    0.020358
    62  H    0.032830
    63  H    0.062894
    64  H    0.037203
    65  H    0.034239
    66  H    0.014182
    67  H    0.026785
    68  H    0.062318
    69  H   -0.075686
    70  H    0.064955
    71  H    0.038699
    72  H    0.189974
    73  H    0.008492
    74  H    0.031118
    75  H    0.049334
    76  H    0.053213
    77  H    0.166042
    78  H    0.017281
    79  H    0.068011
 Sum of Mulliken charges =   0.00000

 Dipole moment (field-independent basis, Debye):
    X=              1.0216    Y=              1.4995    Z=              3.2597  Tot=              3.7307
 Quadrupole moment (field-independent basis, Debye-Ang):
   XX=           -221.6958   YY=           -249.0883   ZZ=           -265.2890
   XY=            -15.2636   XZ=             35.5893   YZ=              5.8520

 Normal termination of Gaussian 09 at Tue Jul  9 20:04:24 2019.
