 Gaussian 09, Revision D.01,
 Gaussian 09:  ES64L-G09RevD.01 24-Apr-2013

 --------------------------
 # td=(NStates=1) B3LYP/SVP
 --------------------------

 --
 TD
 --
 Symbolic Z-matrix:
 Charge =  0 Multiplicity = 1

                         Standard orientation:
 ---------------------------------------------------------------------
 Center     Atomic      Atomic             Coordinates (Angstroms)
 Number     Number       Type             X           Y           Z
 ---------------------------------------------------------------------
      1          8           0        5.305563    0.065760   -3.401547
      2          8           0       -2.826046   -2.977577    3.303787
      3          8           0       -3.144519   -0.726589    3.332386
      4          8           0       -2.072842    7.136706    1.481839
      5          8           0       -0.686773    6.983677   -0.312208
      6          8           0       -1.858548   -4.076959    0.145651
      7          7           0        2.369576    0.991176    0.540518
      8          7           0        4.400748   -0.441977   -1.286861
      9          7           0       -1.829892    0.625668   -0.415286
     10          7           0       -2.647143   -1.900289   -0.407676
     11          6           0        4.899924   -1.068161   -0.044698
     12          6           0        4.471587   -0.177589    1.237971
     13          6           0        3.078763   -0.000673    1.340831
     14          6           0        2.014645   -0.518449    2.182786
     15          6           0        0.808683   -0.017741    1.943739
     16          6           0        1.061839    0.871008    0.873891
     17          6           0        6.395688   -1.278438   -0.256430
     18          6           0       -0.529946   -0.249867    2.598121
     19          6           0        6.712208   -0.921887   -1.530097
     20          6           0        0.141217    1.873044    0.134376
     21          6           0       -1.135781    1.805908   -0.372306
     22          6           0        5.437236   -0.437659   -2.229031
     23          6           0       -1.965231    2.862204   -0.888576
     24          6           0        2.309663   -1.637793    3.055604
     25          6           0        7.213917   -1.760358    0.894955
     26          6           0       -3.144374    2.284294   -1.287208
     27          6           0       -1.098771   -1.672220    2.652247
     28          6           0       -2.984111    0.824593   -1.052662
     29          6           0       -1.605312    4.306876   -0.963335
     30          6           0        7.997126   -0.734967   -2.145573
     31          6           0       -2.061831    5.038630    0.259574
     32          6           0       -4.244897    2.836199   -2.028256
     33          6           0       -3.942463   -0.205437   -1.433113
     34          6           0       -2.468404   -1.746161    3.165744
     35          6           0       -3.674409   -1.497432   -1.032657
     36          6           0        9.209201   -0.793828   -1.444099
     37          6           0       -1.517560    6.464050    0.412701
     38          6           0       -4.625843   -2.603078   -1.528685
     39          6           0       -3.938373   -3.747784   -1.146917
     40          6           0       -2.663047   -3.323355   -0.344206
     41          6           0       -5.940248   -2.405590   -2.170296
     42          6           0       -4.418424   -5.199021   -1.182155
     43          6           0       -6.827980   -3.411335   -2.585009
     44          1           0        4.404011   -2.103293    0.386761
     45          1           0        4.992733    0.699651    1.233692
     46          1           0        4.957407   -0.730753    2.051704
     47          1           0        2.784739    1.551061   -0.193017
     48          1           0        3.468304   -0.675465   -1.474415
     49          1           0       -0.546101   -0.140854    3.650630
     50          1           0       -1.239243    0.502924    2.354359
     51          1           0        0.589962    2.749516   -0.022251
     52          1           0        3.457417   -1.824803    3.373707
     53          1           0        1.503477   -1.405359    4.035962
     54          1           0        2.152391   -2.643670    2.577065
     55          1           0        6.835402   -2.302332    1.652673
     56          1           0        7.600160   -0.910434    1.699889
     57          1           0        8.269278   -2.192256    0.799592
     58          1           0       -1.115795   -1.949963    1.518588
     59          1           0       -0.337273   -2.440684    3.071287
     60          1           0       -1.702897   -0.376087   -0.071634
     61          1           0       -1.980053    4.767401   -1.866499
     62          1           0       -0.560907    4.479033   -0.955553
     63          1           0        7.828388   -0.522209   -3.229948
     64          1           0       -1.735926    4.683997    1.194455
     65          1           0       -3.006779    4.985438    0.448971
     66          1           0       -3.985870    3.968205   -2.367985
     67          1           0       -5.111103    2.783377   -1.425272
     68          1           0       -4.573675    2.379976   -2.961636
     69          1           0       -4.832997    0.058671   -2.182118
     70          1           0        9.264733   -0.695602   -0.358101
     71          1           0       10.151612   -0.931950   -1.940932
     72          1           0       -3.770569   -3.158709    3.349710
     73          1           0       -6.232452   -1.369955   -2.256592
     74          1           0       -4.599574   -5.307984   -2.199269
     75          1           0       -3.515276   -5.989801   -0.807774
     76          1           0       -5.181091   -5.229155   -0.728066
     77          1           0       -1.637642    7.971223    1.534453
     78          1           0       -7.646933   -2.956931   -3.271254
     79          1           0       -6.523712   -4.432315   -2.558702
 ---------------------------------------------------------------------

 SCF Done:  E(RB3LYP) =  -1947.80554112     A.U. after   16 cycles

 Excitation energies and oscillator strengths:

 Excited State   1:      Singlet-A      2.1797 eV  568.82 nm  f=0.5020  <S**2>=0.000
     155 ->156         0.69767
 This state for optimization and/or second-order correction.
 Total Energy, E(TD-HF/TD-KS) =  -1947.72543912
 Copying the excited state density for this state as the 1-particle RhoCI density.

 The electronic state is 1-A.
 Alpha  occ. eigenvalues --  -19.18675 -19.18181 -19.13793 -19.11205 -19.10790
 Alpha  occ. eigenvalues --  -19.10709 -14.38904 -14.36844 -14.36312 -14.29361
 Alpha  occ. eigenvalues --  -10.33229 -10.30771 -10.29975 -10.27414 -10.26212
 Alpha  occ. eigenvalues --  -10.25068 -10.24548 -10.23994 -10.23384 -10.22695
 Alpha  occ. eigenvalues --  -10.22636 -10.22212 -10.21591 -10.21587 -10.21457
 Alpha  occ. eigenvalues --  -10.21297 -10.21161 -10.21079 -10.21023 -10.20923
 Alpha  occ. eigenvalues --  -10.20815 -10.20681 -10.20516 -10.20339 -10.20195
 Alpha  occ. eigenvalues --  -10.19888 -10.19834 -10.19537 -10.18994 -10.18915
 Alpha  occ. eigenvalues --  -10.18908 -10.18209 -10.17626  -1.10257  -1.09883
 Alpha  occ. eigenvalues --   -1.02327  -1.01187  -1.00223  -0.99746  -0.99025
 Alpha  occ. eigenvalues --   -0.97912  -0.93374  -0.93259  -0.84468  -0.82982
 Alpha  occ. eigenvalues --   -0.82652  -0.81468  -0.80375  -0.79973  -0.79291
 Alpha  occ. eigenvalues --   -0.77443  -0.76372  -0.75701  -0.74146  -0.73102
 Alpha  occ. eigenvalues --   -0.72280  -0.71610  -0.70018  -0.69359  -0.68777
 Alpha  occ. eigenvalues --   -0.68175  -0.66180  -0.63606  -0.62416  -0.61616
 Alpha  occ. eigenvalues --   -0.61246  -0.60238  -0.59389  -0.58835  -0.58125
 Alpha  occ. eigenvalues --   -0.57389  -0.56555  -0.54631  -0.54421  -0.53016
 Alpha  occ. eigenvalues --   -0.52733  -0.52247  -0.51980  -0.50922  -0.50010
 Alpha  occ. eigenvalues --   -0.49768  -0.48695  -0.48671  -0.48179  -0.47661
 Alpha  occ. eigenvalues --   -0.47283  -0.47114  -0.46870  -0.46498  -0.46064
 Alpha  occ. eigenvalues --   -0.45888  -0.45433  -0.44964  -0.44727  -0.44132
 Alpha  occ. eigenvalues --   -0.43981  -0.43163  -0.42805  -0.42727  -0.42548
 Alpha  occ. eigenvalues --   -0.42399  -0.42343  -0.42148  -0.42001  -0.41397
 Alpha  occ. eigenvalues --   -0.41348  -0.40956  -0.40861  -0.40298  -0.39983
 Alpha  occ. eigenvalues --   -0.39921  -0.39521  -0.38967  -0.38799  -0.38658
 Alpha  occ. eigenvalues --   -0.38189  -0.37684  -0.36890  -0.36708  -0.36463
 Alpha  occ. eigenvalues --   -0.36439  -0.36203  -0.35553  -0.35496  -0.35029
 Alpha  occ. eigenvalues --   -0.34520  -0.33992  -0.33281  -0.31817  -0.31546
 Alpha  occ. eigenvalues --   -0.30885  -0.30743  -0.29232  -0.28634  -0.28199
 Alpha  occ. eigenvalues --   -0.27074  -0.26532  -0.26514  -0.25956  -0.25533
 Alpha  occ. eigenvalues --   -0.24064  -0.23675  -0.22745  -0.22094  -0.19233
 Alpha virt. eigenvalues --   -0.10391  -0.07538  -0.06311  -0.01529  -0.01107
 Alpha virt. eigenvalues --   -0.00354   0.00049   0.01194   0.02042   0.03607
 Alpha virt. eigenvalues --    0.04022   0.04499   0.04848   0.05070   0.05273

 Mulliken charges:
               1
     1  O   -0.275762
     2  O   -0.119150
     3  O   -0.262858
     4  O   -0.187491
     5  O   -0.228958
     6  O   -0.184643
     7  N   -0.101940
     8  N   -0.161192
     9  N   -0.045744
    10  N   -0.271482
    11  C   -0.051042
    12  C    0.232086
    13  C   -0.037236
    14  C   -0.097761
    15  C    0.001603
    16  C    0.028651
    17  C   -0.026784
    18  C    0.136690
    19  C   -0.081497
    20  C   -0.057274
    21  C    0.104053
    22  C    0.195689
    23  C   -0.085615
    24  C   -0.051237
    25  C    0.042051
    26  C   -0.119093
    27  C   -0.106097
    28  C    0.051527
    29  C    0.195160
    30  C   -0.002226
    31  C    0.103381
    32  C    0.081462
    33  C   -0.183245
    34  C    0.140935
    35  C    0.106758
    36  C   -0.029405
    37  C    0.127039
    38  C    0.003883
    39  C   -0.268437
    40  C    0.170177
    41  C   -0.022602
    42  C    0.190198
    43  C   -0.021593
    44  H    0.041537
    45  H   -0.037714
    46  H   -0.020794
    47  H    0.126339
    48  H    0.127960
    49  H   -0.022401
    50  H   -0.005463
    51  H   -0.072222
    52  H    0.016504
    53  H    0.048902
    54  H    0.050861
    55  H   -0.020041
    56  H    0.029186
    57  H    0.038534
    58  H    0.084881
    59  H    0.042188
    60  H    0.178261
    61  H    0.013956
    62  H   -0.012771
    63  H    0.024813
    64  H    0.010968
    65  H   -0.039460
    66  H    0.028671
    67  H    0.015206
    68  H    0.030847
    69  H    0.025807
    70  H    0.029741
    71  H    0.031670
    72  H    0.183974
    73  H   -0.017570
    74  H    0.016184
    75  H    0.056822
    76  H   -0.058203
    77  H    0.167375
    78  H    0.045029
    79  H    0.009442
 Sum of Mulliken charges =   0.00000

 Dipole moment (field-independent basis, Debye):
    X=              0.4358    Y=              1.5049    Z=              2.7630  Tot=              3.1763
 Quadrupole moment (field-independent basis, Debye-Ang):
   XX=           -219.7458   YY=           -248.7247   ZZ=           -266.0014
   XY=            -13.2302   XZ=             36.2590   YZ=              1.0496

 Normal termination of Gaussian 09 at Mon Jul  8 02:30:36 2019.
