 Gaussian 09, Revision D.01,
 Gaussian 09:  ES64L-G09RevD.01 24-Apr-2013

 --------------------------
 # td=(NStates=1) B3LYP/SVP
 --------------------------

 --
 TD
 --
 Symbolic Z-matrix:
 Charge =  0 Multiplicity = 1

                         Standard orientation:
 ---------------------------------------------------------------------
 Center     Atomic      Atomic             Coordinates (Angstroms)
 Number     Number       Type             X           Y           Z
 ---------------------------------------------------------------------
      1          8           0        5.290274   -0.161207   -3.276760
      2          8           0       -2.904702   -3.181650    3.105151
      3          8           0       -3.245397   -1.018428    3.226775
      4          8           0       -1.672813    7.390117    1.328716
      5          8           0       -0.240806    6.909373   -0.364133
      6          8           0       -1.954928   -4.053833   -0.146765
      7          7           0        2.312328    0.848928    0.648216
      8          7           0        4.438554   -0.611944   -1.297480
      9          7           0       -1.899685    0.657659   -0.301086
     10          7           0       -2.750419   -1.836681   -0.533286
     11          6           0        4.818038   -1.216629   -0.058814
     12          6           0        4.453941   -0.297712    1.170866
     13          6           0        3.022865   -0.093243    1.420774
     14          6           0        2.003071   -0.747502    2.167820
     15          6           0        0.777646   -0.034954    1.801673
     16          6           0        1.023122    0.881374    0.782472
     17          6           0        6.351965   -1.382348   -0.246242
     18          6           0       -0.564445   -0.341152    2.573266
     19          6           0        6.706506   -0.970243   -1.440499
     20          6           0        0.168608    1.943030    0.167754
     21          6           0       -1.196580    1.789122   -0.203085
     22          6           0        5.488870   -0.548020   -2.151577
     23          6           0       -1.884228    2.891968   -0.763342
     24          6           0        2.301309   -1.801537    3.214770
     25          6           0        7.255284   -1.968381    0.822248
     26          6           0       -3.088452    2.375239   -1.110400
     27          6           0       -1.087364   -1.744385    2.491620
     28          6           0       -3.160902    1.006295   -0.826592
     29          6           0       -1.447784    4.396265   -0.916807
     30          6           0        7.984214   -0.737435   -2.009995
     31          6           0       -1.662474    5.133842    0.381430
     32          6           0       -4.318216    3.121371   -1.644703
     33          6           0       -4.015993   -0.029589   -1.280339
     34          6           0       -2.495049   -1.897599    2.944112
     35          6           0       -3.858673   -1.371255   -1.114559
     36          6           0        9.256413   -0.769580   -1.534094
     37          6           0       -1.136127    6.579238    0.358566
     38          6           0       -4.831656   -2.486871   -1.456763
     39          6           0       -4.133510   -3.638242   -1.165802
     40          6           0       -2.811508   -3.271716   -0.564286
     41          6           0       -6.086610   -2.212748   -2.009925
     42          6           0       -4.549536   -5.070435   -1.258754
     43          6           0       -6.801068   -2.985540   -2.731002
     44          1           0        4.296898   -2.268173    0.198779
     45          1           0        4.916277    0.753225    1.092471
     46          1           0        4.899751   -0.776558    2.144769
     47          1           0        2.883070    1.313762   -0.120199
     48          1           0        3.489062   -0.848728   -1.731339
     49          1           0       -0.402550    0.086885    3.543064
     50          1           0       -1.434999    0.263171    2.163398
     51          1           0        0.535605    2.971723   -0.002456
     52          1           0        3.362434   -2.034806    3.572136
     53          1           0        1.682533   -1.639252    4.165279
     54          1           0        2.075460   -2.808853    2.873374
     55          1           0        6.728211   -2.583994    1.481547
     56          1           0        7.665435   -1.297623    1.331713
     57          1           0        7.997116   -2.668489    0.401100
     58          1           0       -1.058189   -1.952305    1.384720
     59          1           0       -0.524187   -2.452336    2.911709
     60          1           0       -1.705427   -0.370687   -0.275836
     61          1           0       -1.997170    4.909510   -1.752267
     62          1           0       -0.424578    4.556034   -1.243543
     63          1           0        8.019579   -0.426829   -3.049793
     64          1           0       -1.304848    4.806343    1.266448
     65          1           0       -2.732631    5.198126    0.902715
     66          1           0       -4.333775    4.197136   -1.996461
     67          1           0       -5.156188    2.833282   -0.983610
     68          1           0       -4.482230    2.656102   -2.554100
     69          1           0       -4.989015    0.530912   -1.622574
     70          1           0        9.436858   -0.958854   -0.589482
     71          1           0       10.173160   -0.259751   -2.149664
     72          1           0       -3.806363   -2.970493    3.428284
     73          1           0       -6.563183   -1.305376   -1.847837
     74          1           0       -4.214674   -5.515481   -2.293151
     75          1           0       -3.863309   -5.676214   -0.324011
     76          1           0       -5.621543   -5.268185   -1.197236
     77          1           0       -1.066565    8.279407    1.540253
     78          1           0       -7.662140   -2.789179   -2.928424
     79          1           0       -6.586427   -3.967940   -3.196947
 ---------------------------------------------------------------------

 SCF Done:  E(RB3LYP) =  -1947.84856341     A.U. after   17 cycles

 Excitation energies and oscillator strengths:

 Excited State   1:      Singlet-A      2.0729 eV  598.12 nm  f=0.4492  <S**2>=0.000
     153 ->156        -0.12330
     154 ->156         0.10899
     155 ->156         0.68883
     155 <-156        -0.12312
 This state for optimization and/or second-order correction.
 Total Energy, E(TD-HF/TD-KS) =  -1947.77238542
 Copying the excited state density for this state as the 1-particle RhoCI density.

 The electronic state is 1-A.
 Alpha  occ. eigenvalues --  -19.19110 -19.16003 -19.13313 -19.10970 -19.10575
 Alpha  occ. eigenvalues --  -19.09867 -14.37961 -14.36053 -14.35576 -14.29075
 Alpha  occ. eigenvalues --  -10.32668 -10.29790 -10.28166 -10.26643 -10.26183
 Alpha  occ. eigenvalues --  -10.24420 -10.24262 -10.22980 -10.22899 -10.22885
 Alpha  occ. eigenvalues --  -10.22855 -10.22611 -10.22537 -10.22466 -10.21695
 Alpha  occ. eigenvalues --  -10.21281 -10.20748 -10.20324 -10.20296 -10.20274
 Alpha  occ. eigenvalues --  -10.20138 -10.20011 -10.19905 -10.19775 -10.19764
 Alpha  occ. eigenvalues --  -10.19718 -10.19688 -10.19403 -10.19356 -10.18471
 Alpha  occ. eigenvalues --  -10.18428 -10.17433 -10.16871  -1.09034  -1.08683
 Alpha  occ. eigenvalues --   -1.03929  -1.00458  -1.00423  -0.99375  -0.98999
 Alpha  occ. eigenvalues --   -0.98965  -0.94826  -0.91555  -0.83625  -0.82928
 Alpha  occ. eigenvalues --   -0.81667  -0.81264  -0.80109  -0.79756  -0.78509
 Alpha  occ. eigenvalues --   -0.77361  -0.76317  -0.76084  -0.74578  -0.73504
 Alpha  occ. eigenvalues --   -0.72658  -0.70990  -0.69658  -0.69006  -0.68673
 Alpha  occ. eigenvalues --   -0.66082  -0.65921  -0.64023  -0.62007  -0.61484
 Alpha  occ. eigenvalues --   -0.59747  -0.59216  -0.58695  -0.57834  -0.57042
 Alpha  occ. eigenvalues --   -0.56122  -0.55539  -0.54652  -0.54438  -0.53900
 Alpha  occ. eigenvalues --   -0.52103  -0.51787  -0.51509  -0.50894  -0.49485
 Alpha  occ. eigenvalues --   -0.49105  -0.48609  -0.48249  -0.48013  -0.47652
 Alpha  occ. eigenvalues --   -0.47283  -0.47050  -0.46787  -0.46133  -0.46024
 Alpha  occ. eigenvalues --   -0.45630  -0.45488  -0.45401  -0.44816  -0.43873
 Alpha  occ. eigenvalues --   -0.43343  -0.42945  -0.42873  -0.42689  -0.42548
 Alpha  occ. eigenvalues --   -0.42460  -0.41961  -0.41766  -0.41472  -0.41315
 Alpha  occ. eigenvalues --   -0.40799  -0.40589  -0.40173  -0.39924  -0.39749
 Alpha  occ. eigenvalues --   -0.39351  -0.38940  -0.38816  -0.38679  -0.38010
 Alpha  occ. eigenvalues --   -0.37763  -0.37688  -0.37402  -0.37347  -0.36853
 Alpha  occ. eigenvalues --   -0.36386  -0.35889  -0.35068  -0.34624  -0.34393
 Alpha  occ. eigenvalues --   -0.33960  -0.33347  -0.33088  -0.32988  -0.32576
 Alpha  occ. eigenvalues --   -0.31603  -0.30650  -0.28861  -0.28674  -0.27501
 Alpha  occ. eigenvalues --   -0.26937  -0.26858  -0.26493  -0.25849  -0.25005
 Alpha  occ. eigenvalues --   -0.24116  -0.24074  -0.23705  -0.22301  -0.19190
 Alpha virt. eigenvalues --   -0.11233  -0.06443  -0.06176  -0.00540   0.00265
 Alpha virt. eigenvalues --    0.00587   0.01287   0.01843   0.02590   0.03037
 Alpha virt. eigenvalues --    0.03911   0.04421   0.04720   0.05151   0.05933

 Mulliken charges:
               1
     1  O   -0.202066
     2  O   -0.184261
     3  O   -0.228101
     4  O   -0.274367
     5  O   -0.211383
     6  O   -0.210449
     7  N   -0.057258
     8  N   -0.172687
     9  N   -0.074848
    10  N   -0.333044
    11  C    0.044740
    12  C    0.121356
    13  C   -0.087546
    14  C   -0.088371
    15  C   -0.144003
    16  C    0.056109
    17  C   -0.208553
    18  C    0.075021
    19  C    0.041695
    20  C   -0.084749
    21  C    0.058284
    22  C    0.103977
    23  C   -0.079218
    24  C    0.043221
    25  C    0.227282
    26  C   -0.127205
    27  C    0.093875
    28  C    0.044891
    29  C    0.149970
    30  C   -0.047741
    31  C    0.012579
    32  C    0.114719
    33  C   -0.133834
    34  C    0.108780
    35  C    0.125647
    36  C   -0.016192
    37  C    0.135190
    38  C    0.151485
    39  C   -0.196205
    40  C    0.188124
    41  C   -0.032514
    42  C   -0.004276
    43  C    0.073809
    44  H    0.042315
    45  H    0.012045
    46  H    0.016450
    47  H    0.129664
    48  H    0.159532
    49  H   -0.001030
    50  H    0.014382
    51  H    0.006135
    52  H    0.010125
    53  H    0.032116
    54  H    0.023301
    55  H   -0.013368
    56  H   -0.027776
    57  H    0.033482
    58  H    0.067323
    59  H   -0.029531
    60  H    0.161836
    61  H    0.020447
    62  H    0.025167
    63  H    0.005960
    64  H   -0.002103
    65  H    0.032047
    66  H    0.026899
    67  H    0.038687
    68  H    0.000538
    69  H   -0.001684
    70  H   -0.045825
    71  H    0.055272
    72  H    0.164768
    73  H   -0.039522
    74  H    0.046186
    75  H    0.067158
    76  H    0.024238
    77  H    0.242879
    78  H   -0.077968
    79  H    0.007974
 Sum of Mulliken charges =   0.00000

 Dipole moment (field-independent basis, Debye):
    X=              1.0327    Y=              3.2341    Z=              2.6229  Tot=              4.2901
 Quadrupole moment (field-independent basis, Debye-Ang):
   XX=           -216.2678   YY=           -243.0901   ZZ=           -262.1922
   XY=            -13.5334   XZ=             35.3839   YZ=              6.2970

 Normal termination of Gaussian 09 at Tue Jul  9 20:07:27 2019.
