 Gaussian 09, Revision D.01,
 Gaussian 09:  ES64L-G09RevD.01 24-Apr-2013

 --------------------------
 # td=(NStates=1) B3LYP/SVP
 --------------------------

 --
 TD
 --
 Symbolic Z-matrix:
 Charge =  0 Multiplicity = 1

                         Standard orientation:
 ---------------------------------------------------------------------
 Center     Atomic      Atomic             Coordinates (Angstroms)
 Number     Number       Type             X           Y           Z
 ---------------------------------------------------------------------
      1          8           0        5.434760   -0.345512   -3.343559
      2          8           0       -2.990977   -2.839015    3.125962
      3          8           0       -3.178031   -0.624012    3.362083
      4          8           0       -1.296038    7.095087    1.422712
      5          8           0       -1.015823    6.944221   -0.939769
      6          8           0       -2.111019   -4.175392    0.048826
      7          7           0        2.409281    0.943536    0.461598
      8          7           0        4.487086   -0.698022   -1.166214
      9          7           0       -1.959713    0.581702   -0.350825
     10          7           0       -2.718956   -1.943870   -0.414374
     11          6           0        4.892523   -1.131178    0.037939
     12          6           0        4.504996   -0.234211    1.154734
     13          6           0        3.020471   -0.007060    1.286730
     14          6           0        2.139508   -0.483981    2.128227
     15          6           0        0.854905    0.083939    1.817969
     16          6           0        1.010287    0.890103    0.754120
     17          6           0        6.405788   -1.237750   -0.112933
     18          6           0       -0.412115   -0.200078    2.514790
     19          6           0        6.730132   -1.004536   -1.402009
     20          6           0        0.165617    1.853964    0.029985
     21          6           0       -1.098697    1.751733   -0.312756
     22          6           0        5.529577   -0.607861   -2.108383
     23          6           0       -1.944025    2.766603   -0.843823
     24          6           0        2.247400   -1.468137    3.182471
     25          6           0        7.390307   -1.645162    0.958799
     26          6           0       -3.120295    2.316076   -1.173346
     27          6           0       -1.067102   -1.572441    2.485453
     28          6           0       -3.132373    0.887364   -0.947680
     29          6           0       -1.569982    4.244745   -0.974359
     30          6           0        8.026630   -1.049116   -2.060665
     31          6           0       -1.659178    5.023931    0.435719
     32          6           0       -4.315450    3.016314   -1.775569
     33          6           0       -4.091170   -0.087009   -1.229147
     34          6           0       -2.537034   -1.581215    3.040272
     35          6           0       -3.848792   -1.475795   -0.887908
     36          6           0        9.216771   -0.870069   -1.638437
     37          6           0       -1.281700    6.471386    0.240440
     38          6           0       -4.774875   -2.571936   -1.404133
     39          6           0       -4.152595   -3.767275   -1.116181
     40          6           0       -2.775927   -3.353961   -0.534057
     41          6           0       -6.121498   -2.184386   -1.990591
     42          6           0       -4.569777   -5.153209   -1.197273
     43          6           0       -6.907774   -3.121079   -2.588569
     44          1           0        4.382188   -2.037365    0.198711
     45          1           0        5.114289    0.792951    1.281361
     46          1           0        4.751783   -0.553503    2.209169
     47          1           0        2.797320    1.508905   -0.289117
     48          1           0        3.430290   -0.716692   -1.546369
     49          1           0       -0.114332    0.068625    3.626084
     50          1           0       -1.115477    0.566909    2.363984
     51          1           0        0.752555    2.860919   -0.215226
     52          1           0        3.397708   -1.896829    3.684487
     53          1           0        1.706230   -1.283764    4.123031
     54          1           0        1.970949   -2.587543    2.845292
     55          1           0        6.927391   -2.338347    1.731332
     56          1           0        7.954478   -0.936220    1.707596
     57          1           0        8.274854   -2.222394    0.483421
     58          1           0       -1.053511   -1.944759    1.532787
     59          1           0       -0.532492   -2.401507    3.115381
     60          1           0       -1.703860   -0.383351   -0.148865
     61          1           0       -2.053374    4.817962   -1.919249
     62          1           0       -0.524600    4.467460   -1.227667
     63          1           0        7.734381   -1.071039   -3.124452
     64          1           0       -0.869004    4.545200    1.108246
     65          1           0       -2.695998    5.016722    0.884136
     66          1           0       -4.294046    4.194994   -1.656248
     67          1           0       -5.252421    2.896939   -1.251981
     68          1           0       -4.592178    2.444464   -2.759385
     69          1           0       -4.784649    0.209744   -1.750750
     70          1           0        9.314645   -0.819625   -0.512726
     71          1           0        9.992482   -0.985705   -2.426529
     72          1           0       -3.929518   -2.777591    3.655599
     73          1           0       -6.506260   -1.153551   -1.555860
     74          1           0       -4.351078   -5.726006   -2.140195
     75          1           0       -3.914452   -5.738911   -0.579451
     76          1           0       -5.718078   -5.369818   -1.192149
     77          1           0       -0.854835    7.919059    1.415536
     78          1           0       -7.975135   -2.824503   -2.703561
     79          1           0       -6.460444   -4.160538   -2.706687
 ---------------------------------------------------------------------

 SCF Done:  E(RB3LYP) =  -1947.84368223     A.U. after   16 cycles

 Excitation energies and oscillator strengths:

 Excited State   1:      Singlet-A      2.4054 eV  515.44 nm  f=0.3988  <S**2>=0.000
     154 ->156         0.14498
     155 ->156         0.68574
 This state for optimization and/or second-order correction.
 Total Energy, E(TD-HF/TD-KS) =  -1947.75528445
 Copying the excited state density for this state as the 1-particle RhoCI density.

 The electronic state is 1-A.
 Alpha  occ. eigenvalues --  -19.20813 -19.17556 -19.13604 -19.11569 -19.11388
 Alpha  occ. eigenvalues --  -19.09831 -14.37098 -14.36047 -14.35959 -14.29834
 Alpha  occ. eigenvalues --  -10.34024 -10.30724 -10.28514 -10.27375 -10.24445
 Alpha  occ. eigenvalues --  -10.24085 -10.23918 -10.23861 -10.22591 -10.22537
 Alpha  occ. eigenvalues --  -10.22427 -10.22369 -10.22329 -10.22185 -10.21664
 Alpha  occ. eigenvalues --  -10.21653 -10.21610 -10.21495 -10.21380 -10.20532
 Alpha  occ. eigenvalues --  -10.20389 -10.20337 -10.20157 -10.19900 -10.19752
 Alpha  occ. eigenvalues --  -10.19250 -10.19211 -10.19049 -10.18978 -10.18700
 Alpha  occ. eigenvalues --  -10.18580 -10.18181 -10.17498  -1.11142  -1.08130
 Alpha  occ. eigenvalues --   -1.02723  -1.00948  -0.99200  -0.98756  -0.98192
 Alpha  occ. eigenvalues --   -0.97242  -0.95291  -0.92364  -0.83069  -0.82762
 Alpha  occ. eigenvalues --   -0.81969  -0.81742  -0.79768  -0.79625  -0.77808
 Alpha  occ. eigenvalues --   -0.77234  -0.76300  -0.76206  -0.74959  -0.72985
 Alpha  occ. eigenvalues --   -0.71554  -0.70920  -0.69534  -0.69117  -0.68897
 Alpha  occ. eigenvalues --   -0.66779  -0.65992  -0.64127  -0.61879  -0.61816
 Alpha  occ. eigenvalues --   -0.60371  -0.58248  -0.58087  -0.57786  -0.57192
 Alpha  occ. eigenvalues --   -0.56148  -0.55815  -0.54931  -0.53774  -0.52905
 Alpha  occ. eigenvalues --   -0.52300  -0.51816  -0.51072  -0.50060  -0.49773
 Alpha  occ. eigenvalues --   -0.49070  -0.48896  -0.48507  -0.48140  -0.48028
 Alpha  occ. eigenvalues --   -0.47624  -0.46904  -0.46804  -0.46346  -0.45531
 Alpha  occ. eigenvalues --   -0.45397  -0.44994  -0.44540  -0.43755  -0.43738
 Alpha  occ. eigenvalues --   -0.43411  -0.42986  -0.42698  -0.42322  -0.42214
 Alpha  occ. eigenvalues --   -0.42045  -0.41866  -0.41566  -0.41450  -0.40664
 Alpha  occ. eigenvalues --   -0.40342  -0.40129  -0.40029  -0.39846  -0.39704
 Alpha  occ. eigenvalues --   -0.39299  -0.38862  -0.38402  -0.38253  -0.38179
 Alpha  occ. eigenvalues --   -0.37931  -0.37732  -0.37130  -0.37072  -0.36691
 Alpha  occ. eigenvalues --   -0.35702  -0.35456  -0.35160  -0.34596  -0.34165
 Alpha  occ. eigenvalues --   -0.33860  -0.33085  -0.32669  -0.32109  -0.31731
 Alpha  occ. eigenvalues --   -0.31252  -0.31060  -0.29220  -0.28399  -0.28081
 Alpha  occ. eigenvalues --   -0.27041  -0.26690  -0.25923  -0.25332  -0.25153
 Alpha  occ. eigenvalues --   -0.24540  -0.24196  -0.23901  -0.22633  -0.20053
 Alpha virt. eigenvalues --   -0.10264  -0.05926  -0.05731  -0.02633  -0.01158
 Alpha virt. eigenvalues --    0.00956   0.01196   0.01966   0.02818   0.02844
 Alpha virt. eigenvalues --    0.03466   0.03552   0.04165   0.04246   0.05178

 Mulliken charges:
               1
     1  O   -0.272323
     2  O   -0.221724
     3  O   -0.219369
     4  O   -0.140243
     5  O   -0.298457
     6  O   -0.187724
     7  N   -0.141317
     8  N   -0.231700
     9  N   -0.112760
    10  N   -0.274673
    11  C    0.201506
    12  C    0.105082
    13  C   -0.100649
    14  C    0.001821
    15  C   -0.092473
    16  C    0.061096
    17  C   -0.132531
    18  C    0.081117
    19  C   -0.045397
    20  C   -0.168463
    21  C    0.195188
    22  C    0.167941
    23  C   -0.048684
    24  C   -0.065165
    25  C   -0.022090
    26  C   -0.082113
    27  C    0.033832
    28  C    0.084355
    29  C    0.013632
    30  C   -0.001780
    31  C   -0.034510
    32  C    0.067791
    33  C    0.022300
    34  C    0.131477
    35  C    0.097084
    36  C   -0.007470
    37  C    0.176132
    38  C   -0.017596
    39  C   -0.174996
    40  C    0.174921
    41  C   -0.046280
    42  C    0.062993
    43  C   -0.024496
    44  H   -0.008837
    45  H    0.014930
    46  H   -0.003719
    47  H    0.115648
    48  H    0.173189
    49  H    0.003738
    50  H   -0.011127
    51  H    0.031399
    52  H    0.011649
    53  H    0.031289
    54  H    0.048408
    55  H    0.022722
    56  H    0.054851
    57  H    0.049191
    58  H    0.023230
    59  H    0.036972
    60  H    0.140731
    61  H    0.059794
    62  H    0.001367
    63  H    0.007866
    64  H    0.058448
    65  H    0.058391
    66  H    0.041675
    67  H    0.008002
    68  H    0.049049
    69  H   -0.175962
    70  H    0.020587
    71  H    0.038198
    72  H    0.219630
    73  H    0.042181
    74  H    0.020264
    75  H    0.016033
    76  H    0.035108
    77  H    0.173922
    78  H    0.034307
    79  H    0.043591
 Sum of Mulliken charges =   0.00000

 Dipole moment (field-independent basis, Debye):
    X=             -0.1767    Y=              2.3825    Z=              4.3114  Tot=              4.9290
 Quadrupole moment (field-independent basis, Debye-Ang):
   XX=           -223.6581   YY=           -241.3051   ZZ=           -267.2685
   XY=             -3.2251   XZ=             29.7438   YZ=             11.0615

 Normal termination of Gaussian 09 at Mon Jul  8 06:38:32 2019.
