 Gaussian 09, Revision D.01,
 Gaussian 09:  ES64L-G09RevD.01 24-Apr-2013

 --------------------------
 # td=(NStates=1) B3LYP/SVP
 --------------------------

 --
 TD
 --
 Symbolic Z-matrix:
 Charge =  0 Multiplicity = 1

                         Standard orientation:
 ---------------------------------------------------------------------
 Center     Atomic      Atomic             Coordinates (Angstroms)
 Number     Number       Type             X           Y           Z
 ---------------------------------------------------------------------
      1          8           0        5.310722   -0.389640   -3.341955
      2          8           0       -3.080865   -2.778854    3.239326
      3          8           0       -3.370273   -0.619320    3.277622
      4          8           0       -1.254158    7.314307    1.328401
      5          8           0       -0.046966    6.829577   -0.621945
      6          8           0       -1.758763   -4.047591   -0.204179
      7          7           0        2.273926    0.808078    0.476572
      8          7           0        4.388568   -0.612434   -1.263729
      9          7           0       -1.961495    0.755463   -0.368940
     10          7           0       -2.594533   -1.895132   -0.527420
     11          6           0        4.756402   -1.142495    0.057160
     12          6           0        4.336625   -0.340285    1.190909
     13          6           0        2.890281   -0.080417    1.293161
     14          6           0        1.942507   -0.564356    2.164128
     15          6           0        0.652336    0.135287    1.995440
     16          6           0        0.898409    0.967682    0.824077
     17          6           0        6.209609   -1.408178   -0.133574
     18          6           0       -0.589207   -0.209042    2.708484
     19          6           0        6.662816   -1.082179   -1.366847
     20          6           0        0.098815    1.940466    0.171618
     21          6           0       -1.117389    1.808547   -0.303216
     22          6           0        5.397015   -0.551647   -2.178960
     23          6           0       -1.938279    2.985523   -0.894556
     24          6           0        2.128925   -1.642547    3.258140
     25          6           0        7.049482   -2.052350    0.972257
     26          6           0       -3.137785    2.314479   -1.333558
     27          6           0       -1.149424   -1.573227    2.627915
     28          6           0       -3.089744    0.968335   -0.963308
     29          6           0       -1.504063    4.364123   -0.969121
     30          6           0        7.933710   -1.125486   -2.073920
     31          6           0       -1.458554    5.120922    0.315106
     32          6           0       -4.243224    2.998563   -2.098400
     33          6           0       -4.041196   -0.042440   -1.217101
     34          6           0       -2.576963   -1.567296    3.063924
     35          6           0       -3.768004   -1.365148   -1.022442
     36          6           0        9.120071   -1.069126   -1.529456
     37          6           0       -0.853766    6.486057    0.260906
     38          6           0       -4.657238   -2.575527   -1.424079
     39          6           0       -4.001486   -3.708941   -1.091710
     40          6           0       -2.692158   -3.328412   -0.521269
     41          6           0       -5.996868   -2.258412   -1.992529
     42          6           0       -4.401826   -5.130291   -1.315861
     43          6           0       -7.011749   -3.147742   -2.354429
     44          1           0        4.421689   -2.009438    0.429266
     45          1           0        4.810595    0.772698    1.280072
     46          1           0        4.794946   -0.958304    2.042967
     47          1           0        2.701268    1.442708   -0.329194
     48          1           0        3.478930   -0.710300   -1.564979
     49          1           0       -0.195119   -0.007731    3.783942
     50          1           0       -1.331193    0.450028    2.254541
     51          1           0        0.557792    3.042809    0.214229
     52          1           0        3.188890   -2.001103    3.455302
     53          1           0        1.850473   -0.981700    4.106330
     54          1           0        1.394715   -2.428576    3.179573
     55          1           0        6.625299   -2.716525    1.710225
     56          1           0        7.352555   -1.354476    1.907319
     57          1           0        7.997226   -2.600035    0.520383
     58          1           0       -0.999426   -1.863295    1.643258
     59          1           0       -0.639412   -2.329438    3.183780
     60          1           0       -1.435912   -0.287022   -0.094776
     61          1           0       -1.873513    4.887673   -1.738262
     62          1           0       -0.441040    4.317099   -1.471355
     63          1           0        7.801306   -1.003286   -3.219541
     64          1           0       -0.624574    4.465674    1.185430
     65          1           0       -2.512393    5.315514    0.778095
     66          1           0       -4.188773    4.078998   -2.184639
     67          1           0       -5.461602    2.529821   -1.741190
     68          1           0       -4.084753    2.580901   -3.209128
     69          1           0       -5.111620    0.187875   -1.822365
     70          1           0        9.437101   -0.760939   -0.339556
     71          1           0       10.007794   -1.306195   -2.170065
     72          1           0       -3.917337   -2.519043    3.554328
     73          1           0       -6.306033   -1.217855   -2.056263
     74          1           0       -4.557167   -5.419680   -2.393513
     75          1           0       -3.748819   -5.874802   -0.987200
     76          1           0       -5.329795   -5.325621   -0.673746
     77          1           0       -0.739102    8.161158    1.379697
     78          1           0       -8.017339   -2.810148   -2.823893
     79          1           0       -7.136967   -4.353754   -2.135926
 ---------------------------------------------------------------------

 SCF Done:  E(RB3LYP) =  -1947.78586050     A.U. after   16 cycles

 Excitation energies and oscillator strengths:

 Excited State   1:      Singlet-A      2.0714 eV  598.54 nm  f=0.3147  <S**2>=0.000
     153 ->156        -0.14708
     155 ->156         0.68348
 This state for optimization and/or second-order correction.
 Total Energy, E(TD-HF/TD-KS) =  -1947.70973666
 Copying the excited state density for this state as the 1-particle RhoCI density.

 The electronic state is 1-A.
 Alpha  occ. eigenvalues --  -19.19186 -19.17199 -19.14035 -19.11399 -19.10971
 Alpha  occ. eigenvalues --  -19.10149 -14.38817 -14.37937 -14.35049 -14.28869
 Alpha  occ. eigenvalues --  -10.33882 -10.31318 -10.28713 -10.26208 -10.25443
 Alpha  occ. eigenvalues --  -10.24936 -10.24531 -10.23615 -10.23409 -10.23229
 Alpha  occ. eigenvalues --  -10.23221 -10.22784 -10.22578 -10.22479 -10.22297
 Alpha  occ. eigenvalues --  -10.22014 -10.21990 -10.21978 -10.21969 -10.21514
 Alpha  occ. eigenvalues --  -10.21414 -10.20750 -10.20683 -10.20472 -10.20223
 Alpha  occ. eigenvalues --  -10.20114 -10.20033 -10.20001 -10.19762 -10.19502
 Alpha  occ. eigenvalues --  -10.19046 -10.18959 -10.18602  -1.10886  -1.07786
 Alpha  occ. eigenvalues --   -1.04988  -1.01044  -1.00733  -1.00209  -0.97540
 Alpha  occ. eigenvalues --   -0.97389  -0.94917  -0.89984  -0.83937  -0.83183
 Alpha  occ. eigenvalues --   -0.82485  -0.82066  -0.80911  -0.79163  -0.78474
 Alpha  occ. eigenvalues --   -0.77575  -0.77186  -0.75868  -0.74443  -0.72655
 Alpha  occ. eigenvalues --   -0.71571  -0.70408  -0.69660  -0.68628  -0.68451
 Alpha  occ. eigenvalues --   -0.67688  -0.66760  -0.63886  -0.60979  -0.60818
 Alpha  occ. eigenvalues --   -0.60443  -0.59527  -0.58467  -0.58165  -0.56806
 Alpha  occ. eigenvalues --   -0.55872  -0.55669  -0.55116  -0.54654  -0.53299
 Alpha  occ. eigenvalues --   -0.51750  -0.51211  -0.50916  -0.50370  -0.50225
 Alpha  occ. eigenvalues --   -0.49836  -0.49146  -0.48400  -0.48141  -0.48082
 Alpha  occ. eigenvalues --   -0.47967  -0.46976  -0.46423  -0.46193  -0.45453
 Alpha  occ. eigenvalues --   -0.45379  -0.45254  -0.44472  -0.44257  -0.43678
 Alpha  occ. eigenvalues --   -0.43577  -0.43361  -0.43060  -0.42951  -0.42632
 Alpha  occ. eigenvalues --   -0.42016  -0.41777  -0.41240  -0.41164  -0.41007
 Alpha  occ. eigenvalues --   -0.40561  -0.40477  -0.40342  -0.40074  -0.39408
 Alpha  occ. eigenvalues --   -0.39249  -0.39079  -0.38904  -0.38682  -0.38455
 Alpha  occ. eigenvalues --   -0.37863  -0.37625  -0.37518  -0.37267  -0.37046
 Alpha  occ. eigenvalues --   -0.36458  -0.36233  -0.34968  -0.34629  -0.34428
 Alpha  occ. eigenvalues --   -0.33923  -0.33588  -0.33123  -0.32976  -0.31331
 Alpha  occ. eigenvalues --   -0.31098  -0.30599  -0.28983  -0.28463  -0.27709
 Alpha  occ. eigenvalues --   -0.27217  -0.26312  -0.25837  -0.25708  -0.24103
 Alpha  occ. eigenvalues --   -0.23908  -0.23720  -0.23410  -0.22083  -0.19856
 Alpha virt. eigenvalues --   -0.11182  -0.06611  -0.05152  -0.03489  -0.00836
 Alpha virt. eigenvalues --    0.00158   0.00181   0.01350   0.01788   0.02271
 Alpha virt. eigenvalues --    0.02466   0.03252   0.03961   0.04148   0.04762

 Mulliken charges:
               1
     1  O   -0.174458
     2  O   -0.112715
     3  O   -0.292110
     4  O   -0.241204
     5  O   -0.246382
     6  O   -0.200309
     7  N   -0.137242
     8  N   -0.166903
     9  N   -0.062578
    10  N   -0.343538
    11  C    0.228317
    12  C    0.100040
    13  C   -0.048578
    14  C   -0.175550
    15  C   -0.115876
    16  C    0.013069
    17  C   -0.113588
    18  C    0.078388
    19  C   -0.110255
    20  C   -0.178162
    21  C    0.119540
    22  C    0.132841
    23  C   -0.080324
    24  C    0.093970
    25  C   -0.002142
    26  C   -0.115250
    27  C    0.097991
    28  C    0.149111
    29  C    0.140864
    30  C   -0.004793
    31  C   -0.074637
    32  C   -0.006970
    33  C   -0.182188
    34  C    0.124769
    35  C    0.079288
    36  C   -0.092430
    37  C    0.174628
    38  C    0.086076
    39  C   -0.202788
    40  C    0.164822
    41  C   -0.009366
    42  C    0.098340
    43  C   -0.118256
    44  H   -0.040960
    45  H    0.015106
    46  H   -0.005048
    47  H    0.157947
    48  H    0.100862
    49  H    0.021683
    50  H    0.019615
    51  H    0.041614
    52  H    0.014631
    53  H    0.019303
    54  H    0.031664
    55  H    0.001541
    56  H    0.031829
    57  H    0.061165
    58  H    0.037903
    59  H    0.012495
    60  H    0.237430
    61  H   -0.039874
    62  H    0.035319
    63  H    0.046248
    64  H    0.090186
    65  H    0.065188
    66  H    0.028317
    67  H    0.058269
    68  H    0.052598
    69  H    0.034354
    70  H    0.062308
    71  H    0.032833
    72  H    0.143900
    73  H   -0.001357
    74  H    0.036426
    75  H   -0.006970
    76  H    0.029155
    77  H    0.203770
    78  H    0.039150
    79  H    0.057936
 Sum of Mulliken charges =   0.00000

 Dipole moment (field-independent basis, Debye):
    X=              0.0587    Y=              3.2351    Z=              2.8004  Tot=              4.2792
 Quadrupole moment (field-independent basis, Debye-Ang):
   XX=           -228.7600   YY=           -243.8530   ZZ=           -262.4087
   XY=             -8.0688   XZ=             34.1841   YZ=             -0.3910

 Normal termination of Gaussian 09 at Wed Jul 10 06:58:08 2019.
