 Gaussian 09, Revision D.01,
 Gaussian 09:  ES64L-G09RevD.01 24-Apr-2013

 --------------------------
 # td=(NStates=1) B3LYP/SVP
 --------------------------

 --
 TD
 --
 Symbolic Z-matrix:
 Charge =  0 Multiplicity = 1

                         Standard orientation:
 ---------------------------------------------------------------------
 Center     Atomic      Atomic             Coordinates (Angstroms)
 Number     Number       Type             X           Y           Z
 ---------------------------------------------------------------------
      1          8           0        5.481044   -0.161956   -3.310210
      2          8           0       -2.855830   -3.342442    2.996852
      3          8           0       -3.224002   -1.109966    3.091897
      4          8           0       -1.441969    7.244330    1.684646
      5          8           0       -0.340659    7.050410   -0.262954
      6          8           0       -2.155501   -3.996720   -0.202387
      7          7           0        2.513445    0.697989    0.645585
      8          7           0        4.450705   -0.602613   -1.303676
      9          7           0       -1.870315    0.724141   -0.380041
     10          7           0       -2.782436   -1.792861   -0.636475
     11          6           0        4.890789   -1.378574   -0.077218
     12          6           0        4.499677   -0.565657    1.184119
     13          6           0        3.030818   -0.316560    1.302488
     14          6           0        1.949649   -0.855555    2.033173
     15          6           0        0.795003   -0.214457    1.803206
     16          6           0        1.085227    0.767676    0.770540
     17          6           0        6.443656   -1.469887   -0.312707
     18          6           0       -0.523863   -0.461818    2.444647
     19          6           0        6.843792   -0.914576   -1.422530
     20          6           0        0.320471    1.835168    0.219359
     21          6           0       -0.998930    1.835015   -0.314837
     22          6           0        5.556969   -0.421148   -2.137076
     23          6           0       -1.875611    2.904371   -0.779002
     24          6           0        2.147774   -1.866900    3.086820
     25          6           0        7.158716   -2.048780    0.856094
     26          6           0       -3.112035    2.423391   -1.078984
     27          6           0       -1.007141   -1.917056    2.346631
     28          6           0       -3.069998    0.989822   -0.822549
     29          6           0       -1.347217    4.393304   -0.783526
     30          6           0        8.090421   -0.743243   -2.090854
     31          6           0       -1.529921    5.161557    0.521268
     32          6           0       -4.211733    3.154610   -1.721522
     33          6           0       -4.086312    0.204098   -1.211388
     34          6           0       -2.467142   -2.107005    2.909327
     35          6           0       -3.971377   -1.183308   -1.158414
     36          6           0        9.297297   -0.656973   -1.443820
     37          6           0       -1.022611    6.549112    0.593772
     38          6           0       -4.919226   -2.185979   -1.476700
     39          6           0       -4.403428   -3.463138   -1.203183
     40          6           0       -3.005932   -3.095070   -0.648120
     41          6           0       -6.245775   -1.916316   -2.004589
     42          6           0       -4.834266   -4.881630   -1.299339
     43          6           0       -7.298711   -2.604955   -2.413040
     44          1           0        4.369973   -2.418163   -0.163558
     45          1           0        5.038281    0.405731    1.020953
     46          1           0        4.876167   -0.935409    2.010154
     47          1           0        3.052079    1.370737    0.108259
     48          1           0        3.713178   -0.716786   -1.755247
     49          1           0       -0.735999   -0.192110    3.416650
     50          1           0       -1.270890    0.187909    2.084703
     51          1           0        0.789135    2.751370    0.021860
     52          1           0        3.074070   -2.223744    3.533242
     53          1           0        1.570715   -1.610759    3.937612
     54          1           0        1.531749   -2.774133    2.868500
     55          1           0        6.722576   -2.827137    1.567642
     56          1           0        7.516894   -1.209516    1.619428
     57          1           0        8.180733   -2.347593    0.570879
     58          1           0       -1.177679   -2.284792    1.300596
     59          1           0       -0.417468   -2.623191    2.803609
     60          1           0       -1.684649   -0.217729   -0.323907
     61          1           0       -1.516451    4.950463   -1.623938
     62          1           0       -0.209812    4.204351   -1.001523
     63          1           0        8.040518   -0.635913   -3.037334
     64          1           0       -1.074556    4.619147    1.446974
     65          1           0       -2.450892    5.184140    0.864223
     66          1           0       -4.171474    4.329818   -1.823906
     67          1           0       -5.068164    2.998370   -1.066962
     68          1           0       -4.571569    2.590014   -2.488257
     69          1           0       -5.038673    0.620671   -1.581703
     70          1           0        9.370876   -0.550791   -0.495302
     71          1           0       10.350043   -0.662865   -1.964517
     72          1           0       -3.753002   -3.301609    3.536563
     73          1           0       -6.459934   -0.793325   -1.929274
     74          1           0       -5.100281   -5.382106   -2.433832
     75          1           0       -3.923965   -5.624655   -0.884190
     76          1           0       -5.808878   -5.059298   -0.707021
     77          1           0       -1.166805    8.094623    1.713320
     78          1           0       -8.295904   -2.537513   -2.939982
     79          1           0       -7.258593   -3.731306   -2.497458
 ---------------------------------------------------------------------

 SCF Done:  E(RB3LYP) =  -1947.80858507     A.U. after   19 cycles

 Excitation energies and oscillator strengths:

 Excited State   1:      Singlet-A      1.9566 eV  633.68 nm  f=0.0253  <S**2>=0.000
     153 ->156         0.62594
     153 ->157         0.12211
     154 ->156        -0.21179
     155 ->156        -0.20635
 This state for optimization and/or second-order correction.
 Total Energy, E(TD-HF/TD-KS) =  -1947.73668277
 Copying the excited state density for this state as the 1-particle RhoCI density.

 The electronic state is 1-A.
 Alpha  occ. eigenvalues --  -19.18489 -19.17992 -19.12824 -19.11101 -19.10045
 Alpha  occ. eigenvalues --  -19.07931 -14.39435 -14.36365 -14.34460 -14.28095
 Alpha  occ. eigenvalues --  -10.32590 -10.30399 -10.29134 -10.26753 -10.24857
 Alpha  occ. eigenvalues --  -10.24631 -10.23942 -10.23923 -10.23823 -10.22982
 Alpha  occ. eigenvalues --  -10.22845 -10.22837 -10.22416 -10.22031 -10.21322
 Alpha  occ. eigenvalues --  -10.21161 -10.21113 -10.20933 -10.20851 -10.20392
 Alpha  occ. eigenvalues --  -10.20257 -10.20240 -10.20079 -10.19991 -10.19920
 Alpha  occ. eigenvalues --  -10.19834 -10.19679 -10.19182 -10.19065 -10.18983
 Alpha  occ. eigenvalues --  -10.18643 -10.17924 -10.17757  -1.10660  -1.08811
 Alpha  occ. eigenvalues --   -1.04126  -1.01690  -1.00128  -0.99870  -0.96344
 Alpha  occ. eigenvalues --   -0.95721  -0.94245  -0.89384  -0.84326  -0.83054
 Alpha  occ. eigenvalues --   -0.82807  -0.82092  -0.80814  -0.79471  -0.79131
 Alpha  occ. eigenvalues --   -0.78162  -0.76517  -0.76464  -0.73944  -0.73373
 Alpha  occ. eigenvalues --   -0.72432  -0.71944  -0.70240  -0.69864  -0.69086
 Alpha  occ. eigenvalues --   -0.67356  -0.66419  -0.64238  -0.63024  -0.62443
 Alpha  occ. eigenvalues --   -0.61014  -0.60368  -0.59438  -0.58981  -0.58406
 Alpha  occ. eigenvalues --   -0.57517  -0.56419  -0.56303  -0.54996  -0.53647
 Alpha  occ. eigenvalues --   -0.52497  -0.51997  -0.51501  -0.51159  -0.49807
 Alpha  occ. eigenvalues --   -0.49464  -0.48708  -0.48632  -0.48020  -0.47938
 Alpha  occ. eigenvalues --   -0.47365  -0.47131  -0.46735  -0.46689  -0.45912
 Alpha  occ. eigenvalues --   -0.45643  -0.45272  -0.45175  -0.44473  -0.43896
 Alpha  occ. eigenvalues --   -0.43598  -0.43196  -0.42745  -0.42596  -0.42461
 Alpha  occ. eigenvalues --   -0.42336  -0.42152  -0.41727  -0.41506  -0.41180
 Alpha  occ. eigenvalues --   -0.40911  -0.40466  -0.40421  -0.40180  -0.39900
 Alpha  occ. eigenvalues --   -0.39759  -0.39668  -0.39293  -0.39204  -0.38477
 Alpha  occ. eigenvalues --   -0.38098  -0.37795  -0.37606  -0.37029  -0.36768
 Alpha  occ. eigenvalues --   -0.36173  -0.35964  -0.34826  -0.34707  -0.33969
 Alpha  occ. eigenvalues --   -0.33137  -0.32989  -0.32592  -0.32567  -0.31578
 Alpha  occ. eigenvalues --   -0.30284  -0.29720  -0.28533  -0.27935  -0.27692
 Alpha  occ. eigenvalues --   -0.26367  -0.26142  -0.25983  -0.25536  -0.25230
 Alpha  occ. eigenvalues --   -0.25222  -0.23677  -0.22146  -0.21339  -0.19082
 Alpha virt. eigenvalues --   -0.11178  -0.06512  -0.06116  -0.00711  -0.00192
 Alpha virt. eigenvalues --   -0.00013   0.00958   0.01957   0.03187   0.03681
 Alpha virt. eigenvalues --    0.03869   0.04712   0.05020   0.05366   0.05893

 Mulliken charges:
               1
     1  O   -0.205081
     2  O   -0.150691
     3  O   -0.308720
     4  O   -0.150999
     5  O   -0.214576
     6  O   -0.322924
     7  N   -0.045505
     8  N   -0.133174
     9  N    0.037629
    10  N   -0.275575
    11  C    0.032212
    12  C    0.291463
    13  C   -0.091796
    14  C   -0.137508
    15  C   -0.003439
    16  C    0.059692
    17  C   -0.154060
    18  C    0.181531
    19  C    0.014484
    20  C   -0.020071
    21  C    0.049390
    22  C    0.112065
    23  C   -0.102505
    24  C    0.113116
    25  C    0.022253
    26  C   -0.194631
    27  C    0.001324
    28  C    0.158773
    29  C    0.120402
    30  C    0.069255
    31  C    0.090042
    32  C    0.201270
    33  C   -0.189298
    34  C    0.114888
    35  C    0.131732
    36  C    0.016632
    37  C    0.101962
    38  C    0.057968
    39  C   -0.113769
    40  C    0.143309
    41  C    0.016560
    42  C   -0.066169
    43  C   -0.112022
    44  H    0.055487
    45  H   -0.005076
    46  H   -0.052095
    47  H    0.117982
    48  H    0.052103
    49  H   -0.026948
    50  H   -0.031034
    51  H   -0.040107
    52  H    0.004248
    53  H   -0.013757
    54  H    0.016040
    55  H    0.044928
    56  H    0.040957
    57  H    0.019975
    58  H    0.077376
    59  H   -0.020003
    60  H    0.098323
    61  H   -0.012744
    62  H    0.009983
    63  H   -0.071632
    64  H    0.041776
    65  H   -0.025689
    66  H    0.046606
    67  H   -0.003267
    68  H   -0.012757
    69  H   -0.022867
    70  H   -0.041250
    71  H    0.049025
    72  H    0.213981
    73  H   -0.005283
    74  H    0.054812
    75  H    0.074214
    76  H    0.047477
    77  H    0.143055
    78  H    0.034604
    79  H   -0.003883
 Sum of Mulliken charges =   0.00000

 Dipole moment (field-independent basis, Debye):
    X=              2.8791    Y=              2.8810    Z=              4.4075  Tot=              6.0013
 Quadrupole moment (field-independent basis, Debye-Ang):
   XX=           -210.2491   YY=           -249.1267   ZZ=           -258.5565
   XY=            -14.5310   XZ=             29.7566   YZ=              0.9252

 Normal termination of Gaussian 09 at Wed Jul 10 13:03:10 2019.
