 Gaussian 09, Revision D.01,
 Gaussian 09:  ES64L-G09RevD.01 24-Apr-2013

 --------------------------
 # td=(NStates=1) B3LYP/SVP
 --------------------------

 --
 TD
 --
 Symbolic Z-matrix:
 Charge =  0 Multiplicity = 1

                         Standard orientation:
 ---------------------------------------------------------------------
 Center     Atomic      Atomic             Coordinates (Angstroms)
 Number     Number       Type             X           Y           Z
 ---------------------------------------------------------------------
      1          8           0        5.502904   -0.321396   -3.317548
      2          8           0       -3.098946   -3.102570    3.251632
      3          8           0       -3.244830   -0.880399    3.177982
      4          8           0       -1.987173    7.400866    1.390395
      5          8           0       -0.359387    7.027470   -0.267362
      6          8           0       -1.849360   -3.915104   -0.077588
      7          7           0        2.383224    0.925469    0.595269
      8          7           0        4.420282   -0.688106   -1.365215
      9          7           0       -1.839663    0.654650   -0.460703
     10          7           0       -2.756845   -1.883901   -0.585322
     11          6           0        4.860599   -1.185845    0.012354
     12          6           0        4.430877   -0.242612    1.235608
     13          6           0        3.049346    0.008289    1.333491
     14          6           0        1.983274   -0.692627    2.023543
     15          6           0        0.649197   -0.057688    1.677655
     16          6           0        0.982397    0.883678    0.813182
     17          6           0        6.355262   -1.310054   -0.112607
     18          6           0       -0.588128   -0.446694    2.324297
     19          6           0        6.796505   -0.825790   -1.246031
     20          6           0        0.134667    1.951817    0.151557
     21          6           0       -1.142874    1.756091   -0.349311
     22          6           0        5.555287   -0.591855   -2.163465
     23          6           0       -1.858806    2.869579   -0.881129
     24          6           0        2.196308   -1.787787    3.022345
     25          6           0        7.197423   -1.751938    1.048084
     26          6           0       -3.031782    2.367086   -1.325804
     27          6           0       -1.166405   -1.831103    2.387728
     28          6           0       -2.994785    0.938326   -1.019977
     29          6           0       -1.469534    4.334422   -0.894854
     30          6           0        8.144942   -0.828328   -1.971589
     31          6           0       -1.717570    5.184495    0.358416
     32          6           0       -4.284786    2.998546   -1.889612
     33          6           0       -4.028933    0.037451   -1.312368
     34          6           0       -2.572079   -1.767744    2.874794
     35          6           0       -3.814882   -1.334324   -0.995506
     36          6           0        9.369509   -0.637704   -1.345061
     37          6           0       -1.270953    6.573803    0.387449
     38          6           0       -4.701926   -2.527070   -1.362452
     39          6           0       -4.106728   -3.678972   -1.064891
     40          6           0       -2.713608   -3.281615   -0.455378
     41          6           0       -6.078189   -2.332324   -1.939334
     42          6           0       -4.393315   -5.111381   -1.313844
     43          6           0       -6.902134   -3.302901   -2.458355
     44          1           0        4.352924   -2.215769    0.358633
     45          1           0        5.017303    0.703925    1.181012
     46          1           0        5.083722   -0.640066    2.188655
     47          1           0        2.542023    1.458648   -0.345826
     48          1           0        3.531472   -1.167960   -1.813857
     49          1           0       -0.578829   -0.031145    3.415330
     50          1           0       -1.321253    0.285085    1.983834
     51          1           0        0.484542    2.931985    0.294093
     52          1           0        3.197711   -1.908682    3.569981
     53          1           0        1.791571   -1.354447    3.951917
     54          1           0        1.876317   -2.751223    2.651811
     55          1           0        6.929561   -2.713892    1.549817
     56          1           0        7.472224   -1.002779    1.792000
     57          1           0        8.161515   -2.167183    0.565297
     58          1           0       -1.043630   -2.486164    1.432148
     59          1           0       -0.515083   -2.496449    3.281057
     60          1           0       -1.551319   -0.320132   -0.294551
     61          1           0       -1.822125    4.915515   -1.667511
     62          1           0       -0.324056    4.486375   -1.234505
     63          1           0        7.948899   -1.088420   -2.929412
     64          1           0       -1.220405    4.680200    1.135169
     65          1           0       -2.902172    5.210060    0.746722
     66          1           0       -4.002260    4.108010   -2.019194
     67          1           0       -4.994339    2.902023   -0.981878
     68          1           0       -4.658802    2.573932   -2.865669
     69          1           0       -5.130397    0.242209   -1.698295
     70          1           0        9.321766   -0.405006   -0.215299
     71          1           0       10.297665   -0.900235   -1.906182
     72          1           0       -4.071467   -2.889084    3.674903
     73          1           0       -6.427431   -1.249030   -1.851372
     74          1           0       -4.487709   -5.608183   -2.399278
     75          1           0       -3.792701   -5.805347   -0.802321
     76          1           0       -5.206484   -5.272025   -0.604857
     77          1           0       -1.801207    8.407895    1.259687
     78          1           0       -7.947477   -3.150078   -2.864430
     79          1           0       -6.573770   -4.273657   -2.379533
 ---------------------------------------------------------------------

 SCF Done:  E(RB3LYP) =  -1947.81167954     A.U. after   16 cycles

 Excitation energies and oscillator strengths:

 Excited State   1:      Singlet-A      2.1851 eV  567.41 nm  f=0.3583  <S**2>=0.000
     153 ->156        -0.18379
     155 ->156         0.67879
 This state for optimization and/or second-order correction.
 Total Energy, E(TD-HF/TD-KS) =  -1947.73137912
 Copying the excited state density for this state as the 1-particle RhoCI density.

 The electronic state is 1-A.
 Alpha  occ. eigenvalues --  -19.17298 -19.14711 -19.14082 -19.13023 -19.12770
 Alpha  occ. eigenvalues --  -19.10659 -14.37710 -14.37356 -14.35608 -14.28479
 Alpha  occ. eigenvalues --  -10.33588 -10.30804 -10.28451 -10.27552 -10.25683
 Alpha  occ. eigenvalues --  -10.25152 -10.24422 -10.23471 -10.22859 -10.22340
 Alpha  occ. eigenvalues --  -10.22313 -10.22044 -10.22017 -10.21956 -10.21720
 Alpha  occ. eigenvalues --  -10.21605 -10.21506 -10.21467 -10.21189 -10.21172
 Alpha  occ. eigenvalues --  -10.20987 -10.20877 -10.20710 -10.20424 -10.20349
 Alpha  occ. eigenvalues --  -10.19811 -10.19439 -10.19212 -10.19124 -10.19103
 Alpha  occ. eigenvalues --  -10.18936 -10.18826 -10.18599  -1.08491  -1.07647
 Alpha  occ. eigenvalues --   -1.07159  -1.04199  -1.02840  -0.98661  -0.96818
 Alpha  occ. eigenvalues --   -0.95222  -0.94073  -0.92273  -0.84130  -0.82243
 Alpha  occ. eigenvalues --   -0.81907  -0.80823  -0.79883  -0.79541  -0.78935
 Alpha  occ. eigenvalues --   -0.76360  -0.75990  -0.75370  -0.74121  -0.72608
 Alpha  occ. eigenvalues --   -0.71285  -0.70810  -0.69717  -0.69327  -0.68474
 Alpha  occ. eigenvalues --   -0.66458  -0.65902  -0.63622  -0.60950  -0.60245
 Alpha  occ. eigenvalues --   -0.59802  -0.58841  -0.57588  -0.57193  -0.56882
 Alpha  occ. eigenvalues --   -0.55730  -0.55005  -0.54088  -0.53016  -0.52660
 Alpha  occ. eigenvalues --   -0.52428  -0.51541  -0.51175  -0.50091  -0.49064
 Alpha  occ. eigenvalues --   -0.48752  -0.48125  -0.48023  -0.47929  -0.47436
 Alpha  occ. eigenvalues --   -0.46873  -0.46722  -0.46611  -0.46403  -0.45689
 Alpha  occ. eigenvalues --   -0.45412  -0.45057  -0.44776  -0.44384  -0.44037
 Alpha  occ. eigenvalues --   -0.43806  -0.43721  -0.43366  -0.42928  -0.42805
 Alpha  occ. eigenvalues --   -0.42500  -0.42369  -0.41944  -0.41550  -0.41483
 Alpha  occ. eigenvalues --   -0.41150  -0.40903  -0.40777  -0.40374  -0.39917
 Alpha  occ. eigenvalues --   -0.39708  -0.39370  -0.39150  -0.38758  -0.38457
 Alpha  occ. eigenvalues --   -0.37934  -0.37919  -0.37555  -0.37048  -0.36832
 Alpha  occ. eigenvalues --   -0.36434  -0.36035  -0.35218  -0.34307  -0.34192
 Alpha  occ. eigenvalues --   -0.34151  -0.33038  -0.32292  -0.31062  -0.30942
 Alpha  occ. eigenvalues --   -0.30747  -0.29370  -0.29241  -0.28986  -0.27685
 Alpha  occ. eigenvalues --   -0.27604  -0.27303  -0.27006  -0.25985  -0.25172
 Alpha  occ. eigenvalues --   -0.24508  -0.23686  -0.22696  -0.21874  -0.19515
 Alpha virt. eigenvalues --   -0.10528  -0.05911  -0.05133  -0.02307  -0.00285
 Alpha virt. eigenvalues --    0.00001   0.00502   0.01376   0.02856   0.03031
 Alpha virt. eigenvalues --    0.03571   0.03950   0.04446   0.04804   0.05055

 Mulliken charges:
               1
     1  O   -0.180048
     2  O   -0.349606
     3  O   -0.156291
     4  O   -0.319308
     5  O   -0.198337
     6  O   -0.094073
     7  N   -0.115072
     8  N   -0.239139
     9  N    0.068160
    10  N   -0.262322
    11  C    0.048570
    12  C    0.074049
    13  C    0.047333
    14  C   -0.204043
    15  C   -0.012394
    16  C   -0.003613
    17  C   -0.130245
    18  C    0.053200
    19  C   -0.099743
    20  C   -0.126370
    21  C    0.070013
    22  C    0.120514
    23  C   -0.040088
    24  C    0.063686
    25  C    0.036131
    26  C   -0.150135
    27  C   -0.067135
    28  C    0.101197
    29  C    0.053146
    30  C    0.038777
    31  C    0.016719
    32  C    0.076203
    33  C   -0.166453
    34  C    0.165794
    35  C    0.049338
    36  C   -0.032556
    37  C    0.172239
    38  C    0.011736
    39  C   -0.247197
    40  C    0.143753
    41  C   -0.047220
    42  C    0.121837
    43  C    0.004760
    44  H    0.038396
    45  H   -0.013520
    46  H    0.029246
    47  H    0.155543
    48  H    0.167813
    49  H    0.016040
    50  H   -0.010521
    51  H   -0.004669
    52  H   -0.002704
    53  H    0.015395
    54  H    0.044516
    55  H    0.020494
    56  H    0.050744
    57  H    0.028853
    58  H    0.097494
    59  H    0.072581
    60  H    0.146881
    61  H   -0.016621
    62  H    0.036101
    63  H   -0.016849
    64  H    0.030888
    65  H    0.063478
    66  H    0.024987
    67  H    0.055583
    68  H    0.055211
    69  H    0.026099
    70  H    0.048261
    71  H    0.044881
    72  H    0.208985
    73  H   -0.003258
    74  H    0.065413
    75  H   -0.019816
    76  H    0.009443
    77  H    0.214885
    78  H    0.036935
    79  H   -0.012956
 Sum of Mulliken charges =   0.00000

 Dipole moment (field-independent basis, Debye):
    X=             -0.2596    Y=              1.5547    Z=              1.7223  Tot=              2.3347
 Quadrupole moment (field-independent basis, Debye-Ang):
   XX=           -224.5574   YY=           -245.3057   ZZ=           -264.6221
   XY=            -18.9859   XZ=             30.1366   YZ=              2.4596

 Normal termination of Gaussian 09 at Mon Jul  8 07:44:27 2019.
