 Gaussian 09, Revision D.01,
 Gaussian 09:  ES64L-G09RevD.01 24-Apr-2013

 --------------------------
 # td=(NStates=1) B3LYP/SVP
 --------------------------

 --
 TD
 --
 Symbolic Z-matrix:
 Charge =  0 Multiplicity = 1

                         Standard orientation:
 ---------------------------------------------------------------------
 Center     Atomic      Atomic             Coordinates (Angstroms)
 Number     Number       Type             X           Y           Z
 ---------------------------------------------------------------------
      1          8           0        5.552379    0.234142   -3.253392
      2          8           0       -2.820822   -3.257925    3.283652
      3          8           0       -3.369186   -1.036555    3.250651
      4          8           0       -1.553887    7.209016    1.483818
      5          8           0       -0.371136    6.974413   -0.344427
      6          8           0       -1.930047   -4.015943   -0.220017
      7          7           0        2.257978    0.851888    0.487876
      8          7           0        4.448983   -0.584904   -1.344986
      9          7           0       -1.992979    0.746502   -0.324765
     10          7           0       -2.691090   -1.864860   -0.605431
     11          6           0        4.868079   -1.228974   -0.052064
     12          6           0        4.354046   -0.318415    1.233029
     13          6           0        2.948740   -0.085994    1.291209
     14          6           0        1.965676   -0.764705    2.166246
     15          6           0        0.732483   -0.168843    1.798363
     16          6           0        0.895586    0.797703    0.804092
     17          6           0        6.398638   -1.377833   -0.176330
     18          6           0       -0.582983   -0.377823    2.503888
     19          6           0        6.753692   -0.896932   -1.401303
     20          6           0        0.194966    1.864636    0.201708
     21          6           0       -1.146745    1.818418   -0.269092
     22          6           0        5.612588   -0.332451   -2.179398
     23          6           0       -2.039894    2.966224   -0.805818
     24          6           0        2.302882   -1.766532    3.285278
     25          6           0        7.187580   -2.136172    0.809315
     26          6           0       -3.207970    2.476723   -1.073522
     27          6           0       -1.137037   -1.822522    2.480408
     28          6           0       -3.250700    1.039098   -0.843077
     29          6           0       -1.549389    4.337145   -0.892976
     30          6           0        8.138506   -0.723160   -1.932143
     31          6           0       -1.731713    5.062184    0.429342
     32          6           0       -4.413661    3.103561   -1.638572
     33          6           0       -4.104752   -0.019957   -1.217418
     34          6           0       -2.511059   -1.880986    3.029366
     35          6           0       -3.802124   -1.323771   -1.025024
     36          6           0        9.295711   -0.745550   -1.505482
     37          6           0       -1.173165    6.544191    0.443573
     38          6           0       -4.723403   -2.484996   -1.516443
     39          6           0       -4.145027   -3.651267   -1.212872
     40          6           0       -2.732779   -3.285781   -0.586606
     41          6           0       -6.115803   -2.248668   -2.184686
     42          6           0       -4.277453   -5.084135   -1.428540
     43          6           0       -6.903507   -3.111907   -2.728461
     44          1           0        4.448110   -2.115332    0.061836
     45          1           0        5.016957    0.547586    1.018745
     46          1           0        4.845540   -0.882629    2.035004
     47          1           0        2.821277    1.429379   -0.283513
     48          1           0        3.598098   -0.752530   -1.910087
     49          1           0       -0.359172    0.176424    3.455197
     50          1           0       -1.156431    0.318522    2.045353
     51          1           0        0.688485    2.850007    0.013067
     52          1           0        3.398909   -1.811156    3.499723
     53          1           0        1.673376   -1.249291    3.962598
     54          1           0        1.926229   -2.873560    3.167535
     55          1           0        6.441851   -2.654665    1.458999
     56          1           0        7.981904   -1.498040    1.511866
     57          1           0        8.027735   -2.731800    0.249817
     58          1           0       -0.979490   -2.138694    1.464301
     59          1           0       -0.534768   -2.450327    3.081665
     60          1           0       -1.806884   -0.167133   -0.113131
     61          1           0       -2.033142    4.955631   -1.595338
     62          1           0       -0.457758    4.425041   -1.183904
     63          1           0        8.104466   -0.368533   -2.972631
     64          1           0       -1.060602    4.604118    1.275126
     65          1           0       -2.746202    5.295035    0.877058
     66          1           0       -4.423648    4.187586   -1.397582
     67          1           0       -5.486360    2.846180   -1.121562
     68          1           0       -4.575858    2.615697   -2.710701
     69          1           0       -5.092166    0.376761   -1.578361
     70          1           0        9.622770   -0.747351   -0.329549
     71          1           0       10.136145   -0.450950   -2.289629
     72          1           0       -3.650948   -3.515682    3.698306
     73          1           0       -6.508066   -1.084383   -1.989024
     74          1           0       -4.370420   -5.124136   -2.426126
     75          1           0       -3.328007   -5.482949   -1.040080
     76          1           0       -5.165709   -5.325481   -0.947659
     77          1           0       -1.157611    8.127196    1.306464
     78          1           0       -8.025614   -2.988902   -3.343901
     79          1           0       -6.631687   -4.274259   -2.876958
 ---------------------------------------------------------------------

 SCF Done:  E(RB3LYP) =  -1947.81625375     A.U. after   16 cycles

 Excitation energies and oscillator strengths:

 Excited State   1:      Singlet-A      2.1934 eV  565.26 nm  f=0.5549  <S**2>=0.000
     155 ->156         0.69896
     155 <-156        -0.10692
 This state for optimization and/or second-order correction.
 Total Energy, E(TD-HF/TD-KS) =  -1947.73564796
 Copying the excited state density for this state as the 1-particle RhoCI density.

 The electronic state is 1-A.
 Alpha  occ. eigenvalues --  -19.20216 -19.14623 -19.12728 -19.12254 -19.11852
 Alpha  occ. eigenvalues --  -19.11390 -14.38675 -14.36135 -14.35044 -14.28201
 Alpha  occ. eigenvalues --  -10.32264 -10.31681 -10.29308 -10.26401 -10.24839
 Alpha  occ. eigenvalues --  -10.24809 -10.24648 -10.23597 -10.23360 -10.23048
 Alpha  occ. eigenvalues --  -10.22929 -10.22812 -10.22537 -10.22197 -10.21972
 Alpha  occ. eigenvalues --  -10.21907 -10.21134 -10.21107 -10.21005 -10.20998
 Alpha  occ. eigenvalues --  -10.20947 -10.20689 -10.20306 -10.20265 -10.20164
 Alpha  occ. eigenvalues --  -10.19593 -10.19459 -10.19428 -10.19049 -10.19041
 Alpha  occ. eigenvalues --  -10.18651 -10.18064 -10.16304  -1.12820  -1.06184
 Alpha  occ. eigenvalues --   -1.05236  -1.02854  -1.01450  -0.98555  -0.97467
 Alpha  occ. eigenvalues --   -0.96489  -0.92105  -0.91480  -0.84066  -0.82442
 Alpha  occ. eigenvalues --   -0.81825  -0.81242  -0.79814  -0.79401  -0.78339
 Alpha  occ. eigenvalues --   -0.77729  -0.76800  -0.75903  -0.74997  -0.72688
 Alpha  occ. eigenvalues --   -0.71913  -0.71549  -0.69233  -0.69065  -0.68530
 Alpha  occ. eigenvalues --   -0.67529  -0.66437  -0.63723  -0.60674  -0.59698
 Alpha  occ. eigenvalues --   -0.59247  -0.58821  -0.58002  -0.57676  -0.56647
 Alpha  occ. eigenvalues --   -0.56206  -0.55143  -0.54697  -0.53344  -0.52262
 Alpha  occ. eigenvalues --   -0.51916  -0.51283  -0.50649  -0.50317  -0.49943
 Alpha  occ. eigenvalues --   -0.49704  -0.49116  -0.48431  -0.47770  -0.47647
 Alpha  occ. eigenvalues --   -0.46898  -0.46596  -0.46129  -0.45895  -0.45470
 Alpha  occ. eigenvalues --   -0.45109  -0.44936  -0.44893  -0.44337  -0.44199
 Alpha  occ. eigenvalues --   -0.44002  -0.43375  -0.43159  -0.43031  -0.42872
 Alpha  occ. eigenvalues --   -0.42508  -0.42137  -0.41784  -0.41590  -0.41412
 Alpha  occ. eigenvalues --   -0.40963  -0.40711  -0.40651  -0.40131  -0.40075
 Alpha  occ. eigenvalues --   -0.39692  -0.39475  -0.38922  -0.38698  -0.38538
 Alpha  occ. eigenvalues --   -0.38031  -0.37797  -0.37426  -0.36996  -0.36727
 Alpha  occ. eigenvalues --   -0.36546  -0.35596  -0.35452  -0.35200  -0.34549
 Alpha  occ. eigenvalues --   -0.34015  -0.33334  -0.33277  -0.31955  -0.31912
 Alpha  occ. eigenvalues --   -0.30472  -0.30265  -0.28663  -0.28487  -0.27072
 Alpha  occ. eigenvalues --   -0.26999  -0.26898  -0.26563  -0.26225  -0.25430
 Alpha  occ. eigenvalues --   -0.24672  -0.23724  -0.23198  -0.22157  -0.18679
 Alpha virt. eigenvalues --   -0.10110  -0.06655  -0.04497  -0.00292   0.00028
 Alpha virt. eigenvalues --    0.00677   0.01178   0.01412   0.02386   0.02685
 Alpha virt. eigenvalues --    0.03171   0.03557   0.03845   0.04657   0.04771

 Mulliken charges:
               1
     1  O   -0.200968
     2  O   -0.270754
     3  O   -0.215972
     4  O   -0.145369
     5  O   -0.237734
     6  O   -0.120804
     7  N   -0.168610
     8  N   -0.287270
     9  N   -0.035895
    10  N   -0.286752
    11  C    0.117937
    12  C    0.137589
    13  C   -0.011748
    14  C   -0.122499
    15  C   -0.187380
    16  C    0.163863
    17  C   -0.131808
    18  C    0.157850
    19  C   -0.059359
    20  C   -0.119275
    21  C    0.050228
    22  C    0.177226
    23  C   -0.056917
    24  C    0.065279
    25  C    0.000655
    26  C   -0.081788
    27  C    0.083997
    28  C    0.066082
    29  C    0.124954
    30  C    0.062578
    31  C   -0.068111
    32  C    0.009408
    33  C   -0.124027
    34  C    0.182870
    35  C    0.157213
    36  C   -0.135247
    37  C    0.082371
    38  C   -0.014930
    39  C   -0.310036
    40  C    0.135037
    41  C    0.038465
    42  C    0.219645
    43  C   -0.164083
    44  H   -0.027057
    45  H   -0.005018
    46  H   -0.011090
    47  H    0.172515
    48  H    0.143878
    49  H    0.012542
    50  H   -0.059843
    51  H    0.004886
    52  H    0.017032
    53  H    0.028987
    54  H    0.055993
    55  H    0.042166
    56  H    0.059750
    57  H    0.064332
    58  H    0.073100
    59  H    0.008358
    60  H    0.088972
    61  H   -0.007073
    62  H    0.030087
    63  H    0.010602
    64  H    0.056704
    65  H    0.044657
    66  H    0.023930
    67  H    0.038165
    68  H    0.062497
    69  H   -0.015017
    70  H    0.028475
    71  H    0.045519
    72  H    0.176562
    73  H    0.030891
    74  H    0.000319
    75  H    0.030582
    76  H    0.008047
    77  H    0.198395
    78  H    0.055174
    79  H    0.036071
 Sum of Mulliken charges =   0.00000

 Dipole moment (field-independent basis, Debye):
    X=              1.6012    Y=              2.1676    Z=              3.3330  Tot=              4.2861
 Quadrupole moment (field-independent basis, Debye-Ang):
   XX=           -228.4543   YY=           -239.3063   ZZ=           -262.5319
   XY=            -19.7974   XZ=             29.1873   YZ=              2.8956

 Normal termination of Gaussian 09 at Wed Jul 10 04:39:44 2019.
