 Gaussian 09, Revision D.01,
 Gaussian 09:  ES64L-G09RevD.01 24-Apr-2013

 --------------------------
 # td=(NStates=1) B3LYP/SVP
 --------------------------

 --
 TD
 --
 Symbolic Z-matrix:
 Charge =  0 Multiplicity = 1

                         Standard orientation:
 ---------------------------------------------------------------------
 Center     Atomic      Atomic             Coordinates (Angstroms)
 Number     Number       Type             X           Y           Z
 ---------------------------------------------------------------------
      1          8           0        5.406637   -0.283180   -3.343531
      2          8           0       -2.992627   -3.203304    2.920861
      3          8           0       -3.137487   -0.893804    3.243803
      4          8           0       -1.579509    7.275295    1.470833
      5          8           0       -0.044863    6.908198   -0.204074
      6          8           0       -2.080463   -3.940071   -0.181927
      7          7           0        2.364244    0.659640    0.476584
      8          7           0        4.493190   -0.970770   -1.304718
      9          7           0       -1.930547    0.663339   -0.362991
     10          7           0       -2.865208   -1.785047   -0.498078
     11          6           0        4.945718   -1.323313    0.036473
     12          6           0        4.551141   -0.400369    1.225902
     13          6           0        2.997263   -0.208985    1.257986
     14          6           0        2.010109   -0.812411    2.083809
     15          6           0        0.813952   -0.125100    1.840385
     16          6           0        1.045700    0.809567    0.767251
     17          6           0        6.484451   -1.374969   -0.170996
     18          6           0       -0.502931   -0.446287    2.454639
     19          6           0        6.749367   -0.893820   -1.353248
     20          6           0        0.181706    1.781886    0.158284
     21          6           0       -1.083218    1.770204   -0.281870
     22          6           0        5.536991   -0.548619   -2.198398
     23          6           0       -1.874231    2.857088   -0.800408
     24          6           0        2.289988   -1.872012    3.063795
     25          6           0        7.444321   -1.755660    0.881312
     26          6           0       -3.075708    2.397966   -1.155925
     27          6           0       -1.069960   -1.790297    2.351322
     28          6           0       -3.150947    1.101100   -0.817731
     29          6           0       -1.415441    4.283978   -0.903563
     30          6           0        8.089747   -0.714493   -2.088175
     31          6           0       -1.809317    5.196129    0.343507
     32          6           0       -4.258506    3.250482   -1.664384
     33          6           0       -4.075550    0.232061   -1.230881
     34          6           0       -2.566774   -1.884491    2.966003
     35          6           0       -3.934018   -1.194986   -0.935205
     36          6           0        9.245541   -0.730258   -1.448621
     37          6           0       -1.024635    6.473535    0.435114
     38          6           0       -4.873702   -2.246164   -1.428068
     39          6           0       -4.406603   -3.481875   -1.172713
     40          6           0       -3.029622   -3.191197   -0.564174
     41          6           0       -6.215504   -2.040374   -2.002061
     42          6           0       -4.756049   -4.958368   -1.385103
     43          6           0       -7.105611   -2.945877   -2.389229
     44          1           0        4.664528   -2.438114    0.379092
     45          1           0        5.093357    0.395362    1.171376
     46          1           0        4.830757   -0.861058    2.103984
     47          1           0        2.775946    1.300617   -0.141702
     48          1           0        3.652643   -0.983950   -1.592321
     49          1           0       -0.449847   -0.431266    3.680849
     50          1           0       -1.294275    0.478493    2.272739
     51          1           0        0.707690    2.799610   -0.123623
     52          1           0        3.489767   -1.960118    3.291664
     53          1           0        1.968334   -1.664368    4.025597
     54          1           0        1.943264   -3.026179    2.917241
     55          1           0        6.712029   -2.305483    1.616252
     56          1           0        8.042892   -0.827605    1.258303
     57          1           0        8.084195   -2.633524    0.394841
     58          1           0       -1.038877   -2.083636    1.375053
     59          1           0       -0.412330   -2.462663    2.942862
     60          1           0       -1.755516   -0.323857   -0.086237
     61          1           0       -1.563125    4.906374   -1.770002
     62          1           0       -0.297411    4.335680   -0.822984
     63          1           0        7.865051   -0.595217   -3.196290
     64          1           0       -1.412031    4.637542    1.190750
     65          1           0       -2.912503    5.321766    0.491833
     66          1           0       -3.887358    4.280492   -1.981166
     67          1           0       -5.207134    3.398687   -0.817868
     68          1           0       -4.702101    2.536692   -2.440870
     69          1           0       -4.965274    0.418112   -1.737708
     70          1           0        9.394264   -0.608903   -0.375288
     71          1           0       10.127558   -0.280746   -2.058934
     72          1           0       -3.869725   -3.237442    3.269322
     73          1           0       -6.743407   -1.154277   -2.049702
     74          1           0       -4.867515   -5.329751   -2.300501
     75          1           0       -3.898616   -5.820830   -1.255752
     76          1           0       -5.654085   -5.429036   -0.759736
     77          1           0       -1.074235    8.083279    1.327010
     78          1           0       -8.129897   -2.422535   -2.517000
     79          1           0       -7.168286   -4.171768   -2.354561
 ---------------------------------------------------------------------

 SCF Done:  E(RB3LYP) =  -1947.80181650     A.U. after   16 cycles

 Excitation energies and oscillator strengths:

 Excited State   1:      Singlet-A      2.0394 eV  607.94 nm  f=0.4256  <S**2>=0.000
     155 ->156         0.70295
     155 <-156        -0.10960
 This state for optimization and/or second-order correction.
 Total Energy, E(TD-HF/TD-KS) =  -1947.72686911
 Copying the excited state density for this state as the 1-particle RhoCI density.

 The electronic state is 1-A.
 Alpha  occ. eigenvalues --  -19.18095 -19.17428 -19.14749 -19.13013 -19.11832
 Alpha  occ. eigenvalues --  -19.10970 -14.38900 -14.35540 -14.33932 -14.29453
 Alpha  occ. eigenvalues --  -10.33918 -10.31516 -10.29152 -10.27217 -10.25822
 Alpha  occ. eigenvalues --  -10.23918 -10.23592 -10.23447 -10.23145 -10.23017
 Alpha  occ. eigenvalues --  -10.22874 -10.22858 -10.22624 -10.22133 -10.21628
 Alpha  occ. eigenvalues --  -10.21070 -10.21038 -10.20958 -10.20905 -10.20865
 Alpha  occ. eigenvalues --  -10.20779 -10.20672 -10.20532 -10.20284 -10.19809
 Alpha  occ. eigenvalues --  -10.19794 -10.19673 -10.19545 -10.19303 -10.19179
 Alpha  occ. eigenvalues --  -10.18934 -10.18669 -10.17466  -1.08604  -1.08384
 Alpha  occ. eigenvalues --   -1.05000  -1.01913  -1.00535  -0.99834  -0.99548
 Alpha  occ. eigenvalues --   -0.98764  -0.94040  -0.92610  -0.83215  -0.82765
 Alpha  occ. eigenvalues --   -0.82545  -0.81534  -0.80967  -0.80122  -0.78628
 Alpha  occ. eigenvalues --   -0.77254  -0.76298  -0.75675  -0.75147  -0.72413
 Alpha  occ. eigenvalues --   -0.71777  -0.70834  -0.69998  -0.69360  -0.68924
 Alpha  occ. eigenvalues --   -0.66252  -0.65737  -0.64955  -0.60887  -0.60238
 Alpha  occ. eigenvalues --   -0.59746  -0.58986  -0.58565  -0.57852  -0.57476
 Alpha  occ. eigenvalues --   -0.56688  -0.56485  -0.55043  -0.53586  -0.53067
 Alpha  occ. eigenvalues --   -0.52509  -0.51964  -0.51065  -0.50568  -0.50341
 Alpha  occ. eigenvalues --   -0.49139  -0.48748  -0.48534  -0.47901  -0.47724
 Alpha  occ. eigenvalues --   -0.47530  -0.47291  -0.47229  -0.46085  -0.45533
 Alpha  occ. eigenvalues --   -0.45192  -0.44902  -0.44381  -0.44154  -0.43903
 Alpha  occ. eigenvalues --   -0.43396  -0.43108  -0.42796  -0.42596  -0.42509
 Alpha  occ. eigenvalues --   -0.42147  -0.41994  -0.41800  -0.41606  -0.41239
 Alpha  occ. eigenvalues --   -0.41016  -0.40497  -0.40367  -0.39951  -0.39656
 Alpha  occ. eigenvalues --   -0.39458  -0.39330  -0.39122  -0.38862  -0.38672
 Alpha  occ. eigenvalues --   -0.38272  -0.37937  -0.37724  -0.37451  -0.36741
 Alpha  occ. eigenvalues --   -0.36336  -0.36293  -0.35659  -0.34362  -0.33872
 Alpha  occ. eigenvalues --   -0.32742  -0.32728  -0.32600  -0.32391  -0.32103
 Alpha  occ. eigenvalues --   -0.31512  -0.30596  -0.29645  -0.29385  -0.27460
 Alpha  occ. eigenvalues --   -0.26819  -0.26795  -0.26730  -0.26345  -0.25007
 Alpha  occ. eigenvalues --   -0.24716  -0.24334  -0.24044  -0.23227  -0.19062
 Alpha virt. eigenvalues --   -0.11079  -0.06521  -0.04909  -0.02447  -0.00486
 Alpha virt. eigenvalues --    0.00580   0.01267   0.01748   0.02184   0.02762
 Alpha virt. eigenvalues --    0.03242   0.04397   0.05036   0.05224   0.05446

 Mulliken charges:
               1
     1  O   -0.170570
     2  O   -0.180445
     3  O   -0.174417
     4  O   -0.223403
     5  O   -0.250131
     6  O   -0.224278
     7  N    0.039075
     8  N   -0.161381
     9  N   -0.116961
    10  N   -0.251458
    11  C    0.015421
    12  C    0.396471
    13  C   -0.139734
    14  C   -0.087335
    15  C   -0.019580
    16  C    0.019210
    17  C   -0.202889
    18  C   -0.064869
    19  C   -0.104993
    20  C   -0.135386
    21  C    0.116018
    22  C    0.173951
    23  C   -0.021476
    24  C    0.018648
    25  C    0.010469
    26  C   -0.123196
    27  C    0.037685
    28  C    0.221242
    29  C    0.043790
    30  C    0.021492
    31  C    0.008871
    32  C    0.005047
    33  C   -0.110302
    34  C    0.145911
    35  C    0.056342
    36  C   -0.048650
    37  C    0.162537
    38  C    0.037267
    39  C   -0.109405
    40  C    0.156228
    41  C    0.009643
    42  C    0.033012
    43  C   -0.114753
    44  H    0.035739
    45  H   -0.080928
    46  H   -0.050199
    47  H    0.091725
    48  H    0.050017
    49  H   -0.000015
    50  H    0.044583
    51  H    0.006557
    52  H    0.001994
    53  H   -0.001720
    54  H    0.057900
    55  H    0.029128
    56  H    0.079508
    57  H    0.070060
    58  H    0.026880
    59  H    0.014145
    60  H    0.164823
    61  H    0.023115
    62  H    0.004344
    63  H    0.035520
    64  H    0.045314
    65  H    0.059198
    66  H    0.044147
    67  H    0.058450
    68  H    0.049415
    69  H   -0.052037
    70  H    0.018833
    71  H    0.033873
    72  H    0.158837
    73  H   -0.033225
    74  H   -0.006423
    75  H    0.034833
    76  H    0.041788
    77  H    0.170303
    78  H    0.027597
    79  H    0.053207
 Sum of Mulliken charges =   0.00000

 Dipole moment (field-independent basis, Debye):
    X=             -0.7519    Y=              1.9652    Z=              2.7042  Tot=              3.4264
 Quadrupole moment (field-independent basis, Debye-Ang):
   XX=           -218.4364   YY=           -248.8417   ZZ=           -264.8292
   XY=             -2.5886   XZ=             29.6715   YZ=             -4.7025

 Normal termination of Gaussian 09 at Tue Jul  9 03:17:13 2019.
