 Gaussian 09, Revision D.01,
 Gaussian 09:  ES64L-G09RevD.01 24-Apr-2013

 --------------------------
 # td=(NStates=1) B3LYP/SVP
 --------------------------

 --
 TD
 --
 Symbolic Z-matrix:
 Charge =  0 Multiplicity = 1

                         Standard orientation:
 ---------------------------------------------------------------------
 Center     Atomic      Atomic             Coordinates (Angstroms)
 Number     Number       Type             X           Y           Z
 ---------------------------------------------------------------------
      1          8           0        5.330813   -0.088235   -3.271745
      2          8           0       -2.949421   -2.994900    3.041673
      3          8           0       -3.399900   -0.862339    3.182793
      4          8           0       -1.775322    7.010938    1.418256
      5          8           0       -0.384458    6.906392   -0.342835
      6          8           0       -1.868542   -3.925438   -0.129125
      7          7           0        2.322260    0.947759    0.474803
      8          7           0        4.513357   -0.759669   -1.260112
      9          7           0       -1.796463    0.648760   -0.362539
     10          7           0       -2.602376   -1.832423   -0.523395
     11          6           0        4.732984   -1.320728   -0.027843
     12          6           0        4.418614   -0.399945    1.154117
     13          6           0        2.957166    0.059615    1.241388
     14          6           0        2.069379   -0.536275    2.198703
     15          6           0        0.817894    0.038116    1.883920
     16          6           0        1.020507    0.950267    0.770565
     17          6           0        6.368113   -1.302416   -0.137941
     18          6           0       -0.495416   -0.126521    2.546330
     19          6           0        6.725709   -0.973768   -1.332702
     20          6           0        0.169779    1.961450    0.127271
     21          6           0       -1.139415    1.872153   -0.252473
     22          6           0        5.439726   -0.518158   -2.142460
     23          6           0       -1.949390    2.827935   -0.921772
     24          6           0        2.352673   -1.594766    3.219823
     25          6           0        7.227868   -1.793266    0.958345
     26          6           0       -3.120120    2.280791   -1.287580
     27          6           0       -1.081189   -1.521077    2.525596
     28          6           0       -2.987555    0.932406   -0.976060
     29          6           0       -1.511546    4.288451   -1.063382
     30          6           0        8.006397   -0.942216   -2.046293
     31          6           0       -1.809466    4.997953    0.281031
     32          6           0       -4.292652    2.983953   -1.855931
     33          6           0       -3.985382   -0.115493   -1.207193
     34          6           0       -2.570444   -1.666955    2.913816
     35          6           0       -3.750297   -1.394047   -0.987500
     36          6           0        9.130914   -0.821653   -1.468812
     37          6           0       -1.209248    6.436535    0.351011
     38          6           0       -4.785772   -2.495941   -1.347364
     39          6           0       -4.129843   -3.686458   -0.939314
     40          6           0       -2.729998   -3.244549   -0.517448
     41          6           0       -6.106902   -2.314088   -1.965792
     42          6           0       -4.423427   -5.139027   -0.992371
     43          6           0       -6.790274   -3.281574   -2.647306
     44          1           0        4.365059   -2.490366    0.322741
     45          1           0        4.962519    0.457592    0.953484
     46          1           0        4.563519   -0.709044    2.239989
     47          1           0        2.760401    1.709220   -0.116224
     48          1           0        3.532167   -0.359242   -1.752348
     49          1           0       -0.263301    0.271167    3.678763
     50          1           0       -1.302952    0.551306    2.431703
     51          1           0        0.553864    2.831274   -0.314364
     52          1           0        3.440160   -1.449329    3.221086
     53          1           0        1.917979   -1.460306    4.234905
     54          1           0        1.934468   -2.439713    2.817604
     55          1           0        6.699076   -2.644703    1.570039
     56          1           0        7.682977   -1.105402    1.544445
     57          1           0        8.133167   -2.203844    0.683882
     58          1           0       -1.220732   -1.597989    1.480869
     59          1           0       -0.612187   -2.637272    2.984728
     60          1           0       -1.421799   -0.189530   -0.338665
     61          1           0       -1.939576    4.795445   -1.910993
     62          1           0       -0.578874    4.597666   -1.369715
     63          1           0        7.875306   -1.315677   -3.093661
     64          1           0       -1.362707    4.474892    1.012582
     65          1           0       -2.762561    5.199982    0.472486
     66          1           0       -4.163639    4.051884   -2.133951
     67          1           0       -5.096664    2.816547   -1.226215
     68          1           0       -4.476323    2.393785   -2.830197
     69          1           0       -4.854670    0.028802   -1.601629
     70          1           0        9.311738   -0.363612   -0.369953
     71          1           0       10.042520   -0.963100   -2.234321
     72          1           0       -3.967013   -2.829627    3.039662
     73          1           0       -6.640260   -1.357974   -1.855526
     74          1           0       -4.744202   -5.749137   -1.991744
     75          1           0       -3.577894   -5.648290   -0.474580
     76          1           0       -5.416127   -5.260626   -0.482559
     77          1           0       -1.342998    7.919411    1.421323
     78          1           0       -7.852402   -3.012159   -3.081844
     79          1           0       -6.277192   -4.358598   -2.751511
 ---------------------------------------------------------------------

 SCF Done:  E(RB3LYP) =  -1947.77368591     A.U. after   17 cycles

 Excitation energies and oscillator strengths:

 Excited State   1:      Singlet-A      2.1199 eV  584.87 nm  f=0.4617  <S**2>=0.000
     154 ->156         0.12339
     155 ->156         0.69426
     155 <-156        -0.12060
 This state for optimization and/or second-order correction.
 Total Energy, E(TD-HF/TD-KS) =  -1947.69578207
 Copying the excited state density for this state as the 1-particle RhoCI density.

 The electronic state is 1-A.
 Alpha  occ. eigenvalues --  -19.19893 -19.15353 -19.14476 -19.11386 -19.10903
 Alpha  occ. eigenvalues --  -19.09064 -14.40268 -14.37615 -14.35896 -14.27192
 Alpha  occ. eigenvalues --  -10.32717 -10.30207 -10.28760 -10.27421 -10.24782
 Alpha  occ. eigenvalues --  -10.24615 -10.23660 -10.23557 -10.23512 -10.21974
 Alpha  occ. eigenvalues --  -10.21892 -10.21424 -10.21082 -10.20927 -10.20873
 Alpha  occ. eigenvalues --  -10.20519 -10.20507 -10.20396 -10.20377 -10.20355
 Alpha  occ. eigenvalues --  -10.20303 -10.20300 -10.20288 -10.20098 -10.19713
 Alpha  occ. eigenvalues --  -10.19591 -10.19584 -10.19572 -10.19536 -10.19489
 Alpha  occ. eigenvalues --  -10.19438 -10.19289 -10.16288  -1.12045  -1.07913
 Alpha  occ. eigenvalues --   -1.04166  -1.03478  -1.03125  -1.01174  -0.99578
 Alpha  occ. eigenvalues --   -0.97699  -0.96724  -0.90765  -0.84197  -0.82913
 Alpha  occ. eigenvalues --   -0.82477  -0.82192  -0.80563  -0.79246  -0.78761
 Alpha  occ. eigenvalues --   -0.77753  -0.76729  -0.76267  -0.74169  -0.73388
 Alpha  occ. eigenvalues --   -0.72488  -0.71848  -0.70956  -0.70007  -0.68154
 Alpha  occ. eigenvalues --   -0.67098  -0.66654  -0.64086  -0.60585  -0.60133
 Alpha  occ. eigenvalues --   -0.59740  -0.59020  -0.58640  -0.57834  -0.57540
 Alpha  occ. eigenvalues --   -0.57051  -0.56395  -0.55033  -0.54289  -0.53213
 Alpha  occ. eigenvalues --   -0.52460  -0.51841  -0.51167  -0.50710  -0.50502
 Alpha  occ. eigenvalues --   -0.49901  -0.49508  -0.48378  -0.47879  -0.47196
 Alpha  occ. eigenvalues --   -0.47133  -0.46554  -0.46477  -0.46173  -0.46100
 Alpha  occ. eigenvalues --   -0.45677  -0.45147  -0.44582  -0.44390  -0.43996
 Alpha  occ. eigenvalues --   -0.43881  -0.43517  -0.43319  -0.43218  -0.42863
 Alpha  occ. eigenvalues --   -0.42504  -0.42472  -0.42361  -0.41853  -0.41647
 Alpha  occ. eigenvalues --   -0.41532  -0.41403  -0.40727  -0.40554  -0.40202
 Alpha  occ. eigenvalues --   -0.39928  -0.39635  -0.38874  -0.38642  -0.38295
 Alpha  occ. eigenvalues --   -0.38181  -0.37861  -0.37484  -0.37120  -0.36530
 Alpha  occ. eigenvalues --   -0.36269  -0.35936  -0.35592  -0.35029  -0.34917
 Alpha  occ. eigenvalues --   -0.34518  -0.33932  -0.33033  -0.32084  -0.31777
 Alpha  occ. eigenvalues --   -0.30546  -0.30139  -0.29816  -0.28778  -0.27598
 Alpha  occ. eigenvalues --   -0.27042  -0.26546  -0.26414  -0.26187  -0.25586
 Alpha  occ. eigenvalues --   -0.25314  -0.23497  -0.22920  -0.21513  -0.18612
 Alpha virt. eigenvalues --   -0.10405  -0.05799  -0.03993  -0.00373   0.00718
 Alpha virt. eigenvalues --    0.01021   0.01226   0.01799   0.02287   0.03008
 Alpha virt. eigenvalues --    0.03426   0.03743   0.04296   0.04602   0.05185

 Mulliken charges:
               1
     1  O   -0.218153
     2  O   -0.246111
     3  O   -0.212601
     4  O   -0.183568
     5  O   -0.186075
     6  O   -0.140662
     7  N   -0.009758
     8  N   -0.136616
     9  N    0.011669
    10  N   -0.284065
    11  C    0.037630
    12  C    0.256387
    13  C   -0.185070
    14  C   -0.157634
    15  C   -0.059282
    16  C    0.035986
    17  C   -0.198165
    18  C    0.044267
    19  C   -0.067118
    20  C   -0.035844
    21  C    0.034349
    22  C    0.093509
    23  C   -0.056012
    24  C    0.174253
    25  C    0.148040
    26  C   -0.132386
    27  C    0.009723
    28  C    0.109134
    29  C    0.103804
    30  C    0.030934
    31  C    0.111725
    32  C    0.151586
    33  C   -0.045391
    34  C    0.106664
    35  C    0.083725
    36  C   -0.088036
    37  C    0.087637
    38  C    0.036189
    39  C   -0.189085
    40  C    0.110684
    41  C   -0.037741
    42  C    0.014095
    43  C   -0.082607
    44  H    0.059560
    45  H   -0.055131
    46  H    0.025057
    47  H    0.149585
    48  H    0.164885
    49  H    0.010996
    50  H    0.003582
    51  H   -0.045181
    52  H   -0.013074
    53  H    0.027448
    54  H    0.026504
    55  H    0.027165
    56  H   -0.007782
    57  H   -0.016077
    58  H    0.041110
    59  H    0.079828
    60  H    0.083930
    61  H   -0.016587
    62  H   -0.015242
    63  H    0.031454
    64  H    0.002629
    65  H   -0.008950
    66  H    0.024569
    67  H    0.015805
    68  H    0.034618
    69  H   -0.156622
    70  H    0.049287
    71  H    0.041247
    72  H    0.192335
    73  H    0.005234
    74  H    0.050805
    75  H    0.044545
    76  H    0.023325
    77  H    0.185693
    78  H    0.046477
    79  H    0.046962
 Sum of Mulliken charges =   0.00000

 Dipole moment (field-independent basis, Debye):
    X=              1.5446    Y=              4.7346    Z=              2.1210  Tot=              5.4130
 Quadrupole moment (field-independent basis, Debye-Ang):
   XX=           -224.8261   YY=           -243.2701   ZZ=           -266.3496
   XY=            -14.1045   XZ=             34.4287   YZ=              3.7847

 Normal termination of Gaussian 09 at Tue Jul  9 05:40:28 2019.
