 Gaussian 09, Revision D.01,
 Gaussian 09:  ES64L-G09RevD.01 24-Apr-2013

 --------------------------
 # td=(NStates=1) B3LYP/SVP
 --------------------------

 --
 TD
 --
 Symbolic Z-matrix:
 Charge =  0 Multiplicity = 1

                         Standard orientation:
 ---------------------------------------------------------------------
 Center     Atomic      Atomic             Coordinates (Angstroms)
 Number     Number       Type             X           Y           Z
 ---------------------------------------------------------------------
      1          8           0        5.331891   -0.244026   -3.370566
      2          8           0       -2.945328   -3.232134    2.994270
      3          8           0       -3.465023   -0.983833    2.955934
      4          8           0       -1.766501    7.208841    1.604339
      5          8           0       -0.664456    7.063430   -0.385539
      6          8           0       -1.728307   -4.024043   -0.144497
      7          7           0        2.327458    0.797520    0.558791
      8          7           0        4.387121   -0.531163   -1.150850
      9          7           0       -1.938495    0.693801   -0.256981
     10          7           0       -2.555785   -1.864217   -0.487439
     11          6           0        4.914847   -1.076841    0.133344
     12          6           0        4.505549   -0.141840    1.399448
     13          6           0        2.961256    0.058488    1.476859
     14          6           0        1.998684   -0.662814    2.146046
     15          6           0        0.731628   -0.079252    1.782083
     16          6           0        1.022266    0.905260    0.759904
     17          6           0        6.377936   -1.233851   -0.179362
     18          6           0       -0.645408   -0.304058    2.478197
     19          6           0        6.635414   -0.877634   -1.463653
     20          6           0        0.150760    1.874080    0.157519
     21          6           0       -1.137738    1.800762   -0.261416
     22          6           0        5.444272   -0.424151   -2.180540
     23          6           0       -2.052839    2.939615   -0.883925
     24          6           0        2.318516   -1.776313    3.275106
     25          6           0        7.313261   -1.755471    0.947190
     26          6           0       -3.233733    2.362492   -1.309955
     27          6           0       -1.083573   -1.755209    2.654771
     28          6           0       -3.171228    0.945730   -0.938573
     29          6           0       -1.533204    4.391354   -0.924008
     30          6           0        7.923343   -0.656951   -2.125489
     31          6           0       -1.973857    5.125527    0.362649
     32          6           0       -4.266587    3.093410   -1.950719
     33          6           0       -3.987337   -0.098777   -1.319536
     34          6           0       -2.661909   -1.870615    2.875536
     35          6           0       -3.650351   -1.416369   -1.017078
     36          6           0        9.179793   -0.572913   -1.539490
     37          6           0       -1.383420    6.525403    0.347136
     38          6           0       -4.575882   -2.568394   -1.512329
     39          6           0       -3.872169   -3.761469   -1.077390
     40          6           0       -2.617888   -3.284776   -0.495580
     41          6           0       -5.878558   -2.400995   -2.029677
     42          6           0       -4.095818   -5.128273   -1.167256
     43          6           0       -6.755619   -3.425017   -2.460373
     44          1           0        4.391545   -2.065984    0.148496
     45          1           0        4.997394    0.890967    1.314158
     46          1           0        4.817389   -0.904289    2.180445
     47          1           0        2.840210    1.378208   -0.131494
     48          1           0        3.548950   -0.680611   -1.491900
     49          1           0       -0.771790    0.225043    3.570334
     50          1           0       -1.521955    0.334741    1.917519
     51          1           0        0.685783    2.717070    0.155448
     52          1           0        3.462520   -1.765911    3.282413
     53          1           0        1.736124   -1.430111    4.274113
     54          1           0        2.084311   -2.883144    3.012104
     55          1           0        6.780651   -2.149457    1.801154
     56          1           0        8.188522   -0.674276    1.295055
     57          1           0        8.003472   -2.609056    0.100396
     58          1           0       -0.624200   -2.602621    1.581436
     59          1           0       -0.770546   -2.412898    3.741399
     60          1           0       -1.793559   -0.264199   -0.171449
     61          1           0       -1.965495    4.913304   -1.805999
     62          1           0       -0.551211    4.491552   -1.092379
     63          1           0        7.857289   -0.824997   -3.165130
     64          1           0       -1.806618    4.706261    1.406126
     65          1           0       -3.211484    5.254369    0.291740
     66          1           0       -4.132515    4.179795   -2.216309
     67          1           0       -5.063589    3.146816   -1.229943
     68          1           0       -4.770257    2.525240   -2.820257
     69          1           0       -4.781972    0.029796   -1.888169
     70          1           0        9.389328   -0.429395   -0.557248
     71          1           0       10.169174   -0.504134   -2.041248
     72          1           0       -3.896992   -3.479061    3.054434
     73          1           0       -6.299925   -1.322742   -2.205215
     74          1           0       -4.243575   -5.363921   -2.441082
     75          1           0       -3.310825   -5.711196   -0.877771
     76          1           0       -5.056622   -5.668029   -0.555549
     77          1           0       -1.321989    8.127435    1.539565
     78          1           0       -7.690477   -3.212362   -2.932411
     79          1           0       -6.409815   -4.440496   -2.675582
 ---------------------------------------------------------------------

 SCF Done:  E(RB3LYP) =  -1947.72344047     A.U. after   16 cycles

 Excitation energies and oscillator strengths:

 Excited State   1:      Singlet-A      1.9395 eV  639.26 nm  f=0.3400  <S**2>=0.000
     155 ->156         0.69929
 This state for optimization and/or second-order correction.
 Total Energy, E(TD-HF/TD-KS) =  -1947.65216526
 Copying the excited state density for this state as the 1-particle RhoCI density.

 The electronic state is 1-A.
 Alpha  occ. eigenvalues --  -19.16155 -19.15796 -19.15511 -19.12077 -19.11318
 Alpha  occ. eigenvalues --  -19.11069 -14.38213 -14.35979 -14.33597 -14.29679
 Alpha  occ. eigenvalues --  -10.33041 -10.31086 -10.28875 -10.26756 -10.26030
 Alpha  occ. eigenvalues --  -10.25625 -10.25438 -10.24995 -10.24057 -10.23614
 Alpha  occ. eigenvalues --  -10.23592 -10.22869 -10.22848 -10.22575 -10.22174
 Alpha  occ. eigenvalues --  -10.22155 -10.21982 -10.21781 -10.21589 -10.21469
 Alpha  occ. eigenvalues --  -10.21205 -10.21161 -10.20701 -10.20573 -10.20535
 Alpha  occ. eigenvalues --  -10.20313 -10.20301 -10.20161 -10.20008 -10.19840
 Alpha  occ. eigenvalues --  -10.19001 -10.18854 -10.18401  -1.10322  -1.06307
 Alpha  occ. eigenvalues --   -1.03052  -1.02671  -1.00158  -0.98978  -0.98700
 Alpha  occ. eigenvalues --   -0.97453  -0.92892  -0.92710  -0.83534  -0.81991
 Alpha  occ. eigenvalues --   -0.81877  -0.80606  -0.79655  -0.78861  -0.78491
 Alpha  occ. eigenvalues --   -0.77135  -0.75870  -0.74775  -0.73615  -0.72472
 Alpha  occ. eigenvalues --   -0.71064  -0.69783  -0.68992  -0.68856  -0.67714
 Alpha  occ. eigenvalues --   -0.65831  -0.65022  -0.64118  -0.62003  -0.61250
 Alpha  occ. eigenvalues --   -0.59893  -0.58157  -0.57788  -0.57609  -0.56354
 Alpha  occ. eigenvalues --   -0.55804  -0.55598  -0.54567  -0.53113  -0.52958
 Alpha  occ. eigenvalues --   -0.52559  -0.51768  -0.50638  -0.50419  -0.49608
 Alpha  occ. eigenvalues --   -0.49115  -0.48767  -0.47765  -0.47362  -0.46989
 Alpha  occ. eigenvalues --   -0.46753  -0.46348  -0.46123  -0.45709  -0.45170
 Alpha  occ. eigenvalues --   -0.45025  -0.44847  -0.44355  -0.44307  -0.43883
 Alpha  occ. eigenvalues --   -0.43509  -0.43234  -0.42923  -0.42818  -0.42463
 Alpha  occ. eigenvalues --   -0.41708  -0.41419  -0.41358  -0.41167  -0.40895
 Alpha  occ. eigenvalues --   -0.40734  -0.40548  -0.39829  -0.39583  -0.39314
 Alpha  occ. eigenvalues --   -0.38719  -0.38617  -0.38458  -0.38296  -0.38216
 Alpha  occ. eigenvalues --   -0.37641  -0.37307  -0.37248  -0.37007  -0.36825
 Alpha  occ. eigenvalues --   -0.36319  -0.35613  -0.35328  -0.34784  -0.34514
 Alpha  occ. eigenvalues --   -0.34172  -0.32608  -0.31939  -0.31213  -0.31044
 Alpha  occ. eigenvalues --   -0.30504  -0.29950  -0.29429  -0.28908  -0.28124
 Alpha  occ. eigenvalues --   -0.26784  -0.26721  -0.26011  -0.25722  -0.24568
 Alpha  occ. eigenvalues --   -0.24425  -0.23882  -0.23453  -0.21655  -0.19183
 Alpha virt. eigenvalues --   -0.11254  -0.07150  -0.06664  -0.01512  -0.01219
 Alpha virt. eigenvalues --   -0.00383   0.00064   0.01032   0.01680   0.02658
 Alpha virt. eigenvalues --    0.03273   0.03518   0.03898   0.04203   0.04776

 Mulliken charges:
               1
     1  O   -0.202687
     2  O   -0.244725
     3  O   -0.203206
     4  O   -0.317186
     5  O   -0.146894
     6  O   -0.179699
     7  N   -0.005542
     8  N   -0.257650
     9  N   -0.068310
    10  N   -0.247459
    11  C    0.085654
    12  C    0.163923
    13  C   -0.104980
    14  C   -0.123503
    15  C   -0.061416
    16  C    0.014100
    17  C   -0.121781
    18  C    0.004996
    19  C   -0.058848
    20  C   -0.083461
    21  C    0.162850
    22  C    0.177369
    23  C   -0.105800
    24  C    0.019990
    25  C   -0.067917
    26  C   -0.086921
    27  C   -0.195549
    28  C    0.142523
    29  C    0.176571
    30  C    0.030537
    31  C   -0.086982
    32  C    0.076817
    33  C   -0.033883
    34  C    0.191012
    35  C    0.078885
    36  C   -0.020678
    37  C    0.160281
    38  C    0.057414
    39  C   -0.126891
    40  C    0.151552
    41  C   -0.094741
    42  C   -0.004794
    43  C   -0.025834
    44  H    0.033437
    45  H    0.024787
    46  H    0.014769
    47  H    0.116664
    48  H    0.081106
    49  H    0.028610
    50  H    0.055024
    51  H   -0.062674
    52  H   -0.002486
    53  H    0.058869
    54  H    0.049452
    55  H    0.047755
    56  H    0.074392
    57  H    0.091753
    58  H    0.122504
    59  H    0.060671
    60  H    0.109204
    61  H    0.014632
    62  H   -0.017825
    63  H    0.004189
    64  H    0.079563
    65  H    0.070626
    66  H    0.027975
    67  H    0.018326
    68  H    0.033996
    69  H   -0.114636
    70  H   -0.021895
    71  H    0.031373
    72  H    0.183943
    73  H    0.027135
    74  H    0.047772
    75  H    0.001544
    76  H    0.052357
    77  H    0.194033
    78  H    0.019722
    79  H    0.026197
 Sum of Mulliken charges =   0.00000

 Dipole moment (field-independent basis, Debye):
    X=             -0.3855    Y=              2.0663    Z=              1.1779  Tot=              2.4095
 Quadrupole moment (field-independent basis, Debye-Ang):
   XX=           -217.3983   YY=           -245.7820   ZZ=           -266.9204
   XY=             -5.3697   XZ=             34.6167   YZ=             -2.0327

 Normal termination of Gaussian 09 at Sun Jul  7 17:08:22 2019.
