 Gaussian 09, Revision D.01,
 Gaussian 09:  ES64L-G09RevD.01 24-Apr-2013

 --------------------------
 # td=(NStates=1) B3LYP/SVP
 --------------------------

 --
 TD
 --
 Symbolic Z-matrix:
 Charge =  0 Multiplicity = 1

                         Standard orientation:
 ---------------------------------------------------------------------
 Center     Atomic      Atomic             Coordinates (Angstroms)
 Number     Number       Type             X           Y           Z
 ---------------------------------------------------------------------
      1          8           0        5.285473   -0.319747   -3.401731
      2          8           0       -2.832766   -3.041205    3.412381
      3          8           0       -3.005194   -0.858951    3.512147
      4          8           0       -1.281285    7.191436    1.453078
      5          8           0       -0.580612    7.047525   -0.675258
      6          8           0       -2.087043   -4.015869   -0.178594
      7          7           0        2.382705    0.940169    0.508055
      8          7           0        4.409850   -0.733675   -1.287855
      9          7           0       -1.946042    0.639130   -0.438343
     10          7           0       -2.776331   -1.869318   -0.639036
     11          6           0        4.830182   -1.236133    0.042858
     12          6           0        4.539672   -0.243346    1.194857
     13          6           0        3.048707    0.023719    1.367347
     14          6           0        2.165992   -0.651759    2.100660
     15          6           0        0.796632   -0.053501    1.770644
     16          6           0        1.017388    0.876145    0.836905
     17          6           0        6.392341   -1.379932   -0.217794
     18          6           0       -0.472696   -0.288816    2.506852
     19          6           0        6.703492   -0.948084   -1.403989
     20          6           0        0.178730    1.797158    0.193820
     21          6           0       -1.059303    1.745378   -0.214934
     22          6           0        5.426179   -0.676906   -2.167902
     23          6           0       -1.939135    2.881651   -0.769485
     24          6           0        2.360139   -1.777093    3.185761
     25          6           0        7.278130   -1.859243    0.901729
     26          6           0       -3.130322    2.368379   -1.105455
     27          6           0       -1.024626   -1.706294    2.406388
     28          6           0       -3.145074    0.941230   -0.968142
     29          6           0       -1.486641    4.303038   -0.869224
     30          6           0        7.981679   -0.925298   -2.187723
     31          6           0       -1.577053    5.143123    0.482105
     32          6           0       -4.325005    3.159175   -1.728011
     33          6           0       -4.145433    0.012529   -1.173539
     34          6           0       -2.358036   -1.822359    3.176518
     35          6           0       -3.916043   -1.334457   -1.216502
     36          6           0        9.177166   -0.867644   -1.684168
     37          6           0       -1.073903    6.508448    0.238150
     38          6           0       -4.936880   -2.451785   -1.484716
     39          6           0       -4.259929   -3.611088   -1.157008
     40          6           0       -2.926094   -3.233796   -0.545625
     41          6           0       -6.217875   -2.250262   -1.958426
     42          6           0       -4.537694   -5.117810   -1.262089
     43          6           0       -7.126835   -3.086955   -2.519266
     44          1           0        4.334152   -2.306444    0.012009
     45          1           0        5.033995    0.568006    0.832055
     46          1           0        5.094674   -0.587585    2.310213
     47          1           0        2.627974    1.624068    0.032432
     48          1           0        3.415496   -0.884716   -1.815241
     49          1           0       -0.246684   -0.071288    3.635080
     50          1           0       -1.260923    0.478936    1.989258
     51          1           0        0.587757    2.728352    0.025941
     52          1           0        3.561100   -1.800563    3.245069
     53          1           0        2.011096   -1.261137    4.252514
     54          1           0        1.745928   -2.713282    2.822075
     55          1           0        6.570479   -2.387825    1.762445
     56          1           0        7.496893   -0.914851    1.415392
     57          1           0        8.196538   -2.316959    0.710078
     58          1           0       -1.109901   -1.986062    1.395338
     59          1           0       -0.532908   -2.586553    2.877855
     60          1           0       -1.877375   -0.431543   -0.366034
     61          1           0       -2.042771    4.880528   -1.526807
     62          1           0       -0.494584    4.328017   -1.126706
     63          1           0        7.762489   -1.131692   -3.279067
     64          1           0       -0.933910    4.686336    1.419756
     65          1           0       -2.710095    5.287991    0.760681
     66          1           0       -3.972023    4.198771   -2.011077
     67          1           0       -5.217201    3.467727   -1.155562
     68          1           0       -4.768821    2.675718   -2.689081
     69          1           0       -5.220284    0.450106   -1.484107
     70          1           0        9.386830   -0.625035   -0.597696
     71          1           0       10.044158   -0.957601   -2.406881
     72          1           0       -3.689957   -2.889371    3.946316
     73          1           0       -6.452361   -1.246707   -1.947376
     74          1           0       -4.453414   -5.283263   -2.278532
     75          1           0       -3.594112   -5.437712   -0.801103
     76          1           0       -5.335472   -5.340815   -0.894509
     77          1           0       -0.784254    8.284997    1.520501
     78          1           0       -8.170675   -2.725326   -2.796481
     79          1           0       -6.908795   -4.057342   -2.388265
 ---------------------------------------------------------------------

 SCF Done:  E(RB3LYP) =  -1947.77674429     A.U. after   16 cycles

 Excitation energies and oscillator strengths:

 Excited State   1:      Singlet-A      2.1820 eV  568.21 nm  f=0.1756  <S**2>=0.000
     154 ->156         0.36352
     155 ->156         0.59488
 This state for optimization and/or second-order correction.
 Total Energy, E(TD-HF/TD-KS) =  -1947.69655624
 Copying the excited state density for this state as the 1-particle RhoCI density.

 The electronic state is 1-A.
 Alpha  occ. eigenvalues --  -19.17573 -19.17514 -19.14384 -19.10637 -19.10390
 Alpha  occ. eigenvalues --  -19.08843 -14.36419 -14.36395 -14.36215 -14.29300
 Alpha  occ. eigenvalues --  -10.32568 -10.30367 -10.27881 -10.26548 -10.26043
 Alpha  occ. eigenvalues --  -10.25454 -10.25230 -10.24120 -10.23975 -10.23537
 Alpha  occ. eigenvalues --  -10.23490 -10.23239 -10.22352 -10.22336 -10.22155
 Alpha  occ. eigenvalues --  -10.21737 -10.21702 -10.21562 -10.21522 -10.21011
 Alpha  occ. eigenvalues --  -10.20942 -10.20243 -10.19941 -10.19848 -10.19781
 Alpha  occ. eigenvalues --  -10.19652 -10.19638 -10.19600 -10.19223 -10.19180
 Alpha  occ. eigenvalues --  -10.18841 -10.18744 -10.16077  -1.09367  -1.09035
 Alpha  occ. eigenvalues --   -1.02281  -0.99336  -0.98624  -0.98608  -0.98579
 Alpha  occ. eigenvalues --   -0.98145  -0.92164  -0.91344  -0.84028  -0.82775
 Alpha  occ. eigenvalues --   -0.82289  -0.81802  -0.80882  -0.79850  -0.78413
 Alpha  occ. eigenvalues --   -0.77777  -0.77020  -0.76009  -0.75479  -0.72930
 Alpha  occ. eigenvalues --   -0.71600  -0.71072  -0.70253  -0.69137  -0.68821
 Alpha  occ. eigenvalues --   -0.67364  -0.66272  -0.64430  -0.61863  -0.60221
 Alpha  occ. eigenvalues --   -0.59598  -0.58663  -0.57826  -0.57388  -0.56790
 Alpha  occ. eigenvalues --   -0.56456  -0.55425  -0.55316  -0.54060  -0.53424
 Alpha  occ. eigenvalues --   -0.52257  -0.51868  -0.50678  -0.50430  -0.49910
 Alpha  occ. eigenvalues --   -0.49101  -0.48507  -0.48045  -0.47817  -0.47599
 Alpha  occ. eigenvalues --   -0.47152  -0.46875  -0.46729  -0.46511  -0.45862
 Alpha  occ. eigenvalues --   -0.45590  -0.45508  -0.44961  -0.44557  -0.43644
 Alpha  occ. eigenvalues --   -0.43415  -0.43164  -0.42970  -0.42724  -0.42387
 Alpha  occ. eigenvalues --   -0.42084  -0.41602  -0.41376  -0.41117  -0.40995
 Alpha  occ. eigenvalues --   -0.40535  -0.40171  -0.39946  -0.39838  -0.39307
 Alpha  occ. eigenvalues --   -0.39198  -0.38752  -0.38687  -0.38553  -0.38388
 Alpha  occ. eigenvalues --   -0.38156  -0.37870  -0.37583  -0.37440  -0.37108
 Alpha  occ. eigenvalues --   -0.36855  -0.36565  -0.35904  -0.35416  -0.35331
 Alpha  occ. eigenvalues --   -0.34410  -0.34054  -0.32315  -0.32217  -0.31979
 Alpha  occ. eigenvalues --   -0.31462  -0.30872  -0.29579  -0.29378  -0.27688
 Alpha  occ. eigenvalues --   -0.26748  -0.26355  -0.25685  -0.25387  -0.24495
 Alpha  occ. eigenvalues --   -0.24448  -0.24323  -0.24129  -0.22072  -0.20642
 Alpha virt. eigenvalues --   -0.11217  -0.06439  -0.04391  -0.01880  -0.01033
 Alpha virt. eigenvalues --   -0.00488   0.00497   0.01326   0.01647   0.02119
 Alpha virt. eigenvalues --    0.02685   0.03420   0.04088   0.04567   0.04913

 Mulliken charges:
               1
     1  O   -0.310473
     2  O   -0.184719
     3  O   -0.247716
     4  O   -0.352490
     5  O   -0.162697
     6  O   -0.204669
     7  N   -0.020289
     8  N   -0.230020
     9  N   -0.131183
    10  N   -0.321225
    11  C    0.074714
    12  C    0.195347
    13  C   -0.026144
    14  C   -0.142040
    15  C   -0.105886
    16  C    0.106543
    17  C   -0.224111
    18  C    0.032189
    19  C   -0.030298
    20  C   -0.068571
    21  C    0.145450
    22  C    0.140197
    23  C   -0.069192
    24  C    0.001572
    25  C    0.087770
    26  C   -0.082036
    27  C    0.010107
    28  C    0.075652
    29  C    0.190739
    30  C    0.010405
    31  C   -0.113897
    32  C    0.030012
    33  C   -0.121625
    34  C    0.111316
    35  C    0.117153
    36  C   -0.050882
    37  C    0.162359
    38  C    0.078801
    39  C   -0.300845
    40  C    0.153515
    41  C   -0.048564
    42  C    0.289785
    43  C    0.034034
    44  H    0.045736
    45  H   -0.047823
    46  H    0.052513
    47  H    0.019410
    48  H    0.182843
    49  H    0.025886
    50  H    0.053282
    51  H   -0.052673
    52  H    0.023497
    53  H    0.054689
    54  H    0.085499
    55  H    0.033936
    56  H    0.030092
    57  H    0.028474
    58  H    0.048118
    59  H    0.023796
    60  H    0.164849
    61  H   -0.008677
    62  H   -0.011760
    63  H    0.037175
    64  H    0.088032
    65  H    0.073794
    66  H    0.005322
    67  H    0.031357
    68  H    0.044440
    69  H    0.029246
    70  H    0.027783
    71  H    0.036238
    72  H    0.200825
    73  H   -0.064545
    74  H    0.001627
    75  H    0.024238
    76  H   -0.048470
    77  H    0.255089
    78  H    0.038263
    79  H   -0.030189
 Sum of Mulliken charges =   0.00000

 Dipole moment (field-independent basis, Debye):
    X=              0.3490    Y=              3.2897    Z=              4.1695  Tot=              5.3225
 Quadrupole moment (field-independent basis, Debye-Ang):
   XX=           -222.7088   YY=           -245.1916   ZZ=           -268.2899
   XY=             -9.4010   XZ=             34.1707   YZ=              2.7574

 Normal termination of Gaussian 09 at Mon Jul  8 11:42:36 2019.
