 Gaussian 09, Revision D.01,
 Gaussian 09:  ES64L-G09RevD.01 24-Apr-2013

 --------------------------
 # td=(NStates=1) B3LYP/SVP
 --------------------------

 --
 TD
 --
 Symbolic Z-matrix:
 Charge =  0 Multiplicity = 1

                         Standard orientation:
 ---------------------------------------------------------------------
 Center     Atomic      Atomic             Coordinates (Angstroms)
 Number     Number       Type             X           Y           Z
 ---------------------------------------------------------------------
      1          8           0        5.296131   -0.294691   -3.407085
      2          8           0       -2.552144   -3.219262    3.351994
      3          8           0       -3.022964   -1.102477    3.517741
      4          8           0       -1.792925    7.119106    1.630802
      5          8           0       -0.589135    7.142210   -0.301566
      6          8           0       -1.936577   -4.051605   -0.082088
      7          7           0        2.262537    0.987688    0.550640
      8          7           0        4.459836   -0.547280   -1.329102
      9          7           0       -1.925342    0.668183   -0.464933
     10          7           0       -2.654969   -1.896541   -0.572395
     11          6           0        4.918311   -0.984861   -0.013712
     12          6           0        4.528876   -0.099349    1.221469
     13          6           0        3.056401    0.064383    1.366509
     14          6           0        2.110413   -0.582392    2.058969
     15          6           0        0.740421   -0.067133    1.816044
     16          6           0        0.968402    0.947135    0.803089
     17          6           0        6.303617   -1.329364   -0.202793
     18          6           0       -0.379974   -0.388011    2.579664
     19          6           0        6.661638   -0.953838   -1.434104
     20          6           0        0.074819    1.875624    0.130846
     21          6           0       -1.175156    1.812987   -0.345415
     22          6           0        5.394199   -0.526817   -2.228822
     23          6           0       -1.986723    2.904279   -0.940002
     24          6           0        2.312987   -1.484539    3.208263
     25          6           0        7.225015   -1.801932    0.883655
     26          6           0       -3.144774    2.362407   -1.352403
     27          6           0       -0.901761   -1.878586    2.439875
     28          6           0       -3.188656    0.822573   -1.011359
     29          6           0       -1.496313    4.408586   -0.910225
     30          6           0        7.937516   -0.893406   -2.143463
     31          6           0       -1.938060    5.086133    0.468371
     32          6           0       -4.338841    3.145659   -1.938041
     33          6           0       -4.092519   -0.099240   -1.415268
     34          6           0       -2.236376   -1.954606    3.116524
     35          6           0       -3.933804   -1.375615   -1.075418
     36          6           0        9.149950   -0.668028   -1.658456
     37          6           0       -1.343808    6.530374    0.465232
     38          6           0       -4.692549   -2.555967   -1.423107
     39          6           0       -4.035159   -3.745894   -1.176978
     40          6           0       -2.707586   -3.294771   -0.520548
     41          6           0       -5.994727   -2.281414   -2.036072
     42          6           0       -4.538994   -5.147242   -1.200631
     43          6           0       -6.841128   -3.288456   -2.537954
     44          1           0        4.234611   -1.970017    0.305581
     45          1           0        4.808200    0.908834    0.947164
     46          1           0        4.804574   -0.549053    2.271362
     47          1           0        2.571049    1.791921   -0.222377
     48          1           0        3.495560   -0.497321   -1.809877
     49          1           0       -0.161419   -0.269078    3.676685
     50          1           0       -1.440818    0.267677    2.387566
     51          1           0        0.637918    2.762653   -0.367411
     52          1           0        3.335173   -1.287348    3.599021
     53          1           0        1.659143   -1.358510    4.168310
     54          1           0        2.250893   -2.628195    2.941843
     55          1           0        6.741790   -2.562913    1.473437
     56          1           0        7.591990   -0.878893    1.650113
     57          1           0        8.031806   -2.228264    0.312111
     58          1           0       -1.078677   -2.281226    1.448229
     59          1           0       -0.315362   -2.544695    2.962342
     60          1           0       -1.696467   -0.272972   -0.078761
     61          1           0       -1.861851    5.017843   -1.858030
     62          1           0       -0.469263    4.420822   -1.092119
     63          1           0        7.824340   -0.966941   -3.159807
     64          1           0       -1.747620    4.528771    1.304338
     65          1           0       -3.158630    5.327229    0.190795
     66          1           0       -4.070596    4.168069   -2.117778
     67          1           0       -5.314375    2.878643   -1.362473
     68          1           0       -4.466704    2.799252   -2.899448
     69          1           0       -5.097424    0.375116   -1.771956
     70          1           0        9.283711   -0.561694   -0.462928
     71          1           0       10.177499   -0.695428   -2.261846
     72          1           0       -3.401620   -3.171787    3.943262
     73          1           0       -6.253523   -1.136274   -1.997642
     74          1           0       -4.655025   -5.619069   -2.156417
     75          1           0       -3.720609   -5.791046   -0.611272
     76          1           0       -5.487525   -5.230261   -0.626489
     77          1           0       -1.479668    8.112878    1.627498
     78          1           0       -7.812258   -3.117754   -2.699048
     79          1           0       -6.466288   -4.323643   -2.584273
 ---------------------------------------------------------------------

 SCF Done:  E(RB3LYP) =  -1947.82912631     A.U. after   17 cycles

 Excitation energies and oscillator strengths:

 Excited State   1:      Singlet-A      1.9188 eV  646.16 nm  f=0.1248  <S**2>=0.000
     154 ->156         0.40635
     155 ->156         0.57371
 This state for optimization and/or second-order correction.
 Total Energy, E(TD-HF/TD-KS) =  -1947.75861238
 Copying the excited state density for this state as the 1-particle RhoCI density.

 The electronic state is 1-A.
 Alpha  occ. eigenvalues --  -19.18968 -19.16669 -19.14523 -19.10830 -19.10358
 Alpha  occ. eigenvalues --  -19.09571 -14.39091 -14.37590 -14.36443 -14.28397
 Alpha  occ. eigenvalues --  -10.33921 -10.30134 -10.27609 -10.26471 -10.26380
 Alpha  occ. eigenvalues --  -10.25781 -10.24867 -10.24188 -10.23728 -10.23450
 Alpha  occ. eigenvalues --  -10.23405 -10.23346 -10.22795 -10.22643 -10.22112
 Alpha  occ. eigenvalues --  -10.21796 -10.21539 -10.21129 -10.21041 -10.20885
 Alpha  occ. eigenvalues --  -10.20844 -10.20713 -10.20376 -10.20336 -10.19785
 Alpha  occ. eigenvalues --  -10.19305 -10.19261 -10.19249 -10.19239 -10.19191
 Alpha  occ. eigenvalues --  -10.19128 -10.18877 -10.18368  -1.08581  -1.08517
 Alpha  occ. eigenvalues --   -1.03859  -1.03661  -0.99905  -0.98468  -0.97851
 Alpha  occ. eigenvalues --   -0.97436  -0.95575  -0.89632  -0.83235  -0.82774
 Alpha  occ. eigenvalues --   -0.82099  -0.81642  -0.80734  -0.78575  -0.78051
 Alpha  occ. eigenvalues --   -0.77776  -0.76910  -0.75945  -0.73741  -0.72784
 Alpha  occ. eigenvalues --   -0.71592  -0.71112  -0.69940  -0.69227  -0.68017
 Alpha  occ. eigenvalues --   -0.66994  -0.66345  -0.64348  -0.60691  -0.60156
 Alpha  occ. eigenvalues --   -0.59492  -0.58929  -0.57828  -0.57638  -0.57113
 Alpha  occ. eigenvalues --   -0.56306  -0.55568  -0.54523  -0.54211  -0.53072
 Alpha  occ. eigenvalues --   -0.51753  -0.51431  -0.50570  -0.50094  -0.49341
 Alpha  occ. eigenvalues --   -0.48891  -0.48677  -0.48452  -0.47899  -0.47667
 Alpha  occ. eigenvalues --   -0.46976  -0.46598  -0.46547  -0.46184  -0.45584
 Alpha  occ. eigenvalues --   -0.45236  -0.45145  -0.43937  -0.43698  -0.43531
 Alpha  occ. eigenvalues --   -0.43089  -0.42870  -0.42615  -0.42564  -0.42511
 Alpha  occ. eigenvalues --   -0.42402  -0.42036  -0.41894  -0.41608  -0.41298
 Alpha  occ. eigenvalues --   -0.40937  -0.40741  -0.40502  -0.40124  -0.40063
 Alpha  occ. eigenvalues --   -0.39898  -0.39413  -0.39273  -0.39101  -0.38923
 Alpha  occ. eigenvalues --   -0.38676  -0.38264  -0.37769  -0.37381  -0.36770
 Alpha  occ. eigenvalues --   -0.36509  -0.36142  -0.36016  -0.35608  -0.35454
 Alpha  occ. eigenvalues --   -0.34245  -0.34089  -0.32901  -0.31969  -0.31497
 Alpha  occ. eigenvalues --   -0.31222  -0.30244  -0.29559  -0.27930  -0.27042
 Alpha  occ. eigenvalues --   -0.26716  -0.26501  -0.26381  -0.25434  -0.25099
 Alpha  occ. eigenvalues --   -0.24336  -0.23555  -0.23078  -0.21028  -0.19700
 Alpha virt. eigenvalues --   -0.11397  -0.06328  -0.05322  -0.02129  -0.01567
 Alpha virt. eigenvalues --    0.00236   0.01804   0.02025   0.02091   0.02185
 Alpha virt. eigenvalues --    0.02541   0.03158   0.03584   0.04465   0.04695

 Mulliken charges:
               1
     1  O   -0.219052
     2  O   -0.193477
     3  O   -0.268151
     4  O   -0.244459
     5  O   -0.240154
     6  O   -0.157252
     7  N   -0.162017
     8  N   -0.146624
     9  N   -0.077900
    10  N   -0.400432
    11  C    0.051863
    12  C    0.245598
    13  C   -0.083264
    14  C   -0.099906
    15  C    0.019298
    16  C    0.040964
    17  C   -0.133471
    18  C   -0.094271
    19  C   -0.092769
    20  C   -0.097990
    21  C    0.083901
    22  C    0.087602
    23  C   -0.062520
    24  C    0.004974
    25  C    0.071169
    26  C   -0.190113
    27  C    0.078851
    28  C    0.108122
    29  C    0.078456
    30  C    0.044237
    31  C   -0.011012
    32  C    0.147664
    33  C   -0.117256
    34  C    0.096051
    35  C    0.152101
    36  C   -0.099113
    37  C    0.180363
    38  C    0.040833
    39  C   -0.188093
    40  C    0.152998
    41  C   -0.068142
    42  C    0.041177
    43  C    0.023977
    44  H    0.032738
    45  H   -0.018879
    46  H    0.034524
    47  H    0.167972
    48  H    0.154777
    49  H    0.014328
    50  H    0.059074
    51  H    0.000809
    52  H   -0.000532
    53  H    0.035585
    54  H    0.047596
    55  H    0.012224
    56  H    0.062101
    57  H    0.035085
    58  H    0.064099
    59  H   -0.006913
    60  H    0.158921
    61  H    0.037940
    62  H   -0.004613
    63  H   -0.018965
    64  H    0.041671
    65  H    0.085044
    66  H   -0.000311
    67  H    0.050800
    68  H   -0.001604
    69  H    0.019952
    70  H    0.035135
    71  H    0.055219
    72  H    0.200117
    73  H    0.009318
    74  H    0.033859
    75  H    0.040853
    76  H    0.036125
    77  H    0.212236
    78  H   -0.009747
    79  H    0.020705
 Sum of Mulliken charges =   0.00000

 Dipole moment (field-independent basis, Debye):
    X=             -0.2294    Y=              3.5017    Z=              3.2587  Tot=              4.7889
 Quadrupole moment (field-independent basis, Debye-Ang):
   XX=           -227.0854   YY=           -246.6152   ZZ=           -264.5622
   XY=            -12.4396   XZ=             32.0466   YZ=             -1.6877

 Normal termination of Gaussian 09 at Tue Jul  9 17:38:37 2019.
