 Gaussian 09, Revision D.01,
 Gaussian 09:  ES64L-G09RevD.01 24-Apr-2013

 --------------------------
 # td=(NStates=1) B3LYP/SVP
 --------------------------

 --
 TD
 --
 Symbolic Z-matrix:
 Charge =  0 Multiplicity = 1

                         Standard orientation:
 ---------------------------------------------------------------------
 Center     Atomic      Atomic             Coordinates (Angstroms)
 Number     Number       Type             X           Y           Z
 ---------------------------------------------------------------------
      1          8           0        5.285598   -0.269421   -3.389858
      2          8           0       -2.820682   -3.316376    3.224459
      3          8           0       -3.162896   -1.063092    3.311853
      4          8           0       -1.207799    7.205226    1.565703
      5          8           0       -0.239531    6.929166   -0.464517
      6          8           0       -2.058698   -4.002059   -0.172679
      7          7           0        2.304070    0.857568    0.698051
      8          7           0        4.324510   -0.822971   -1.341268
      9          7           0       -1.925279    0.683069   -0.274061
     10          7           0       -2.780023   -1.743349   -0.478126
     11          6           0        4.793950   -1.226753   -0.033290
     12          6           0        4.392550   -0.262242    1.193789
     13          6           0        2.962337    0.001172    1.411849
     14          6           0        1.976541   -0.653078    2.252387
     15          6           0        0.725390   -0.099849    1.938428
     16          6           0        0.933402    0.832334    0.897353
     17          6           0        6.213194   -1.393968   -0.195608
     18          6           0       -0.625952   -0.365053    2.540727
     19          6           0        6.597180   -1.012181   -1.469825
     20          6           0        0.119966    1.880372    0.239754
     21          6           0       -1.147195    1.870085   -0.168025
     22          6           0        5.378174   -0.725346   -2.240293
     23          6           0       -1.864331    2.977243   -0.840063
     24          6           0        2.356427   -1.794872    3.318764
     25          6           0        7.067772   -1.973644    0.816133
     26          6           0       -3.056194    2.494965   -1.156973
     27          6           0       -1.064634   -1.820789    2.492520
     28          6           0       -3.135227    1.017200   -0.934170
     29          6           0       -1.373484    4.425651   -0.829776
     30          6           0        7.877716   -0.892624   -2.267982
     31          6           0       -1.352817    5.074440    0.550664
     32          6           0       -4.253333    3.228933   -1.853443
     33          6           0       -4.048582    0.091597   -1.325646
     34          6           0       -2.415331   -1.996609    3.014420
     35          6           0       -3.949220   -1.232588   -1.013751
     36          6           0        9.109381   -0.858567   -1.770196
     37          6           0       -0.831320    6.488273    0.430536
     38          6           0       -4.750558   -2.298390   -1.475806
     39          6           0       -4.154128   -3.539922   -1.136202
     40          6           0       -2.842662   -3.164273   -0.473781
     41          6           0       -6.012339   -1.988136   -2.209735
     42          6           0       -4.649175   -4.968996   -1.387195
     43          6           0       -6.953455   -2.802856   -2.750591
     44          1           0        4.403876   -2.148243    0.138107
     45          1           0        4.983044    0.684857    0.966109
     46          1           0        5.018112   -0.810093    2.100387
     47          1           0        2.777077    1.545907    0.134845
     48          1           0        3.418354   -0.716405   -1.703488
     49          1           0       -0.575787   -0.316623    3.719187
     50          1           0       -1.419536    0.343075    2.132962
     51          1           0        0.665813    2.965170    0.065729
     52          1           0        3.410606   -2.080551    3.464977
     53          1           0        1.682566   -1.881504    4.197966
     54          1           0        2.037146   -2.773781    2.878090
     55          1           0        6.636958   -2.638202    1.455307
     56          1           0        7.574779   -1.383484    1.437552
     57          1           0        7.930878   -2.603399    0.458108
     58          1           0       -1.400519   -2.313524    1.389777
     59          1           0       -0.482057   -2.724019    2.880721
     60          1           0       -1.780423   -0.399283   -0.051426
     61          1           0       -2.059661    5.053025   -1.447893
     62          1           0       -0.288188    4.349199   -1.320733
     63          1           0        7.827668   -0.857413   -3.398707
     64          1           0       -0.780088    4.347388    1.224919
     65          1           0       -2.310890    5.103285    1.339535
     66          1           0       -3.693422    4.255829   -1.753645
     67          1           0       -5.203671    3.292289   -1.246256
     68          1           0       -4.587107    2.929212   -2.931965
     69          1           0       -4.880579    0.261557   -1.897820
     70          1           0        9.424362   -0.773572   -0.605154
     71          1           0        9.998286   -0.933668   -2.345122
     72          1           0       -3.740306   -3.240363    3.528045
     73          1           0       -6.149977   -0.820965   -2.279819
     74          1           0       -5.060126   -5.062080   -2.483927
     75          1           0       -3.827176   -5.664639   -1.076646
     76          1           0       -5.513571   -5.264723   -0.685523
     77          1           0       -0.906236    8.176249    1.560652
     78          1           0       -7.974822   -2.444184   -3.400806
     79          1           0       -7.130534   -4.013257   -2.665758
 ---------------------------------------------------------------------

 SCF Done:  E(RB3LYP) =  -1947.85334890     A.U. after   17 cycles

 Excitation energies and oscillator strengths:

 Excited State   1:      Singlet-A      2.0643 eV  600.62 nm  f=0.2912  <S**2>=0.000
     154 ->156         0.33618
     155 ->156         0.61733
 This state for optimization and/or second-order correction.
 Total Energy, E(TD-HF/TD-KS) =  -1947.77748834
 Copying the excited state density for this state as the 1-particle RhoCI density.

 The electronic state is 1-A.
 Alpha  occ. eigenvalues --  -19.18097 -19.15995 -19.14457 -19.11291 -19.10506
 Alpha  occ. eigenvalues --  -19.09208 -14.39380 -14.36410 -14.34827 -14.29125
 Alpha  occ. eigenvalues --  -10.32989 -10.30096 -10.27625 -10.26888 -10.25258
 Alpha  occ. eigenvalues --  -10.24529 -10.24462 -10.24228 -10.23579 -10.23529
 Alpha  occ. eigenvalues --  -10.23345 -10.23292 -10.23171 -10.22948 -10.22249
 Alpha  occ. eigenvalues --  -10.22239 -10.22015 -10.21962 -10.21718 -10.21710
 Alpha  occ. eigenvalues --  -10.20794 -10.20785 -10.20781 -10.20592 -10.20435
 Alpha  occ. eigenvalues --  -10.20382 -10.20364 -10.20215 -10.20163 -10.20107
 Alpha  occ. eigenvalues --  -10.20005 -10.19241 -10.18495  -1.10533  -1.06276
 Alpha  occ. eigenvalues --   -1.03636  -1.01786  -1.01310  -1.01029  -0.97480
 Alpha  occ. eigenvalues --   -0.96349  -0.94176  -0.91600  -0.83239  -0.82775
 Alpha  occ. eigenvalues --   -0.82283  -0.80946  -0.79627  -0.78863  -0.78195
 Alpha  occ. eigenvalues --   -0.77645  -0.76887  -0.76129  -0.73675  -0.73118
 Alpha  occ. eigenvalues --   -0.72700  -0.70695  -0.69775  -0.69193  -0.68071
 Alpha  occ. eigenvalues --   -0.67812  -0.66313  -0.64655  -0.60380  -0.59931
 Alpha  occ. eigenvalues --   -0.59665  -0.59180  -0.58701  -0.58009  -0.57398
 Alpha  occ. eigenvalues --   -0.56663  -0.55877  -0.54250  -0.54219  -0.52711
 Alpha  occ. eigenvalues --   -0.52422  -0.52028  -0.51383  -0.50926  -0.49591
 Alpha  occ. eigenvalues --   -0.48805  -0.48615  -0.48400  -0.47619  -0.47343
 Alpha  occ. eigenvalues --   -0.47040  -0.46860  -0.46516  -0.45690  -0.45351
 Alpha  occ. eigenvalues --   -0.45196  -0.44828  -0.44428  -0.44266  -0.43816
 Alpha  occ. eigenvalues --   -0.43185  -0.42981  -0.42830  -0.42675  -0.42173
 Alpha  occ. eigenvalues --   -0.42010  -0.41805  -0.41588  -0.41058  -0.40786
 Alpha  occ. eigenvalues --   -0.40503  -0.40474  -0.40294  -0.39911  -0.39608
 Alpha  occ. eigenvalues --   -0.39397  -0.39143  -0.39018  -0.38852  -0.38637
 Alpha  occ. eigenvalues --   -0.38627  -0.37972  -0.37830  -0.37284  -0.37017
 Alpha  occ. eigenvalues --   -0.36952  -0.36156  -0.35308  -0.34604  -0.34515
 Alpha  occ. eigenvalues --   -0.33993  -0.33451  -0.32970  -0.31800  -0.31419
 Alpha  occ. eigenvalues --   -0.31087  -0.30052  -0.29998  -0.28811  -0.28038
 Alpha  occ. eigenvalues --   -0.27116  -0.26054  -0.25942  -0.25421  -0.25064
 Alpha  occ. eigenvalues --   -0.24269  -0.23711  -0.23608  -0.21760  -0.19816
 Alpha virt. eigenvalues --   -0.11291  -0.06449  -0.05934  -0.01145  -0.00817
 Alpha virt. eigenvalues --    0.00557   0.01158   0.02066   0.02433   0.02837
 Alpha virt. eigenvalues --    0.03699   0.04055   0.04204   0.04854   0.05281

 Mulliken charges:
               1
     1  O   -0.255330
     2  O   -0.220802
     3  O   -0.266046
     4  O   -0.259650
     5  O   -0.151381
     6  O   -0.175541
     7  N    0.012004
     8  N   -0.195939
     9  N   -0.192990
    10  N   -0.390911
    11  C    0.235354
    12  C    0.049568
    13  C   -0.062631
    14  C   -0.127986
    15  C   -0.043458
    16  C    0.028473
    17  C   -0.206066
    18  C    0.090920
    19  C   -0.032540
    20  C   -0.119087
    21  C    0.103065
    22  C    0.126825
    23  C   -0.066783
    24  C    0.092076
    25  C    0.173657
    26  C   -0.103186
    27  C   -0.084725
    28  C    0.198513
    29  C    0.051198
    30  C    0.010867
    31  C   -0.099522
    32  C    0.022476
    33  C   -0.087310
    34  C    0.124850
    35  C    0.127328
    36  C   -0.069730
    37  C    0.167958
    38  C    0.026046
    39  C   -0.180479
    40  C    0.176054
    41  C    0.007536
    42  C    0.032604
    43  C   -0.161022
    44  H   -0.023095
    45  H    0.006291
    46  H    0.038526
    47  H    0.110236
    48  H    0.108453
    49  H    0.026821
    50  H    0.047062
    51  H    0.030471
    52  H    0.005625
    53  H    0.018070
    54  H    0.010498
    55  H   -0.025296
    56  H   -0.011430
    57  H    0.021216
    58  H    0.094061
    59  H    0.042076
    60  H    0.207636
    61  H    0.032215
    62  H    0.061301
    63  H    0.040776
    64  H    0.052903
    65  H    0.072439
    66  H    0.017929
    67  H    0.039965
    68  H    0.061934
    69  H   -0.086185
    70  H    0.030202
    71  H    0.016812
    72  H    0.175559
    73  H    0.031264
    74  H    0.053605
    75  H    0.037684
    76  H    0.039948
    77  H    0.203450
    78  H    0.049775
    79  H    0.056946
 Sum of Mulliken charges =   0.00000

 Dipole moment (field-independent basis, Debye):
    X=              1.1326    Y=              2.7383    Z=              3.1789  Tot=              4.3459
 Quadrupole moment (field-independent basis, Debye-Ang):
   XX=           -220.7002   YY=           -239.0748   ZZ=           -269.9833
   XY=            -11.4813   XZ=             35.5945   YZ=              2.5309

 Normal termination of Gaussian 09 at Mon Jul  8 20:59:06 2019.
