 Gaussian 09, Revision D.01,
 Gaussian 09:  ES64L-G09RevD.01 24-Apr-2013

 --------------------------
 # td=(NStates=1) B3LYP/SVP
 --------------------------

 --
 TD
 --
 Symbolic Z-matrix:
 Charge =  0 Multiplicity = 1

                         Standard orientation:
 ---------------------------------------------------------------------
 Center     Atomic      Atomic             Coordinates (Angstroms)
 Number     Number       Type             X           Y           Z
 ---------------------------------------------------------------------
      1          8           0        5.410593   -0.406256   -3.274120
      2          8           0       -2.809660   -3.158378    3.143877
      3          8           0       -3.331580   -0.887970    3.037321
      4          8           0       -1.696824    7.178168    1.388234
      5          8           0       -0.988780    7.180684   -0.674059
      6          8           0       -1.783309   -3.973488   -0.178198
      7          7           0        2.338778    0.919037    0.511801
      8          7           0        4.500189   -0.688064   -1.199198
      9          7           0       -1.806473    0.555733   -0.436064
     10          7           0       -2.525148   -1.956400   -0.552949
     11          6           0        4.887183   -0.977501    0.032707
     12          6           0        4.471408   -0.074611    1.168429
     13          6           0        2.972197    0.188871    1.386681
     14          6           0        2.005728   -0.604427    2.063271
     15          6           0        0.754875    0.013166    1.735875
     16          6           0        1.000163    0.931359    0.738625
     17          6           0        6.442348   -1.177311   -0.017274
     18          6           0       -0.628775   -0.245820    2.442712
     19          6           0        6.710200   -0.886402   -1.287747
     20          6           0        0.258957    1.903092    0.015615
     21          6           0       -1.076186    1.789299   -0.389331
     22          6           0        5.591655   -0.672076   -2.097590
     23          6           0       -1.927904    2.843013   -0.838340
     24          6           0        2.270351   -1.679408    3.012864
     25          6           0        7.303865   -1.481368    1.127838
     26          6           0       -3.160483    2.306253   -1.144903
     27          6           0       -1.090398   -1.655448    2.437764
     28          6           0       -3.101420    0.934099   -0.988030
     29          6           0       -1.583921    4.251144   -0.959198
     30          6           0        7.958274   -0.879673   -2.018128
     31          6           0       -1.748403    5.104226    0.299353
     32          6           0       -4.334330    3.152030   -1.648745
     33          6           0       -4.048678   -0.112405   -1.179609
     34          6           0       -2.550361   -1.801063    2.933499
     35          6           0       -3.753262   -1.498373   -1.024009
     36          6           0        9.302031   -0.923331   -1.529766
     37          6           0       -1.448836    6.575185    0.259691
     38          6           0       -4.752667   -2.673952   -1.312301
     39          6           0       -3.995714   -3.781432   -1.138577
     40          6           0       -2.648950   -3.265224   -0.627143
     41          6           0       -6.211836   -2.371752   -1.779813
     42          6           0       -4.313592   -5.177888   -1.380079
     43          6           0       -7.044130   -3.407759   -2.117905
     44          1           0        4.500685   -2.029256    0.431932
     45          1           0        4.990093    1.031758    1.070866
     46          1           0        4.834881   -0.138166    2.197528
     47          1           0        2.919407    1.375526   -0.122031
     48          1           0        3.670552   -0.899151   -1.560535
     49          1           0       -0.350770    0.046615    3.476483
     50          1           0       -1.332927    0.372184    1.953258
     51          1           0        0.750104    2.915634   -0.166883
     52          1           0        3.457520   -1.763150    3.361466
     53          1           0        1.758032   -1.251520    3.808265
     54          1           0        1.758007   -2.542651    2.744271
     55          1           0        6.847106   -2.089346    1.906451
     56          1           0        7.747432   -0.592161    1.494767
     57          1           0        8.192151   -2.244288    0.858559
     58          1           0       -1.077635   -1.970070    1.313867
     59          1           0       -0.486898   -2.276416    2.985095
     60          1           0       -1.515151   -0.594720   -0.312223
     61          1           0       -1.985471    4.692306   -1.836705
     62          1           0       -0.395330    4.131247   -0.994871
     63          1           0        7.905055   -0.734215   -3.151758
     64          1           0       -1.201405    4.740618    1.060533
     65          1           0       -2.789319    4.921517    0.736739
     66          1           0       -4.136130    4.188215   -1.588496
     67          1           0       -5.254714    3.262680   -0.955216
     68          1           0       -4.839754    2.702305   -2.624656
     69          1           0       -5.115065    0.105359   -1.452973
     70          1           0        9.475842   -0.698921   -0.362031
     71          1           0       10.084406   -0.967657   -1.944988
     72          1           0       -3.628218   -3.342709    3.622368
     73          1           0       -6.839728   -1.394738   -1.693035
     74          1           0       -4.335757   -5.333134   -2.481166
     75          1           0       -3.334835   -5.686240   -1.008206
     76          1           0       -5.154682   -5.685819   -0.701719
     77          1           0       -1.311361    8.082658    1.399107
     78          1           0       -8.182274   -3.198813   -2.409239
     79          1           0       -6.635122   -4.276787   -1.922988
 ---------------------------------------------------------------------

 SCF Done:  E(RB3LYP) =  -1947.79160969     A.U. after   19 cycles

 Excitation energies and oscillator strengths:

 Excited State   1:      Singlet-A      2.1505 eV  576.54 nm  f=0.5321  <S**2>=0.000
     155 ->156         0.70843
     155 <-156        -0.12973
 This state for optimization and/or second-order correction.
 Total Energy, E(TD-HF/TD-KS) =  -1947.71258009
 Copying the excited state density for this state as the 1-particle RhoCI density.

 The electronic state is 1-A.
 Alpha  occ. eigenvalues --  -19.19082 -19.16249 -19.12283 -19.12033 -19.10948
 Alpha  occ. eigenvalues --  -19.08239 -14.37716 -14.35440 -14.34581 -14.29290
 Alpha  occ. eigenvalues --  -10.32302 -10.31027 -10.28714 -10.25664 -10.24869
 Alpha  occ. eigenvalues --  -10.24403 -10.23927 -10.23636 -10.23242 -10.22703
 Alpha  occ. eigenvalues --  -10.22543 -10.22446 -10.22395 -10.22106 -10.21590
 Alpha  occ. eigenvalues --  -10.21536 -10.21311 -10.21182 -10.21068 -10.21058
 Alpha  occ. eigenvalues --  -10.20851 -10.20405 -10.20312 -10.19902 -10.19453
 Alpha  occ. eigenvalues --  -10.19440 -10.19368 -10.19314 -10.19170 -10.19139
 Alpha  occ. eigenvalues --  -10.18925 -10.18561 -10.18079  -1.11880  -1.06420
 Alpha  occ. eigenvalues --   -1.04136  -1.01475  -1.01324  -1.00928  -0.99412
 Alpha  occ. eigenvalues --   -0.97249  -0.94775  -0.90992  -0.84249  -0.83078
 Alpha  occ. eigenvalues --   -0.82228  -0.81368  -0.79926  -0.79221  -0.77924
 Alpha  occ. eigenvalues --   -0.77334  -0.76605  -0.75379  -0.74608  -0.73502
 Alpha  occ. eigenvalues --   -0.72952  -0.71962  -0.69530  -0.69011  -0.68574
 Alpha  occ. eigenvalues --   -0.66931  -0.66215  -0.63981  -0.63361  -0.61620
 Alpha  occ. eigenvalues --   -0.60842  -0.59765  -0.58811  -0.57590  -0.56482
 Alpha  occ. eigenvalues --   -0.55485  -0.55012  -0.54632  -0.54155  -0.53987
 Alpha  occ. eigenvalues --   -0.53370  -0.51959  -0.51512  -0.50939  -0.49916
 Alpha  occ. eigenvalues --   -0.49674  -0.48853  -0.48465  -0.48085  -0.47602
 Alpha  occ. eigenvalues --   -0.47201  -0.46720  -0.46635  -0.46199  -0.45739
 Alpha  occ. eigenvalues --   -0.45688  -0.45404  -0.44753  -0.44055  -0.43923
 Alpha  occ. eigenvalues --   -0.43699  -0.43517  -0.43366  -0.42771  -0.42336
 Alpha  occ. eigenvalues --   -0.42095  -0.41716  -0.41641  -0.41267  -0.40881
 Alpha  occ. eigenvalues --   -0.40688  -0.40455  -0.40153  -0.40098  -0.39672
 Alpha  occ. eigenvalues --   -0.39435  -0.39068  -0.38747  -0.38487  -0.38202
 Alpha  occ. eigenvalues --   -0.38049  -0.37566  -0.37172  -0.36997  -0.36437
 Alpha  occ. eigenvalues --   -0.35690  -0.35562  -0.34533  -0.34139  -0.34114
 Alpha  occ. eigenvalues --   -0.33546  -0.32866  -0.32803  -0.32371  -0.32002
 Alpha  occ. eigenvalues --   -0.31214  -0.30350  -0.28276  -0.28139  -0.27810
 Alpha  occ. eigenvalues --   -0.26948  -0.26938  -0.26700  -0.25139  -0.24800
 Alpha  occ. eigenvalues --   -0.24119  -0.23524  -0.23300  -0.22670  -0.18873
 Alpha virt. eigenvalues --   -0.10745  -0.07331  -0.05594  -0.00910  -0.00789
 Alpha virt. eigenvalues --    0.00521   0.01249   0.01710   0.02542   0.03145
 Alpha virt. eigenvalues --    0.04016   0.04450   0.04706   0.05112   0.05288

 Mulliken charges:
               1
     1  O   -0.205446
     2  O   -0.222646
     3  O   -0.206924
     4  O   -0.152358
     5  O   -0.222262
     6  O   -0.205358
     7  N    0.039047
     8  N   -0.062947
     9  N   -0.268944
    10  N   -0.255819
    11  C    0.087199
    12  C    0.084695
    13  C   -0.154479
    14  C   -0.182077
    15  C   -0.142659
    16  C    0.085391
    17  C   -0.140981
    18  C    0.171728
    19  C   -0.021899
    20  C   -0.139325
    21  C    0.124939
    22  C    0.121157
    23  C   -0.072772
    24  C    0.136441
    25  C    0.074158
    26  C   -0.086904
    27  C   -0.019844
    28  C    0.167903
    29  C    0.081554
    30  C   -0.057529
    31  C    0.043309
    32  C    0.068805
    33  C   -0.118537
    34  C    0.165216
    35  C    0.049091
    36  C    0.062592
    37  C    0.102413
    38  C    0.071679
    39  C   -0.222792
    40  C    0.115901
    41  C   -0.071607
    42  C    0.024746
    43  C    0.015839
    44  H    0.021697
    45  H   -0.010899
    46  H    0.002885
    47  H    0.088580
    48  H    0.086330
    49  H    0.002056
    50  H    0.002179
    51  H    0.011843
    52  H    0.027930
    53  H   -0.002649
    54  H    0.032555
    55  H    0.018061
    56  H    0.043128
    57  H    0.053693
    58  H    0.091265
    59  H   -0.016099
    60  H    0.245339
    61  H    0.024897
    62  H    0.017600
    63  H    0.040585
    64  H   -0.011947
    65  H    0.035225
    66  H   -0.003118
    67  H    0.021054
    68  H    0.053323
    69  H   -0.020753
    70  H    0.021271
    71  H   -0.087467
    72  H    0.175778
    73  H    0.034845
    74  H    0.044475
    75  H    0.034425
    76  H    0.060894
    77  H    0.193037
    78  H    0.050613
    79  H   -0.042323
 Sum of Mulliken charges =   0.00000

 Dipole moment (field-independent basis, Debye):
    X=              1.6930    Y=              2.6303    Z=              4.8382  Tot=              5.7613
 Quadrupole moment (field-independent basis, Debye-Ang):
   XX=           -211.2840   YY=           -249.0842   ZZ=           -261.6884
   XY=             -4.5999   XZ=             29.4156   YZ=              5.1870

 Normal termination of Gaussian 09 at Mon Jul  8 19:15:49 2019.
