 Gaussian 09, Revision D.01,
 Gaussian 09:  ES64L-G09RevD.01 24-Apr-2013

 --------------------------
 # td=(NStates=1) B3LYP/SVP
 --------------------------

 --
 TD
 --
 Symbolic Z-matrix:
 Charge =  0 Multiplicity = 1

                         Standard orientation:
 ---------------------------------------------------------------------
 Center     Atomic      Atomic             Coordinates (Angstroms)
 Number     Number       Type             X           Y           Z
 ---------------------------------------------------------------------
      1          8           0        5.529261   -0.153211   -3.364684
      2          8           0       -2.768980   -3.026519    3.452440
      3          8           0       -3.187305   -0.892149    3.435452
      4          8           0       -1.527759    7.296629    1.434109
      5          8           0       -0.119412    6.774417   -0.260285
      6          8           0       -2.236707   -4.015525    0.115169
      7          7           0        2.396132    0.921808    0.355074
      8          7           0        4.511933   -0.509531   -1.353691
      9          7           0       -1.961951    0.735306   -0.427299
     10          7           0       -2.784662   -1.727944   -0.388954
     11          6           0        4.829796   -1.170710   -0.152969
     12          6           0        4.452415   -0.398272    1.062576
     13          6           0        3.045748   -0.035708    1.230563
     14          6           0        2.091588   -0.615790    2.111379
     15          6           0        0.771496   -0.142028    1.694808
     16          6           0        0.991780    0.866642    0.632608
     17          6           0        6.330531   -1.457073   -0.218379
     18          6           0       -0.522176   -0.211388    2.414405
     19          6           0        6.722154   -0.946308   -1.474190
     20          6           0        0.168014    1.844178    0.077984
     21          6           0       -1.106993    1.766709   -0.457455
     22          6           0        5.485213   -0.501800   -2.202407
     23          6           0       -1.927869    2.944499   -0.849709
     24          6           0        2.237188   -1.735233    3.082328
     25          6           0        7.094102   -2.227067    0.923062
     26          6           0       -3.091424    2.485111   -1.343223
     27          6           0       -1.109738   -1.725416    2.563809
     28          6           0       -3.140972    1.044703   -1.042004
     29          6           0       -1.362020    4.242678   -0.768098
     30          6           0        8.155066   -0.869505   -1.945002
     31          6           0       -1.698045    5.087746    0.516909
     32          6           0       -4.328768    3.241849   -1.879532
     33          6           0       -4.035951    0.032049   -1.359716
     34          6           0       -2.390224   -1.804388    3.246872
     35          6           0       -3.887138   -1.259811   -1.008489
     36          6           0        9.302800   -1.029050   -1.308943
     37          6           0       -1.051545    6.521221    0.570804
     38          6           0       -4.863597   -2.447206   -1.553820
     39          6           0       -4.334821   -3.599960   -1.157896
     40          6           0       -3.014561   -3.202407   -0.451859
     41          6           0       -6.179522   -2.272429   -2.057619
     42          6           0       -4.700581   -4.939964   -1.366909
     43          6           0       -6.954025   -3.211129   -2.696421
     44          1           0        4.093300   -2.068820    0.005220
     45          1           0        4.974090    0.549639    1.096158
     46          1           0        4.895278   -0.953751    1.821192
     47          1           0        3.027831    1.521800   -0.135160
     48          1           0        3.619838   -0.635020   -1.825199
     49          1           0       -0.441539    0.211531    3.369889
     50          1           0       -1.369723    0.225027    1.739877
     51          1           0        0.532611    2.877411   -0.083094
     52          1           0        3.164716   -1.871401    3.548929
     53          1           0        1.513646   -1.705924    3.940930
     54          1           0        2.075463   -2.754193    2.676258
     55          1           0        6.629967   -3.052523    1.457537
     56          1           0        7.422565   -1.469885    1.720222
     57          1           0        8.003820   -2.853018    0.495257
     58          1           0       -1.133091   -2.335936    1.624059
     59          1           0       -0.554398   -2.443733    3.234914
     60          1           0       -1.789441   -0.363239   -0.293797
     61          1           0       -1.622570    4.985948   -1.615555
     62          1           0       -0.285306    4.440909   -0.660999
     63          1           0        8.136607   -0.625813   -3.189810
     64          1           0       -1.296562    4.483664    1.365048
     65          1           0       -2.813166    5.372643    0.920235
     66          1           0       -3.855223    4.214907   -2.076300
     67          1           0       -5.059967    3.338172   -1.190777
     68          1           0       -4.600374    2.595023   -2.762344
     69          1           0       -5.016107    0.333506   -1.695507
     70          1           0        9.554127   -1.203770   -0.051934
     71          1           0       10.267221   -1.050480   -1.711470
     72          1           0       -3.661663   -2.849694    3.705655
     73          1           0       -6.706588   -1.314888   -2.002223
     74          1           0       -4.888129   -5.109982   -2.613273
     75          1           0       -4.213181   -5.568263   -0.792600
     76          1           0       -5.759656   -5.152266   -0.842858
     77          1           0       -0.731764    8.059284    1.483150
     78          1           0       -8.116832   -3.020151   -2.791901
     79          1           0       -6.506266   -4.261763   -2.664055
 ---------------------------------------------------------------------

 SCF Done:  E(RB3LYP) =  -1947.80908188     A.U. after   16 cycles

 Excitation energies and oscillator strengths:

 Excited State   1:      Singlet-A      2.2042 eV  562.50 nm  f=0.5020  <S**2>=0.000
     155 ->156         0.70209
     155 <-156        -0.10494
 This state for optimization and/or second-order correction.
 Total Energy, E(TD-HF/TD-KS) =  -1947.72807979
 Copying the excited state density for this state as the 1-particle RhoCI density.

 The electronic state is 1-A.
 Alpha  occ. eigenvalues --  -19.22823 -19.16681 -19.12677 -19.10823 -19.09848
 Alpha  occ. eigenvalues --  -19.09522 -14.38462 -14.36230 -14.35876 -14.30855
 Alpha  occ. eigenvalues --  -10.33409 -10.29410 -10.28161 -10.27841 -10.25337
 Alpha  occ. eigenvalues --  -10.24302 -10.24013 -10.23585 -10.23519 -10.23499
 Alpha  occ. eigenvalues --  -10.23496 -10.22866 -10.22807 -10.21933 -10.21373
 Alpha  occ. eigenvalues --  -10.21247 -10.21217 -10.20821 -10.20783 -10.20732
 Alpha  occ. eigenvalues --  -10.20566 -10.20521 -10.20518 -10.20437 -10.20343
 Alpha  occ. eigenvalues --  -10.20226 -10.20152 -10.19929 -10.19901 -10.19699
 Alpha  occ. eigenvalues --  -10.19349 -10.18769 -10.18055  -1.13906  -1.11128
 Alpha  occ. eigenvalues --   -1.04072  -0.99398  -0.99080  -0.98776  -0.97817
 Alpha  occ. eigenvalues --   -0.96990  -0.95454  -0.90567  -0.83349  -0.82675
 Alpha  occ. eigenvalues --   -0.82222  -0.81337  -0.80732  -0.79994  -0.77315
 Alpha  occ. eigenvalues --   -0.77134  -0.76346  -0.75681  -0.74856  -0.72779
 Alpha  occ. eigenvalues --   -0.71555  -0.71349  -0.70060  -0.69447  -0.68445
 Alpha  occ. eigenvalues --   -0.67755  -0.66599  -0.63735  -0.61476  -0.61027
 Alpha  occ. eigenvalues --   -0.60419  -0.58723  -0.58282  -0.57791  -0.56881
 Alpha  occ. eigenvalues --   -0.55969  -0.55659  -0.55012  -0.54535  -0.53193
 Alpha  occ. eigenvalues --   -0.52309  -0.51860  -0.51666  -0.51024  -0.49810
 Alpha  occ. eigenvalues --   -0.48998  -0.48542  -0.48164  -0.48094  -0.47934
 Alpha  occ. eigenvalues --   -0.47502  -0.47080  -0.46660  -0.46122  -0.45782
 Alpha  occ. eigenvalues --   -0.45712  -0.45035  -0.44727  -0.44136  -0.43889
 Alpha  occ. eigenvalues --   -0.43794  -0.43371  -0.43291  -0.42994  -0.42855
 Alpha  occ. eigenvalues --   -0.42650  -0.41981  -0.41732  -0.41460  -0.41168
 Alpha  occ. eigenvalues --   -0.40812  -0.40550  -0.40019  -0.39969  -0.39284
 Alpha  occ. eigenvalues --   -0.39215  -0.39074  -0.38682  -0.38339  -0.38021
 Alpha  occ. eigenvalues --   -0.37718  -0.37555  -0.37408  -0.37209  -0.36762
 Alpha  occ. eigenvalues --   -0.35884  -0.35570  -0.35032  -0.33998  -0.33927
 Alpha  occ. eigenvalues --   -0.33630  -0.32462  -0.32383  -0.31924  -0.31492
 Alpha  occ. eigenvalues --   -0.31205  -0.30143  -0.28834  -0.28482  -0.28064
 Alpha  occ. eigenvalues --   -0.27465  -0.26065  -0.25928  -0.25529  -0.24606
 Alpha  occ. eigenvalues --   -0.24470  -0.24335  -0.23794  -0.22925  -0.19003
 Alpha virt. eigenvalues --   -0.10377  -0.06421  -0.06111  -0.01726  -0.01201
 Alpha virt. eigenvalues --   -0.00285   0.00692   0.01273   0.02072   0.02736
 Alpha virt. eigenvalues --    0.03644   0.03804   0.04247   0.04326   0.05087

 Mulliken charges:
               1
     1  O   -0.222181
     2  O   -0.105621
     3  O   -0.279487
     4  O   -0.132427
     5  O   -0.310815
     6  O   -0.243930
     7  N   -0.144166
     8  N   -0.066133
     9  N   -0.105385
    10  N   -0.333789
    11  C    0.006066
    12  C    0.251639
    13  C   -0.079759
    14  C   -0.100704
    15  C   -0.066578
    16  C    0.146791
    17  C   -0.098361
    18  C    0.080387
    19  C   -0.103375
    20  C   -0.091464
    21  C    0.034440
    22  C    0.077326
    23  C    0.040734
    24  C    0.100733
    25  C    0.018439
    26  C   -0.168983
    27  C   -0.050920
    28  C    0.090535
    29  C   -0.003728
    30  C    0.007638
    31  C   -0.092977
    32  C    0.147679
    33  C   -0.092817
    34  C    0.101394
    35  C    0.104461
    36  C   -0.091715
    37  C    0.135319
    38  C    0.075679
    39  C   -0.153913
    40  C    0.191804
    41  C   -0.075027
    42  C    0.107269
    43  C   -0.074520
    44  H    0.027247
    45  H   -0.026979
    46  H   -0.041954
    47  H    0.122177
    48  H    0.133910
    49  H    0.007470
    50  H    0.052795
    51  H   -0.012901
    52  H   -0.021772
    53  H    0.018349
    54  H    0.027549
    55  H    0.025988
    56  H    0.055318
    57  H    0.056617
    58  H    0.079508
    59  H    0.012058
    60  H    0.202942
    61  H    0.035253
    62  H    0.032048
    63  H    0.060901
    64  H    0.044495
    65  H    0.044737
    66  H    0.015182
    67  H    0.015552
    68  H    0.044131
    69  H   -0.032671
    70  H    0.037747
    71  H    0.015921
    72  H    0.146555
    73  H   -0.002206
    74  H    0.082311
    75  H   -0.035372
    76  H    0.032362
    77  H    0.246089
    78  H    0.051432
    79  H    0.017653
 Sum of Mulliken charges =   0.00000

 Dipole moment (field-independent basis, Debye):
    X=              0.4075    Y=              2.4218    Z=              3.8972  Tot=              4.6064
 Quadrupole moment (field-independent basis, Debye-Ang):
   XX=           -225.8249   YY=           -234.7982   ZZ=           -267.2212
   XY=            -13.4689   XZ=             35.6532   YZ=              8.8159

 Normal termination of Gaussian 09 at Mon Jul  8 15:27:12 2019.
