 Gaussian 09, Revision D.01,
 Gaussian 09:  ES64L-G09RevD.01 24-Apr-2013

 --------------------------
 # td=(NStates=1) B3LYP/SVP
 --------------------------

 --
 TD
 --
 Symbolic Z-matrix:
 Charge =  0 Multiplicity = 1

                         Standard orientation:
 ---------------------------------------------------------------------
 Center     Atomic      Atomic             Coordinates (Angstroms)
 Number     Number       Type             X           Y           Z
 ---------------------------------------------------------------------
      1          8           0        5.467661   -0.190819   -3.358648
      2          8           0       -2.924400   -3.099283    3.099158
      3          8           0       -3.240778   -0.906535    3.257415
      4          8           0       -1.576556    7.176766    1.577100
      5          8           0       -0.222742    6.891251   -0.256458
      6          8           0       -2.126175   -3.971832    0.007165
      7          7           0        2.338315    0.875738    0.537495
      8          7           0        4.524934   -0.686064   -1.251828
      9          7           0       -2.020267    0.680889   -0.328524
     10          7           0       -2.669506   -1.868595   -0.593897
     11          6           0        4.887555   -1.232887    0.010249
     12          6           0        4.511956   -0.236531    1.072968
     13          6           0        3.017004   -0.063169    1.322107
     14          6           0        2.123745   -0.744616    2.107186
     15          6           0        0.858885   -0.123844    1.777170
     16          6           0        0.993653    0.886358    0.870978
     17          6           0        6.355314   -1.365367   -0.234346
     18          6           0       -0.428861   -0.289966    2.545077
     19          6           0        6.730394   -1.002706   -1.340359
     20          6           0        0.144932    1.852018    0.219707
     21          6           0       -1.193965    1.771135   -0.232732
     22          6           0        5.488596   -0.546494   -2.186245
     23          6           0       -1.904965    2.891931   -0.832717
     24          6           0        2.427135   -1.825480    3.070068
     25          6           0        7.336889   -1.842482    0.894056
     26          6           0       -3.120881    2.441409   -1.303283
     27          6           0       -0.991081   -1.697722    2.387061
     28          6           0       -3.137461    1.009610   -0.919911
     29          6           0       -1.390339    4.369886   -0.935733
     30          6           0        7.945498   -0.796953   -2.166511
     31          6           0       -1.727844    5.078126    0.392010
     32          6           0       -4.312399    3.121142   -1.835665
     33          6           0       -4.072465    0.038542   -1.310109
     34          6           0       -2.468751   -1.801325    2.890998
     35          6           0       -3.895105   -1.320383   -1.064081
     36          6           0        9.213127   -0.964077   -1.564891
     37          6           0       -1.084717    6.471141    0.435018
     38          6           0       -4.913615   -2.483234   -1.460813
     39          6           0       -4.256721   -3.624970   -1.041908
     40          6           0       -2.852592   -3.224133   -0.551652
     41          6           0       -6.185648   -2.076668   -2.015559
     42          6           0       -4.579971   -5.107369   -1.151400
     43          6           0       -7.198929   -3.023574   -2.346732
     44          1           0        4.501341   -2.299160    0.278375
     45          1           0        4.876112    0.845567    0.944243
     46          1           0        4.800728   -0.553715    2.084179
     47          1           0        2.690410    1.641862    0.128994
     48          1           0        3.638690   -0.527487   -1.602765
     49          1           0       -0.123571   -0.163468    3.657890
     50          1           0       -1.224064    0.367772    2.396638
     51          1           0        0.517961    2.824067   -0.141352
     52          1           0        3.491959   -1.917749    3.271508
     53          1           0        1.845275   -1.683614    4.077945
     54          1           0        1.990432   -2.873770    2.705975
     55          1           0        6.986538   -2.525658    1.518895
     56          1           0        7.755782   -1.010421    1.557983
     57          1           0        8.127657   -2.384962    0.504342
     58          1           0       -1.304964   -1.912663    1.251886
     59          1           0       -0.416233   -2.632908    2.801780
     60          1           0       -1.712346   -0.288497   -0.139768
     61          1           0       -2.070984    4.893938   -1.636182
     62          1           0       -0.388623    4.448329   -1.124856
     63          1           0        7.871167   -0.572498   -3.216054
     64          1           0       -1.210556    4.462746    1.301805
     65          1           0       -2.821289    4.927663    0.613146
     66          1           0       -3.999136    4.187654   -2.187125
     67          1           0       -5.224108    3.092745   -1.345384
     68          1           0       -4.423189    2.689794   -2.932383
     69          1           0       -4.935478    0.476486   -1.847470
     70          1           0        9.179705   -1.387116   -0.467024
     71          1           0       10.038945   -0.665384   -2.104518
     72          1           0       -3.710338   -2.928304    3.464896
     73          1           0       -6.472849   -1.041875   -2.566071
     74          1           0       -4.985403   -5.186007   -2.424604
     75          1           0       -3.475314   -5.546157   -0.786302
     76          1           0       -5.493019   -5.471477   -0.602244
     77          1           0       -1.022504    8.021844    1.508225
     78          1           0       -8.121700   -2.634805   -2.902100
     79          1           0       -7.317684   -4.107030   -2.191122
 ---------------------------------------------------------------------

 SCF Done:  E(RB3LYP) =  -1947.84421996     A.U. after   16 cycles

 Excitation energies and oscillator strengths:

 Excited State   1:      Singlet-A      2.1808 eV  568.54 nm  f=0.3117  <S**2>=0.000
     154 ->156         0.32624
     155 ->156         0.62308
 This state for optimization and/or second-order correction.
 Total Energy, E(TD-HF/TD-KS) =  -1947.76407864
 Copying the excited state density for this state as the 1-particle RhoCI density.

 The electronic state is 1-A.
 Alpha  occ. eigenvalues --  -19.18370 -19.15660 -19.15133 -19.11410 -19.10814
 Alpha  occ. eigenvalues --  -19.09935 -14.37644 -14.37536 -14.35551 -14.29337
 Alpha  occ. eigenvalues --  -10.33844 -10.30975 -10.28392 -10.26025 -10.25743
 Alpha  occ. eigenvalues --  -10.25382 -10.25160 -10.24280 -10.23696 -10.23503
 Alpha  occ. eigenvalues --  -10.23421 -10.23199 -10.22568 -10.22506 -10.22398
 Alpha  occ. eigenvalues --  -10.22056 -10.22001 -10.21852 -10.21731 -10.21495
 Alpha  occ. eigenvalues --  -10.20911 -10.20896 -10.20844 -10.20159 -10.20152
 Alpha  occ. eigenvalues --  -10.20109 -10.20033 -10.19828 -10.19758 -10.19682
 Alpha  occ. eigenvalues --  -10.19466 -10.19384 -10.18414  -1.10208  -1.08164
 Alpha  occ. eigenvalues --   -1.03179  -1.02820  -1.01378  -1.01038  -0.99319
 Alpha  occ. eigenvalues --   -0.97830  -0.96366  -0.89709  -0.83798  -0.83074
 Alpha  occ. eigenvalues --   -0.82440  -0.82315  -0.80519  -0.79096  -0.78648
 Alpha  occ. eigenvalues --   -0.77456  -0.76378  -0.74881  -0.73724  -0.73053
 Alpha  occ. eigenvalues --   -0.72320  -0.72210  -0.70342  -0.68469  -0.67953
 Alpha  occ. eigenvalues --   -0.67188  -0.66224  -0.63753  -0.60693  -0.60479
 Alpha  occ. eigenvalues --   -0.60067  -0.59244  -0.58681  -0.58299  -0.57837
 Alpha  occ. eigenvalues --   -0.57213  -0.56599  -0.55211  -0.54722  -0.53282
 Alpha  occ. eigenvalues --   -0.52759  -0.51735  -0.51020  -0.50717  -0.50067
 Alpha  occ. eigenvalues --   -0.49461  -0.49088  -0.48739  -0.47835  -0.47683
 Alpha  occ. eigenvalues --   -0.47112  -0.46774  -0.46658  -0.46426  -0.46218
 Alpha  occ. eigenvalues --   -0.45655  -0.45185  -0.45028  -0.44627  -0.43293
 Alpha  occ. eigenvalues --   -0.43220  -0.43007  -0.42915  -0.42833  -0.42454
 Alpha  occ. eigenvalues --   -0.42163  -0.41907  -0.41819  -0.41651  -0.41485
 Alpha  occ. eigenvalues --   -0.41168  -0.40946  -0.40598  -0.40138  -0.40024
 Alpha  occ. eigenvalues --   -0.39785  -0.39622  -0.39543  -0.39169  -0.38777
 Alpha  occ. eigenvalues --   -0.37893  -0.37661  -0.37424  -0.37160  -0.36565
 Alpha  occ. eigenvalues --   -0.36183  -0.36056  -0.35920  -0.35088  -0.34707
 Alpha  occ. eigenvalues --   -0.34469  -0.33851  -0.33615  -0.32879  -0.32150
 Alpha  occ. eigenvalues --   -0.31284  -0.30623  -0.30190  -0.28576  -0.27405
 Alpha  occ. eigenvalues --   -0.27348  -0.27113  -0.26493  -0.25455  -0.25078
 Alpha  occ. eigenvalues --   -0.24545  -0.24327  -0.24168  -0.21791  -0.19876
 Alpha virt. eigenvalues --   -0.11140  -0.06601  -0.04734  -0.02049  -0.01720
 Alpha virt. eigenvalues --    0.00759   0.01016   0.01554   0.02652   0.02682
 Alpha virt. eigenvalues --    0.03859   0.04033   0.04148   0.04592   0.04770

 Mulliken charges:
               1
     1  O   -0.229290
     2  O   -0.147936
     3  O   -0.268946
     4  O   -0.257777
     5  O   -0.181425
     6  O   -0.186208
     7  N   -0.051715
     8  N   -0.135840
     9  N    0.006092
    10  N   -0.336010
    11  C    0.162150
    12  C    0.175802
    13  C   -0.137007
    14  C   -0.063177
    15  C   -0.124148
    16  C    0.122195
    17  C   -0.232365
    18  C    0.110548
    19  C   -0.011441
    20  C   -0.057217
    21  C    0.018273
    22  C    0.116584
    23  C   -0.123206
    24  C    0.039803
    25  C    0.148792
    26  C   -0.124936
    27  C   -0.100353
    28  C    0.047935
    29  C    0.184962
    30  C   -0.016216
    31  C   -0.100950
    32  C    0.085382
    33  C   -0.105143
    34  C    0.135744
    35  C    0.103241
    36  C   -0.004633
    37  C    0.185031
    38  C    0.113659
    39  C   -0.190972
    40  C    0.155109
    41  C   -0.076665
    42  C   -0.056471
    43  C   -0.086712
    44  H    0.041297
    45  H    0.010801
    46  H   -0.002751
    47  H    0.074043
    48  H    0.091722
    49  H    0.019852
    50  H   -0.006253
    51  H   -0.017160
    52  H    0.007467
    53  H    0.034388
    54  H    0.055734
    55  H   -0.047055
    56  H    0.040114
    57  H    0.004915
    58  H    0.104859
    59  H    0.058796
    60  H    0.158231
    61  H    0.016019
    62  H   -0.002189
    63  H    0.013240
    64  H    0.069656
    65  H    0.053263
    66  H    0.016200
    67  H    0.043389
    68  H    0.036945
    69  H   -0.026446
    70  H    0.034299
    71  H    0.004272
    72  H    0.116781
    73  H    0.054112
    74  H    0.047039
    75  H    0.088891
    76  H    0.050396
    77  H    0.190003
    78  H    0.028099
    79  H    0.032484
 Sum of Mulliken charges =   0.00000

 Dipole moment (field-independent basis, Debye):
    X=              0.6065    Y=              3.9648    Z=              2.1776  Tot=              4.5639
 Quadrupole moment (field-independent basis, Debye-Ang):
   XX=           -230.3053   YY=           -250.3476   ZZ=           -266.1018
   XY=            -14.2069   XZ=             40.2454   YZ=             -3.6863

 Normal termination of Gaussian 09 at Tue Jul  9 12:22:14 2019.
