 Gaussian 09, Revision D.01,
 Gaussian 09:  ES64L-G09RevD.01 24-Apr-2013

 --------------------------
 # td=(NStates=1) B3LYP/SVP
 --------------------------

 --
 TD
 --
 Symbolic Z-matrix:
 Charge =  0 Multiplicity = 1

                         Standard orientation:
 ---------------------------------------------------------------------
 Center     Atomic      Atomic             Coordinates (Angstroms)
 Number     Number       Type             X           Y           Z
 ---------------------------------------------------------------------
      1          8           0        5.378363    0.025752   -3.346350
      2          8           0       -2.930615   -2.937959    3.380558
      3          8           0       -3.303986   -0.802980    3.405325
      4          8           0       -1.750945    7.299409    1.289045
      5          8           0       -0.301397    6.886515   -0.330149
      6          8           0       -2.029615   -4.058784   -0.022685
      7          7           0        2.436929    0.890951    0.665049
      8          7           0        4.321852   -0.581979   -1.366132
      9          7           0       -1.904668    0.672707   -0.244977
     10          7           0       -2.766432   -1.812244   -0.494025
     11          6           0        4.810962   -1.244457   -0.013186
     12          6           0        4.482289   -0.398320    1.290402
     13          6           0        3.069649   -0.115086    1.377735
     14          6           0        1.999069   -0.694014    2.186656
     15          6           0        0.767460   -0.068762    1.918222
     16          6           0        0.998239    0.992445    0.866121
     17          6           0        6.350456   -1.464263   -0.196533
     18          6           0       -0.547735   -0.211293    2.568647
     19          6           0        6.665994   -0.929917   -1.399525
     20          6           0        0.217023    1.882952    0.093295
     21          6           0       -1.043961    1.728389   -0.436686
     22          6           0        5.361937   -0.445778   -2.214754
     23          6           0       -1.830703    2.902571   -0.879869
     24          6           0        2.175383   -1.641458    3.223514
     25          6           0        7.115388   -2.204198    0.846450
     26          6           0       -3.078947    2.405347   -1.321525
     27          6           0       -1.123942   -1.641714    2.498736
     28          6           0       -3.065130    0.958330   -1.016015
     29          6           0       -1.285644    4.267113   -0.921753
     30          6           0        8.004343   -0.898132   -2.027976
     31          6           0       -1.672145    5.121187    0.391379
     32          6           0       -4.241001    3.201055   -1.820860
     33          6           0       -4.075008    0.051108   -1.240957
     34          6           0       -2.550291   -1.721797    3.063986
     35          6           0       -3.821350   -1.391637   -0.984241
     36          6           0        9.203281   -0.870690   -1.516611
     37          6           0       -1.130916    6.487854    0.411339
     38          6           0       -4.765519   -2.513409   -1.525627
     39          6           0       -4.139418   -3.678915   -1.231376
     40          6           0       -2.824349   -3.305266   -0.593857
     41          6           0       -6.026605   -2.303326   -2.180913
     42          6           0       -4.499085   -5.141453   -1.302465
     43          6           0       -6.855316   -3.233106   -2.677705
     44          1           0        4.236069   -2.080498    0.016183
     45          1           0        4.957675    0.548968    1.113519
     46          1           0        4.827946   -0.892621    2.277543
     47          1           0        3.057606    1.385035   -0.055074
     48          1           0        3.433884   -0.383209   -1.599651
     49          1           0       -0.466470    0.071956    3.529372
     50          1           0       -1.455026    0.465079    2.094214
     51          1           0        0.814480    2.690649   -0.230933
     52          1           0        3.357022   -1.680029    3.488336
     53          1           0        1.645564   -1.496222    3.906794
     54          1           0        2.141094   -2.640398    2.714975
     55          1           0        6.407877   -2.796442    1.448300
     56          1           0        7.745816   -1.509440    1.426107
     57          1           0        7.900331   -2.820989    0.374304
     58          1           0       -1.192916   -2.050208    1.534422
     59          1           0       -0.508062   -2.278950    3.272194
     60          1           0       -1.741461   -0.300445   -0.116962
     61          1           0       -1.495265    4.832730   -1.760484
     62          1           0       -0.132187    3.953120   -0.928514
     63          1           0        7.936994   -0.649527   -3.164892
     64          1           0       -1.130377    4.719486    1.239930
     65          1           0       -2.748517    5.055326    0.689153
     66          1           0       -3.841748    4.278231   -1.958390
     67          1           0       -5.106886    3.067177   -1.190268
     68          1           0       -4.349456    2.907830   -2.774999
     69          1           0       -5.006183    0.344563   -1.722377
     70          1           0        9.375918   -1.026950   -0.449415
     71          1           0       10.236837   -0.610885   -2.029483
     72          1           0       -3.832512   -2.952479    3.558694
     73          1           0       -6.284388   -1.283758   -2.283729
     74          1           0       -4.367566   -5.534611   -2.389040
     75          1           0       -3.726184   -5.637902   -0.817170
     76          1           0       -5.528921   -5.379234   -0.973263
     77          1           0       -1.508245    8.209953    1.131639
     78          1           0       -7.825367   -2.948739   -3.137588
     79          1           0       -6.802036   -4.346420   -2.563099
 ---------------------------------------------------------------------

 SCF Done:  E(RB3LYP) =  -1947.86990444     A.U. after   16 cycles

 Excitation energies and oscillator strengths:

 Excited State   1:      Singlet-A      1.9024 eV  651.73 nm  f=0.4114  <S**2>=0.000
     155 ->156         0.70484
     155 <-156        -0.10309
 This state for optimization and/or second-order correction.
 Total Energy, E(TD-HF/TD-KS) =  -1947.79999277
 Copying the excited state density for this state as the 1-particle RhoCI density.

 The electronic state is 1-A.
 Alpha  occ. eigenvalues --  -19.17779 -19.16416 -19.12584 -19.12375 -19.10326
 Alpha  occ. eigenvalues --  -19.10294 -14.38997 -14.36304 -14.35632 -14.30274
 Alpha  occ. eigenvalues --  -10.31699 -10.30433 -10.29493 -10.28482 -10.26002
 Alpha  occ. eigenvalues --  -10.24121 -10.23787 -10.23599 -10.23571 -10.23334
 Alpha  occ. eigenvalues --  -10.22986 -10.22484 -10.21689 -10.21305 -10.21261
 Alpha  occ. eigenvalues --  -10.21033 -10.20902 -10.20747 -10.20547 -10.20535
 Alpha  occ. eigenvalues --  -10.20502 -10.20442 -10.20291 -10.20146 -10.19879
 Alpha  occ. eigenvalues --  -10.19708 -10.19629 -10.19563 -10.19464 -10.19015
 Alpha  occ. eigenvalues --  -10.18970 -10.18796 -10.18402  -1.10608  -1.09947
 Alpha  occ. eigenvalues --   -1.02077  -1.02066  -1.01551  -0.97479  -0.97045
 Alpha  occ. eigenvalues --   -0.96093  -0.93768  -0.93099  -0.83007  -0.82481
 Alpha  occ. eigenvalues --   -0.81945  -0.81540  -0.81359  -0.79676  -0.77820
 Alpha  occ. eigenvalues --   -0.77502  -0.76691  -0.76213  -0.74692  -0.72934
 Alpha  occ. eigenvalues --   -0.72033  -0.71747  -0.70106  -0.68994  -0.68917
 Alpha  occ. eigenvalues --   -0.67462  -0.66206  -0.63932  -0.61807  -0.61083
 Alpha  occ. eigenvalues --   -0.60954  -0.59774  -0.58867  -0.58344  -0.56747
 Alpha  occ. eigenvalues --   -0.56075  -0.55171  -0.55030  -0.53820  -0.53029
 Alpha  occ. eigenvalues --   -0.52494  -0.51451  -0.50689  -0.50478  -0.49771
 Alpha  occ. eigenvalues --   -0.49169  -0.48810  -0.47945  -0.47780  -0.47667
 Alpha  occ. eigenvalues --   -0.47377  -0.47227  -0.46616  -0.46054  -0.45856
 Alpha  occ. eigenvalues --   -0.45517  -0.45116  -0.44784  -0.44573  -0.44300
 Alpha  occ. eigenvalues --   -0.43993  -0.43848  -0.43681  -0.43312  -0.42926
 Alpha  occ. eigenvalues --   -0.42726  -0.42506  -0.41985  -0.41748  -0.41600
 Alpha  occ. eigenvalues --   -0.41313  -0.41175  -0.40671  -0.40314  -0.39958
 Alpha  occ. eigenvalues --   -0.39685  -0.39214  -0.38936  -0.38800  -0.38515
 Alpha  occ. eigenvalues --   -0.38390  -0.37967  -0.37787  -0.37528  -0.37196
 Alpha  occ. eigenvalues --   -0.36662  -0.36463  -0.35565  -0.35356  -0.35157
 Alpha  occ. eigenvalues --   -0.33963  -0.33299  -0.32849  -0.31991  -0.31840
 Alpha  occ. eigenvalues --   -0.31636  -0.30169  -0.29197  -0.29065  -0.28285
 Alpha  occ. eigenvalues --   -0.27308  -0.25873  -0.25781  -0.25608  -0.25062
 Alpha  occ. eigenvalues --   -0.24682  -0.24208  -0.23874  -0.23110  -0.17877
 Alpha virt. eigenvalues --   -0.10376  -0.06700  -0.05050  -0.00965   0.00338
 Alpha virt. eigenvalues --    0.01331   0.01385   0.01795   0.02721   0.03409
 Alpha virt. eigenvalues --    0.03821   0.04256   0.04969   0.05157   0.05667

 Mulliken charges:
               1
     1  O   -0.226279
     2  O   -0.115985
     3  O   -0.270221
     4  O   -0.181788
     5  O   -0.196981
     6  O   -0.203838
     7  N   -0.151638
     8  N   -0.188832
     9  N   -0.081210
    10  N   -0.250107
    11  C    0.120658
    12  C    0.203145
    13  C   -0.092023
    14  C   -0.168221
    15  C   -0.054663
    16  C    0.071649
    17  C   -0.154136
    18  C    0.050727
    19  C   -0.085007
    20  C   -0.094947
    21  C    0.134701
    22  C    0.174057
    23  C   -0.102455
    24  C    0.235242
    25  C    0.113462
    26  C   -0.174970
    27  C   -0.016876
    28  C    0.137304
    29  C    0.085611
    30  C   -0.000594
    31  C    0.028769
    32  C    0.188140
    33  C   -0.129395
    34  C    0.105187
    35  C    0.043752
    36  C   -0.084320
    37  C    0.086484
    38  C    0.033530
    39  C   -0.220085
    40  C    0.184316
    41  C    0.022457
    42  C    0.124193
    43  C   -0.043813
    44  H   -0.008454
    45  H   -0.015970
    46  H    0.033967
    47  H    0.132576
    48  H    0.093712
    49  H   -0.025819
    50  H    0.062422
    51  H   -0.029487
    52  H   -0.010550
    53  H   -0.078247
    54  H    0.028187
    55  H    0.029918
    56  H    0.041249
    57  H    0.035783
    58  H    0.051279
    59  H    0.042896
    60  H    0.134492
    61  H    0.001380
    62  H    0.034446
    63  H    0.033021
    64  H    0.032749
    65  H    0.047599
    66  H    0.012076
    67  H    0.041809
    68  H   -0.011869
    69  H   -0.027145
    70  H   -0.004352
    71  H    0.051557
    72  H    0.149924
    73  H   -0.034421
    74  H    0.030864
    75  H    0.001191
    76  H    0.039967
    77  H    0.173645
    78  H    0.027629
    79  H    0.026976
 Sum of Mulliken charges =   0.00000

 Dipole moment (field-independent basis, Debye):
    X=             -0.3174    Y=              0.5299    Z=              2.2688  Tot=              2.3514
 Quadrupole moment (field-independent basis, Debye-Ang):
   XX=           -218.1184   YY=           -241.6047   ZZ=           -267.1424
   XY=             -9.8941   XZ=             40.1714   YZ=              1.4438

 Normal termination of Gaussian 09 at Wed Jul 10 16:39:36 2019.
