 Gaussian 09, Revision D.01,
 Gaussian 09:  ES64L-G09RevD.01 24-Apr-2013

 --------------------------
 # td=(NStates=1) B3LYP/SVP
 --------------------------

 --
 TD
 --
 Symbolic Z-matrix:
 Charge =  0 Multiplicity = 1

                         Standard orientation:
 ---------------------------------------------------------------------
 Center     Atomic      Atomic             Coordinates (Angstroms)
 Number     Number       Type             X           Y           Z
 ---------------------------------------------------------------------
      1          8           0        5.321408   -0.074091   -3.293564
      2          8           0       -2.843512   -3.188982    3.060160
      3          8           0       -3.073523   -0.952981    3.320253
      4          8           0       -2.148111    7.278663    1.316784
      5          8           0       -0.731432    6.982139   -0.365631
      6          8           0       -1.813749   -4.019934   -0.070312
      7          7           0        2.335918    1.103062    0.717435
      8          7           0        4.453520   -0.464982   -1.257850
      9          7           0       -1.919586    0.629250   -0.310120
     10          7           0       -2.562138   -1.893831   -0.548420
     11          6           0        4.941132   -1.001342    0.034474
     12          6           0        4.482404   -0.087930    1.238941
     13          6           0        2.956362    0.143752    1.370737
     14          6           0        2.088462   -0.643630    2.178462
     15          6           0        0.790611   -0.098704    1.810205
     16          6           0        0.886474    0.968527    0.832985
     17          6           0        6.393926   -1.229012   -0.255451
     18          6           0       -0.525917   -0.366641    2.534973
     19          6           0        6.718876   -0.740052   -1.531129
     20          6           0        0.092305    1.942438    0.160462
     21          6           0       -1.223782    1.868006   -0.286600
     22          6           0        5.440568   -0.436520   -2.184197
     23          6           0       -1.989033    2.855991   -0.809738
     24          6           0        2.319814   -1.747804    3.218724
     25          6           0        7.267370   -1.710304    0.959248
     26          6           0       -3.167243    2.287029   -1.321439
     27          6           0       -1.026600   -1.832938    2.454999
     28          6           0       -3.172112    0.876126   -0.909155
     29          6           0       -1.606386    4.283705   -0.843926
     30          6           0        8.087980   -0.592874   -2.115612
     31          6           0       -2.152050    5.119051    0.396306
     32          6           0       -4.270136    3.017922   -1.887973
     33          6           0       -4.048803   -0.164526   -1.230234
     34          6           0       -2.347890   -1.961497    3.032581
     35          6           0       -3.665224   -1.508158   -1.147851
     36          6           0        9.298933   -0.737530   -1.547600
     37          6           0       -1.517885    6.531480    0.378614
     38          6           0       -4.612413   -2.610377   -1.516382
     39          6           0       -3.933724   -3.775694   -1.164123
     40          6           0       -2.663468   -3.356564   -0.551274
     41          6           0       -5.877624   -2.384672   -2.092153
     42          6           0       -4.270528   -5.248059   -1.148962
     43          6           0       -6.696858   -3.380289   -2.588479
     44          1           0        4.355346   -2.088817    0.293827
     45          1           0        5.090704    0.959685    1.268152
     46          1           0        5.026903   -0.654050    2.135640
     47          1           0        2.768238    1.632332   -0.016109
     48          1           0        3.417486   -0.543304   -1.616141
     49          1           0       -0.336032   -0.149352    3.731823
     50          1           0       -1.261725    0.232559    2.028325
     51          1           0        0.503621    2.948080    0.098664
     52          1           0        3.281573   -1.557367    3.750022
     53          1           0        1.682626   -1.639663    3.984975
     54          1           0        2.154540   -2.784770    2.752235
     55          1           0        6.679137   -2.497812    1.563584
     56          1           0        7.696374   -0.722969    1.531022
     57          1           0        8.143013   -2.218234    0.443000
     58          1           0       -1.261839   -2.176167    1.410778
     59          1           0       -0.278824   -2.447454    2.845509
     60          1           0       -1.741679   -0.383145   -0.085307
     61          1           0       -2.040148    4.760362   -1.685145
     62          1           0       -0.489120    4.299816   -0.901878
     63          1           0        8.197000   -0.537328   -3.145502
     64          1           0       -1.866130    4.689949    1.319898
     65          1           0       -3.304951    5.169190    0.394517
     66          1           0       -4.215388    3.961201   -2.368756
     67          1           0       -5.327327    2.958132   -1.175023
     68          1           0       -4.602719    2.132673   -2.665824
     69          1           0       -4.895610   -0.060738   -2.145202
     70          1           0        9.836616   -0.957679   -0.491418
     71          1           0       10.211278   -0.678197   -2.276754
     72          1           0       -3.782049   -3.042159    3.486076
     73          1           0       -6.516634   -1.561956   -1.753409
     74          1           0       -4.408944   -5.838331   -2.145014
     75          1           0       -3.480696   -5.553719   -0.343542
     76          1           0       -5.477770   -5.489302   -0.739406
     77          1           0       -1.572770    8.024216    1.489501
     78          1           0       -7.700178   -3.259608   -2.946952
     79          1           0       -6.311811   -4.412556   -2.791597
 ---------------------------------------------------------------------

 SCF Done:  E(RB3LYP) =  -1947.85229318     A.U. after   16 cycles

 Excitation energies and oscillator strengths:

 Excited State   1:      Singlet-A      2.0394 eV  607.96 nm  f=0.4771  <S**2>=0.000
     155 ->156         0.69602
     155 ->157         0.10718
     155 <-156        -0.11345
 This state for optimization and/or second-order correction.
 Total Energy, E(TD-HF/TD-KS) =  -1947.77734797
 Copying the excited state density for this state as the 1-particle RhoCI density.

 The electronic state is 1-A.
 Alpha  occ. eigenvalues --  -19.18052 -19.17980 -19.14025 -19.11142 -19.10011
 Alpha  occ. eigenvalues --  -19.09213 -14.38955 -14.35462 -14.35360 -14.28897
 Alpha  occ. eigenvalues --  -10.32564 -10.30259 -10.27514 -10.26551 -10.26534
 Alpha  occ. eigenvalues --  -10.24717 -10.24409 -10.24219 -10.23909 -10.23424
 Alpha  occ. eigenvalues --  -10.23256 -10.23145 -10.22212 -10.22174 -10.21823
 Alpha  occ. eigenvalues --  -10.21769 -10.21761 -10.21436 -10.21236 -10.20961
 Alpha  occ. eigenvalues --  -10.20786 -10.20683 -10.20626 -10.20449 -10.20414
 Alpha  occ. eigenvalues --  -10.20356 -10.20347 -10.20207 -10.20052 -10.19789
 Alpha  occ. eigenvalues --  -10.19713 -10.19094 -10.18152  -1.11345  -1.08055
 Alpha  occ. eigenvalues --   -1.04491  -1.04070  -1.02642  -0.98933  -0.96428
 Alpha  occ. eigenvalues --   -0.95884  -0.93748  -0.91804  -0.82978  -0.81403
 Alpha  occ. eigenvalues --   -0.81196  -0.80774  -0.80493  -0.78624  -0.77465
 Alpha  occ. eigenvalues --   -0.76999  -0.76542  -0.75406  -0.74131  -0.72726
 Alpha  occ. eigenvalues --   -0.71754  -0.70833  -0.69209  -0.68622  -0.68183
 Alpha  occ. eigenvalues --   -0.66858  -0.65102  -0.63192  -0.60623  -0.60243
 Alpha  occ. eigenvalues --   -0.59947  -0.58445  -0.57925  -0.57361  -0.56168
 Alpha  occ. eigenvalues --   -0.55935  -0.55506  -0.54093  -0.53985  -0.53056
 Alpha  occ. eigenvalues --   -0.51745  -0.51574  -0.50498  -0.50286  -0.49760
 Alpha  occ. eigenvalues --   -0.49468  -0.48858  -0.48115  -0.47581  -0.47467
 Alpha  occ. eigenvalues --   -0.47222  -0.46573  -0.46298  -0.46094  -0.45344
 Alpha  occ. eigenvalues --   -0.45088  -0.44578  -0.44301  -0.43842  -0.43497
 Alpha  occ. eigenvalues --   -0.43405  -0.43014  -0.42913  -0.42782  -0.42661
 Alpha  occ. eigenvalues --   -0.42298  -0.42084  -0.41935  -0.41329  -0.41261
 Alpha  occ. eigenvalues --   -0.40766  -0.40207  -0.39786  -0.39715  -0.39113
 Alpha  occ. eigenvalues --   -0.39017  -0.38805  -0.38396  -0.38217  -0.37792
 Alpha  occ. eigenvalues --   -0.37777  -0.37485  -0.37314  -0.37222  -0.36564
 Alpha  occ. eigenvalues --   -0.36496  -0.35805  -0.34979  -0.34345  -0.34144
 Alpha  occ. eigenvalues --   -0.33880  -0.33567  -0.33457  -0.32885  -0.31747
 Alpha  occ. eigenvalues --   -0.30857  -0.29533  -0.29510  -0.29025  -0.28443
 Alpha  occ. eigenvalues --   -0.26260  -0.25750  -0.25434  -0.25215  -0.24761
 Alpha  occ. eigenvalues --   -0.24536  -0.24345  -0.23827  -0.22416  -0.18672
 Alpha virt. eigenvalues --   -0.10714  -0.07256  -0.06674  -0.01641  -0.00065
 Alpha virt. eigenvalues --    0.00552   0.00912   0.01195   0.02241   0.02801
 Alpha virt. eigenvalues --    0.03366   0.03932   0.04189   0.04671   0.04996

 Mulliken charges:
               1
     1  O   -0.173409
     2  O   -0.182785
     3  O   -0.314917
     4  O   -0.183373
     5  O   -0.174095
     6  O   -0.160864
     7  N   -0.051791
     8  N   -0.230809
     9  N   -0.161579
    10  N   -0.319748
    11  C    0.046459
    12  C    0.066236
    13  C   -0.068742
    14  C   -0.148227
    15  C   -0.113205
    16  C    0.133390
    17  C   -0.154697
    18  C    0.068789
    19  C   -0.042236
    20  C   -0.122236
    21  C    0.115042
    22  C    0.105870
    23  C   -0.063394
    24  C    0.157153
    25  C    0.001273
    26  C   -0.082050
    27  C    0.026698
    28  C    0.133673
    29  C    0.116530
    30  C    0.064605
    31  C   -0.016348
    32  C   -0.014514
    33  C   -0.154706
    34  C    0.135795
    35  C    0.034428
    36  C   -0.138380
    37  C    0.115009
    38  C    0.076905
    39  C   -0.146091
    40  C    0.148824
    41  C   -0.054936
    42  C   -0.050557
    43  C   -0.048167
    44  H    0.044622
    45  H    0.023633
    46  H    0.023675
    47  H    0.115218
    48  H    0.163613
    49  H    0.039573
    50  H    0.003115
    51  H   -0.009316
    52  H    0.009394
    53  H   -0.022344
    54  H    0.062087
    55  H    0.050733
    56  H    0.075138
    57  H    0.050027
    58  H    0.083389
    59  H   -0.009691
    60  H    0.164529
    61  H   -0.005066
    62  H    0.023201
    63  H   -0.000924
    64  H    0.025780
    65  H    0.063289
    66  H    0.025557
    67  H    0.054402
    68  H    0.036624
    69  H    0.037966
    70  H    0.048702
    71  H    0.034930
    72  H    0.209131
    73  H    0.029347
    74  H    0.060035
    75  H    0.068770
    76  H    0.030836
    77  H    0.167366
    78  H    0.023770
    79  H    0.024064
 Sum of Mulliken charges =   0.00000

 Dipole moment (field-independent basis, Debye):
    X=              1.3434    Y=              1.4934    Z=              3.2215  Tot=              3.7965
 Quadrupole moment (field-independent basis, Debye-Ang):
   XX=           -215.4332   YY=           -245.9862   ZZ=           -262.4706
   XY=             -5.7625   XZ=             34.2600   YZ=              4.3548

 Normal termination of Gaussian 09 at Tue Jul  9 03:38:58 2019.
