 Gaussian 09, Revision D.01,
 Gaussian 09:  ES64L-G09RevD.01 24-Apr-2013

 --------------------------
 # td=(NStates=1) B3LYP/SVP
 --------------------------

 --
 TD
 --
 Symbolic Z-matrix:
 Charge =  0 Multiplicity = 1

                         Standard orientation:
 ---------------------------------------------------------------------
 Center     Atomic      Atomic             Coordinates (Angstroms)
 Number     Number       Type             X           Y           Z
 ---------------------------------------------------------------------
      1          8           0        5.680842    0.081894   -3.314305
      2          8           0       -2.522398   -3.260587    3.261774
      3          8           0       -3.222727   -1.051039    3.169430
      4          8           0       -1.671445    6.959113    1.768545
      5          8           0       -1.138088    7.221734   -0.548633
      6          8           0       -1.740806   -4.129207   -0.151055
      7          7           0        2.303297    1.096915    0.569864
      8          7           0        4.520247   -0.409971   -1.379519
      9          7           0       -1.917438    0.632977   -0.424439
     10          7           0       -2.616258   -1.956304   -0.616743
     11          6           0        4.841011   -1.115697   -0.108958
     12          6           0        4.381300   -0.193508    1.121524
     13          6           0        2.964999    0.073692    1.160018
     14          6           0        1.986208   -0.638910    2.039857
     15          6           0        0.819045   -0.040986    1.741907
     16          6           0        0.974398    0.943047    0.667393
     17          6           0        6.314226   -1.315729   -0.137924
     18          6           0       -0.533358   -0.199058    2.446908
     19          6           0        6.803853   -0.934933   -1.443768
     20          6           0        0.127257    1.931347    0.202240
     21          6           0       -1.177341    1.879944   -0.279851
     22          6           0        5.628472   -0.468689   -2.189279
     23          6           0       -1.991141    2.908577   -0.826304
     24          6           0        2.281987   -1.537131    3.173907
     25          6           0        7.135806   -1.892670    0.965525
     26          6           0       -3.140675    2.336179   -1.378903
     27          6           0       -0.915159   -1.765095    2.469385
     28          6           0       -3.099452    0.926880   -1.013410
     29          6           0       -1.627006    4.366250   -0.734775
     30          6           0        8.081883   -0.751775   -2.037688
     31          6           0       -1.886874    5.067310    0.484206
     32          6           0       -4.366143    2.873071   -2.027874
     33          6           0       -3.958300   -0.138459   -1.279216
     34          6           0       -2.324236   -1.885405    2.996250
     35          6           0       -3.751690   -1.474425   -1.100836
     36          6           0        9.268724   -0.691772   -1.257299
     37          6           0       -1.544578    6.511854    0.469846
     38          6           0       -4.693927   -2.548069   -1.451259
     39          6           0       -4.124421   -3.747468   -0.984299
     40          6           0       -2.686725   -3.343305   -0.500057
     41          6           0       -5.984723   -2.331850   -2.017631
     42          6           0       -4.508932   -5.114455   -1.206776
     43          6           0       -6.871020   -3.338616   -2.387440
     44          1           0        4.156947   -1.995209   -0.053542
     45          1           0        4.762119    0.709342    0.936779
     46          1           0        4.697099   -0.679310    1.928474
     47          1           0        2.888048    1.550360   -0.260611
     48          1           0        3.626006   -0.660313   -1.767946
     49          1           0       -0.558895    0.348412    3.592238
     50          1           0       -1.316139    0.279198    1.864063
     51          1           0        0.468610    2.891051    0.012650
     52          1           0        3.215968   -1.527484    3.447736
     53          1           0        1.521991   -1.273434    4.037367
     54          1           0        1.871647   -2.516464    3.042883
     55          1           0        6.562143   -2.347158    1.606747
     56          1           0        7.775029   -1.110818    1.553371
     57          1           0        7.893980   -2.605232    0.602554
     58          1           0       -1.015521   -2.296889    1.465788
     59          1           0       -0.541545   -2.457298    3.282692
     60          1           0       -1.951109   -0.542222   -0.447186
     61          1           0       -1.924976    4.858501   -1.611472
     62          1           0       -0.515696    4.569847   -0.801393
     63          1           0        8.197240   -0.696326   -3.036779
     64          1           0       -1.462916    4.578625    1.253859
     65          1           0       -2.835788    5.068701    0.892781
     66          1           0       -4.020322    3.962025   -2.322286
     67          1           0       -5.269990    3.004345   -1.256593
     68          1           0       -4.674098    2.313639   -2.846565
     69          1           0       -4.915732    0.084657   -1.740709
     70          1           0        9.441105   -0.863655   -0.112316
     71          1           0       10.372164   -0.554704   -1.701529
     72          1           0       -3.543193   -3.517314    3.255525
     73          1           0       -6.258978   -1.254132   -1.986370
     74          1           0       -4.663626   -5.050674   -2.248296
     75          1           0       -3.857893   -5.786428   -0.758072
     76          1           0       -5.427048   -5.131875   -0.369257
     77          1           0       -1.557369    7.907225    1.634357
     78          1           0       -7.997852   -3.053583   -2.666238
     79          1           0       -6.794146   -4.426855   -2.405391
 ---------------------------------------------------------------------

 SCF Done:  E(RB3LYP) =  -1947.79480186     A.U. after   19 cycles

 Excitation energies and oscillator strengths:

 Excited State   1:      Singlet-A      2.1061 eV  588.70 nm  f=0.5548  <S**2>=0.000
     154 ->156        -0.19562
     155 ->156         0.67657
     155 <-156        -0.11046
 This state for optimization and/or second-order correction.
 Total Energy, E(TD-HF/TD-KS) =  -1947.71740466
 Copying the excited state density for this state as the 1-particle RhoCI density.

 The electronic state is 1-A.
 Alpha  occ. eigenvalues --  -19.20375 -19.15845 -19.14482 -19.11582 -19.09923
 Alpha  occ. eigenvalues --  -19.09664 -14.40931 -14.36259 -14.34458 -14.29367
 Alpha  occ. eigenvalues --  -10.34185 -10.30653 -10.28631 -10.26832 -10.26220
 Alpha  occ. eigenvalues --  -10.24446 -10.24148 -10.24011 -10.23402 -10.23172
 Alpha  occ. eigenvalues --  -10.22955 -10.22143 -10.21852 -10.21745 -10.21440
 Alpha  occ. eigenvalues --  -10.21433 -10.21388 -10.21260 -10.20950 -10.20923
 Alpha  occ. eigenvalues --  -10.20640 -10.20578 -10.20342 -10.20272 -10.20243
 Alpha  occ. eigenvalues --  -10.20145 -10.20013 -10.19926 -10.19821 -10.19576
 Alpha  occ. eigenvalues --  -10.19015 -10.18949 -10.17813  -1.09744  -1.04527
 Alpha  occ. eigenvalues --   -1.01666  -1.01007  -0.98589  -0.97993  -0.96751
 Alpha  occ. eigenvalues --   -0.96101  -0.94205  -0.91703  -0.84571  -0.83363
 Alpha  occ. eigenvalues --   -0.82823  -0.82210  -0.80803  -0.80263  -0.79277
 Alpha  occ. eigenvalues --   -0.77843  -0.76736  -0.76198  -0.75077  -0.73165
 Alpha  occ. eigenvalues --   -0.72441  -0.72386  -0.70218  -0.69305  -0.68125
 Alpha  occ. eigenvalues --   -0.67074  -0.66895  -0.64474  -0.62145  -0.60599
 Alpha  occ. eigenvalues --   -0.60030  -0.58909  -0.58533  -0.58159  -0.57476
 Alpha  occ. eigenvalues --   -0.56752  -0.55926  -0.55078  -0.54509  -0.53177
 Alpha  occ. eigenvalues --   -0.52346  -0.52027  -0.51606  -0.51175  -0.49987
 Alpha  occ. eigenvalues --   -0.49824  -0.49490  -0.48916  -0.48361  -0.47735
 Alpha  occ. eigenvalues --   -0.47163  -0.46878  -0.46320  -0.46086  -0.45777
 Alpha  occ. eigenvalues --   -0.45599  -0.45386  -0.44912  -0.44778  -0.44342
 Alpha  occ. eigenvalues --   -0.43763  -0.43402  -0.43280  -0.43110  -0.42840
 Alpha  occ. eigenvalues --   -0.42503  -0.42421  -0.41930  -0.41748  -0.41586
 Alpha  occ. eigenvalues --   -0.41346  -0.40991  -0.40495  -0.40342  -0.39966
 Alpha  occ. eigenvalues --   -0.39606  -0.39387  -0.39205  -0.38893  -0.38737
 Alpha  occ. eigenvalues --   -0.38329  -0.38092  -0.37410  -0.37309  -0.36931
 Alpha  occ. eigenvalues --   -0.36351  -0.35577  -0.35150  -0.34553  -0.34454
 Alpha  occ. eigenvalues --   -0.34095  -0.33454  -0.33068  -0.32785  -0.31792
 Alpha  occ. eigenvalues --   -0.30906  -0.30174  -0.29274  -0.28577  -0.27499
 Alpha  occ. eigenvalues --   -0.27447  -0.26565  -0.25847  -0.25466  -0.25366
 Alpha  occ. eigenvalues --   -0.24071  -0.23525  -0.23028  -0.21215  -0.18771
 Alpha virt. eigenvalues --   -0.10619  -0.08410  -0.06462  -0.03180  -0.01536
 Alpha virt. eigenvalues --   -0.01073  -0.00002   0.01085   0.02370   0.03032
 Alpha virt. eigenvalues --    0.03214   0.03682   0.04310   0.04509   0.05072

 Mulliken charges:
               1
     1  O   -0.258915
     2  O   -0.294522
     3  O   -0.245032
     4  O   -0.176725
     5  O   -0.300491
     6  O   -0.280367
     7  N   -0.052906
     8  N   -0.175915
     9  N   -0.206455
    10  N   -0.287963
    11  C    0.002561
    12  C    0.394537
    13  C   -0.193958
    14  C   -0.131970
    15  C   -0.071349
    16  C    0.125593
    17  C   -0.142331
    18  C    0.063306
    19  C   -0.009358
    20  C   -0.057593
    21  C    0.076661
    22  C    0.134167
    23  C   -0.039211
    24  C    0.181394
    25  C    0.139782
    26  C   -0.128159
    27  C   -0.054032
    28  C    0.071921
    29  C    0.102402
    30  C    0.055562
    31  C    0.134580
    32  C    0.075483
    33  C   -0.096853
    34  C    0.160184
    35  C    0.097801
    36  C   -0.118972
    37  C    0.167203
    38  C    0.036670
    39  C   -0.252049
    40  C    0.191787
    41  C   -0.004169
    42  C    0.121440
    43  C   -0.094540
    44  H    0.034737
    45  H   -0.055191
    46  H   -0.057749
    47  H    0.168651
    48  H    0.133182
    49  H    0.047322
    50  H    0.019823
    51  H   -0.058906
    52  H   -0.036962
    53  H    0.023063
    54  H    0.018510
    55  H   -0.032532
    56  H    0.050476
    57  H    0.039329
    58  H    0.106378
    59  H    0.047119
    60  H    0.215467
    61  H   -0.001665
    62  H    0.003863
    63  H   -0.018629
    64  H   -0.015637
    65  H   -0.001248
    66  H    0.025986
    67  H    0.052278
    68  H    0.022051
    69  H   -0.053037
    70  H    0.041175
    71  H    0.051855
    72  H    0.216565
    73  H    0.005066
    74  H    0.057699
    75  H    0.006082
    76  H    0.043652
    77  H    0.176255
    78  H    0.032571
    79  H    0.033203
 Sum of Mulliken charges =   0.00000

 Dipole moment (field-independent basis, Debye):
    X=              2.8966    Y=              1.5604    Z=              4.1721  Tot=              5.3133
 Quadrupole moment (field-independent basis, Debye-Ang):
   XX=           -216.8350   YY=           -253.1548   ZZ=           -267.5808
   XY=            -14.5426   XZ=             32.1998   YZ=              8.8631

 Normal termination of Gaussian 09 at Mon Jul  8 14:52:45 2019.
