 Gaussian 09, Revision D.01,
 Gaussian 09:  ES64L-G09RevD.01 24-Apr-2013

 --------------------------
 # td=(NStates=1) B3LYP/SVP
 --------------------------

 --
 TD
 --
 Symbolic Z-matrix:
 Charge =  0 Multiplicity = 1

                         Standard orientation:
 ---------------------------------------------------------------------
 Center     Atomic      Atomic             Coordinates (Angstroms)
 Number     Number       Type             X           Y           Z
 ---------------------------------------------------------------------
      1          8           0        5.163704   -0.348376   -3.360146
      2          8           0       -2.712917   -2.680745    3.669556
      3          8           0       -3.235789   -0.489149    3.307149
      4          8           0       -2.452999    7.021315    1.170006
      5          8           0       -1.004536    6.978727   -0.569662
      6          8           0       -1.492821   -4.143441    0.145824
      7          7           0        2.322119    1.132346    0.485055
      8          7           0        4.402083   -0.606046   -1.158432
      9          7           0       -2.008056    0.598953   -0.288174
     10          7           0       -2.469887   -2.067325   -0.420010
     11          6           0        4.916102   -0.938852    0.191159
     12          6           0        4.477701    0.194087    1.161090
     13          6           0        3.009697    0.340286    1.279033
     14          6           0        2.106149   -0.234479    2.125047
     15          6           0        0.785006    0.187181    1.757731
     16          6           0        0.863274    0.937060    0.685392
     17          6           0        6.405696   -1.005243   -0.069524
     18          6           0       -0.467223   -0.113264    2.596178
     19          6           0        6.687106   -0.798287   -1.325038
     20          6           0       -0.009350    1.846890   -0.076760
     21          6           0       -1.266297    1.828258   -0.393867
     22          6           0        5.369176   -0.549357   -2.100837
     23          6           0       -2.214628    2.701151   -1.035726
     24          6           0        2.393735   -1.057942    3.302376
     25          6           0        7.287670   -1.326091    1.031450
     26          6           0       -3.330172    2.111520   -1.455568
     27          6           0       -1.011533   -1.523124    2.657747
     28          6           0       -3.146434    0.692501   -0.975449
     29          6           0       -1.814956    4.183286   -1.201621
     30          6           0        7.904369   -0.830191   -2.165635
     31          6           0       -2.196872    4.988735    0.105980
     32          6           0       -4.458995    2.697509   -2.184744
     33          6           0       -3.911616   -0.413983   -1.261630
     34          6           0       -2.397880   -1.460384    3.243554
     35          6           0       -3.611880   -1.738365   -1.023348
     36          6           0        9.218790   -0.590058   -1.632129
     37          6           0       -1.809635    6.430473    0.104345
     38          6           0       -4.359580   -3.002806   -1.385879
     39          6           0       -3.601838   -4.072388   -0.964864
     40          6           0       -2.401906   -3.475993   -0.308034
     41          6           0       -5.661959   -2.891439   -1.963180
     42          6           0       -3.830755   -5.423495   -1.100341
     43          6           0       -6.367502   -3.835507   -2.584420
     44          1           0        4.510661   -1.873657    0.771507
     45          1           0        4.803538    1.107895    0.729832
     46          1           0        4.940072   -0.014142    2.278591
     47          1           0        2.445751    1.698254   -0.458004
     48          1           0        3.353584   -0.517222   -1.372755
     49          1           0       -0.016740    0.355701    3.498563
     50          1           0       -1.304082    0.484720    2.384315
     51          1           0        0.645709    2.786122   -0.507561
     52          1           0        3.398039   -1.128849    3.870619
     53          1           0        1.800779   -0.865615    4.207175
     54          1           0        2.106422   -2.251739    3.085737
     55          1           0        6.890249   -1.994356    1.630983
     56          1           0        7.349532   -0.425969    1.620853
     57          1           0        8.304419   -1.665324    0.694050
     58          1           0       -1.052597   -2.016935    1.799889
     59          1           0       -0.521588   -2.038499    3.374712
     60          1           0       -1.664154   -0.176640   -0.007492
     61          1           0       -2.395692    4.680886   -2.089703
     62          1           0       -0.795251    4.404417   -1.386472
     63          1           0        8.019260   -1.182681   -3.140033
     64          1           0       -1.841897    4.376356    1.021785
     65          1           0       -3.240593    4.773202    0.431396
     66          1           0       -4.385568    3.767389   -2.317569
     67          1           0       -5.526900    2.649417   -1.520234
     68          1           0       -4.489544    2.253636   -3.279330
     69          1           0       -5.056029   -0.478515   -1.697519
     70          1           0        9.101178   -0.102382   -0.585233
     71          1           0       10.048850   -0.549185   -2.376291
     72          1           0       -3.731118   -2.884819    3.901112
     73          1           0       -6.293650   -2.015879   -2.264594
     74          1           0       -3.647394   -5.770361   -2.203897
     75          1           0       -2.911840   -6.046131   -0.740574
     76          1           0       -4.836545   -5.945902   -0.446434
     77          1           0       -1.815095    7.839247    1.195657
     78          1           0       -7.291993   -3.528636   -2.897526
     79          1           0       -6.061501   -4.962074   -2.631362
 ---------------------------------------------------------------------

 SCF Done:  E(RB3LYP) =  -1947.77399907     A.U. after   16 cycles

 Excitation energies and oscillator strengths:

 Excited State   1:      Singlet-A      2.2174 eV  559.13 nm  f=0.3284  <S**2>=0.000
     152 ->156        -0.10410
     154 ->156         0.17161
     155 ->156         0.67505
 This state for optimization and/or second-order correction.
 Total Energy, E(TD-HF/TD-KS) =  -1947.69250998
 Copying the excited state density for this state as the 1-particle RhoCI density.

 The electronic state is 1-A.
 Alpha  occ. eigenvalues --  -19.18944 -19.18179 -19.14873 -19.11189 -19.10488
 Alpha  occ. eigenvalues --  -19.09260 -14.38654 -14.36601 -14.36283 -14.28165
 Alpha  occ. eigenvalues --  -10.33194 -10.31450 -10.28679 -10.26233 -10.26128
 Alpha  occ. eigenvalues --  -10.25809 -10.24390 -10.23434 -10.23421 -10.22858
 Alpha  occ. eigenvalues --  -10.22778 -10.22751 -10.22476 -10.22158 -10.22075
 Alpha  occ. eigenvalues --  -10.21996 -10.21953 -10.21473 -10.21029 -10.20876
 Alpha  occ. eigenvalues --  -10.20772 -10.20673 -10.20447 -10.20211 -10.19828
 Alpha  occ. eigenvalues --  -10.19373 -10.19261 -10.19246 -10.18991 -10.18974
 Alpha  occ. eigenvalues --  -10.18835 -10.18746 -10.17789  -1.10907  -1.07161
 Alpha  occ. eigenvalues --   -1.02097  -1.01440  -0.99949  -0.99477  -0.98681
 Alpha  occ. eigenvalues --   -0.96034  -0.92770  -0.91532  -0.84243  -0.83150
 Alpha  occ. eigenvalues --   -0.83082  -0.81755  -0.80907  -0.80065  -0.78396
 Alpha  occ. eigenvalues --   -0.78077  -0.77554  -0.76544  -0.75135  -0.73478
 Alpha  occ. eigenvalues --   -0.72057  -0.71960  -0.69866  -0.69180  -0.68879
 Alpha  occ. eigenvalues --   -0.67819  -0.66041  -0.64436  -0.60788  -0.60193
 Alpha  occ. eigenvalues --   -0.59862  -0.59603  -0.58821  -0.57952  -0.57929
 Alpha  occ. eigenvalues --   -0.57122  -0.56235  -0.55596  -0.53939  -0.53395
 Alpha  occ. eigenvalues --   -0.52041  -0.51563  -0.51322  -0.51010  -0.50711
 Alpha  occ. eigenvalues --   -0.50087  -0.49473  -0.48639  -0.48269  -0.47723
 Alpha  occ. eigenvalues --   -0.47686  -0.47346  -0.47089  -0.46599  -0.46513
 Alpha  occ. eigenvalues --   -0.45872  -0.45609  -0.44922  -0.44732  -0.44073
 Alpha  occ. eigenvalues --   -0.43653  -0.43492  -0.43108  -0.42851  -0.42569
 Alpha  occ. eigenvalues --   -0.42273  -0.41960  -0.41517  -0.41302  -0.41229
 Alpha  occ. eigenvalues --   -0.40787  -0.40341  -0.40037  -0.39526  -0.39415
 Alpha  occ. eigenvalues --   -0.39118  -0.38876  -0.38800  -0.38062  -0.37974
 Alpha  occ. eigenvalues --   -0.37807  -0.37064  -0.37011  -0.36731  -0.36582
 Alpha  occ. eigenvalues --   -0.36212  -0.35416  -0.35318  -0.34706  -0.34460
 Alpha  occ. eigenvalues --   -0.34328  -0.33765  -0.33514  -0.32461  -0.32269
 Alpha  occ. eigenvalues --   -0.30967  -0.30612  -0.30175  -0.29649  -0.27695
 Alpha  occ. eigenvalues --   -0.26746  -0.26472  -0.25849  -0.25671  -0.24550
 Alpha  occ. eigenvalues --   -0.24145  -0.23733  -0.23458  -0.22119  -0.19718
 Alpha virt. eigenvalues --   -0.10554  -0.06507  -0.05624  -0.01636  -0.00695
 Alpha virt. eigenvalues --   -0.00251   0.00258   0.00858   0.01259   0.02662
 Alpha virt. eigenvalues --    0.02954   0.03355   0.04058   0.04532   0.05004

 Mulliken charges:
               1
     1  O   -0.298283
     2  O   -0.221278
     3  O   -0.300355
     4  O   -0.228950
     5  O   -0.192050
     6  O   -0.202379
     7  N   -0.154191
     8  N   -0.204616
     9  N    0.020115
    10  N   -0.292005
    11  C    0.050197
    12  C    0.188110
    13  C   -0.071514
    14  C   -0.081344
    15  C   -0.046535
    16  C    0.021136
    17  C   -0.161341
    18  C    0.038234
    19  C   -0.017699
    20  C   -0.126538
    21  C    0.135557
    22  C    0.174947
    23  C   -0.059303
    24  C   -0.025904
    25  C    0.195512
    26  C   -0.086976
    27  C    0.203237
    28  C    0.132804
    29  C    0.088468
    30  C   -0.029712
    31  C   -0.062148
    32  C    0.033217
    33  C   -0.110148
    34  C    0.134151
    35  C   -0.024800
    36  C   -0.076488
    37  C    0.183469
    38  C    0.170407
    39  C   -0.134226
    40  C    0.157050
    41  C   -0.098240
    42  C   -0.046849
    43  C   -0.049179
    44  H    0.046893
    45  H   -0.032370
    46  H    0.035232
    47  H    0.156248
    48  H    0.156079
    49  H    0.018051
    50  H   -0.008833
    51  H    0.026371
    52  H    0.017345
    53  H    0.010270
    54  H    0.039997
    55  H   -0.035643
    56  H    0.019516
    57  H    0.036201
    58  H    0.019937
    59  H   -0.016770
    60  H    0.039082
    61  H    0.026066
    62  H    0.007806
    63  H    0.005719
    64  H    0.055511
    65  H    0.026020
    66  H    0.008710
    67  H    0.059887
    68  H    0.061657
    69  H    0.011994
    70  H    0.041793
    71  H    0.047437
    72  H    0.233634
    73  H    0.005364
    74  H    0.043850
    75  H    0.023036
    76  H    0.062750
    77  H    0.193932
    78  H   -0.002875
    79  H    0.036545
 Sum of Mulliken charges =   0.00000

 Dipole moment (field-independent basis, Debye):
    X=             -0.5185    Y=              2.4719    Z=              3.3240  Tot=              4.1746
 Quadrupole moment (field-independent basis, Debye-Ang):
   XX=           -224.2230   YY=           -252.2176   ZZ=           -261.0343
   XY=              0.0880   XZ=             33.8604   YZ=             -2.6396

 Normal termination of Gaussian 09 at Tue Jul  9 04:36:12 2019.
