 Gaussian 09, Revision D.01,
 Gaussian 09:  ES64L-G09RevD.01 24-Apr-2013

 --------------------------
 # td=(NStates=1) B3LYP/SVP
 --------------------------

 --
 TD
 --
 Symbolic Z-matrix:
 Charge =  0 Multiplicity = 1

                         Standard orientation:
 ---------------------------------------------------------------------
 Center     Atomic      Atomic             Coordinates (Angstroms)
 Number     Number       Type             X           Y           Z
 ---------------------------------------------------------------------
      1          8           0        5.400688   -0.250658   -3.402546
      2          8           0       -2.542855   -3.255455    3.258603
      3          8           0       -3.089595   -1.089975    3.325755
      4          8           0       -1.835841    7.153065    1.591859
      5          8           0       -0.787609    7.033535   -0.447503
      6          8           0       -1.747765   -4.051936   -0.098280
      7          7           0        2.211320    1.116582    0.622828
      8          7           0        4.382492   -0.564022   -1.270535
      9          7           0       -1.978780    0.586248   -0.474691
     10          7           0       -2.566930   -1.922540   -0.551226
     11          6           0        4.856973   -1.003753   -0.005391
     12          6           0        4.495142    0.015211    1.096507
     13          6           0        2.935620    0.097659    1.223753
     14          6           0        2.067893   -0.640225    2.068179
     15          6           0        0.723862    0.024603    1.810716
     16          6           0        0.817410    1.027460    0.802251
     17          6           0        6.377145   -1.083974   -0.188032
     18          6           0       -0.545673   -0.371098    2.662763
     19          6           0        6.754609   -0.816286   -1.442140
     20          6           0       -0.021539    2.072586    0.184253
     21          6           0       -1.183800    1.843561   -0.323917
     22          6           0        5.520273   -0.502911   -2.137713
     23          6           0       -2.071796    2.881632   -0.773173
     24          6           0        2.340836   -1.687371    3.080148
     25          6           0        7.242227   -1.629101    0.942072
     26          6           0       -3.194685    2.311089   -1.364339
     27          6           0       -0.890769   -1.822349    2.510266
     28          6           0       -3.183076    0.840809   -1.078642
     29          6           0       -1.639928    4.359381   -0.794377
     30          6           0        7.956080   -0.694838   -2.148005
     31          6           0       -1.963275    5.062396    0.502444
     32          6           0       -4.463904    3.091094   -1.922800
     33          6           0       -4.066174   -0.129687   -1.313433
     34          6           0       -2.273626   -1.991068    3.090887
     35          6           0       -3.750532   -1.505804   -1.149813
     36          6           0        9.181596   -0.775673   -1.609643
     37          6           0       -1.459397    6.475296    0.460902
     38          6           0       -4.654919   -2.612285   -1.377364
     39          6           0       -3.936816   -3.734441   -1.054960
     40          6           0       -2.647768   -3.266854   -0.480299
     41          6           0       -5.950977   -2.402317   -2.072388
     42          6           0       -4.503624   -5.141217   -1.003865
     43          6           0       -6.723504   -3.358386   -2.699962
     44          1           0        4.728620   -1.955613    0.327672
     45          1           0        4.823236    1.017797    0.757603
     46          1           0        5.047561   -0.429449    2.079048
     47          1           0        2.827680    1.401487   -0.234027
     48          1           0        3.530982   -1.061108   -1.722356
     49          1           0       -0.372148   -0.121245    3.789553
     50          1           0       -1.414027    0.124594    2.121603
     51          1           0        0.539835    2.768622    0.276189
     52          1           0        3.475832   -1.831192    3.356239
     53          1           0        1.829724   -1.494082    3.996433
     54          1           0        2.374070   -2.710667    2.711171
     55          1           0        6.764626   -1.981803    1.864432
     56          1           0        7.926048   -0.745406    1.534346
     57          1           0        8.156364   -2.530526    0.718516
     58          1           0       -0.821235   -2.089603    1.422365
     59          1           0       -0.089409   -2.371662    2.853019
     60          1           0       -1.605376   -0.251177   -0.305891
     61          1           0       -2.077546    4.949128   -1.623763
     62          1           0       -0.614377    4.341097   -0.981924
     63          1           0        7.939720   -0.579389   -3.146496
     64          1           0       -1.583369    4.427069    1.220910
     65          1           0       -3.061732    5.243474    0.636064
     66          1           0       -4.373963    4.276019   -2.180090
     67          1           0       -5.375257    3.055535   -1.392871
     68          1           0       -4.744521    2.529979   -2.862669
     69          1           0       -4.875268    0.183309   -2.085264
     70          1           0        9.356704   -0.880399   -0.566221
     71          1           0       10.174471   -0.553192   -2.237585
     72          1           0       -3.393826   -3.509071    3.890578
     73          1           0       -6.333461   -1.509273   -2.096378
     74          1           0       -4.434502   -5.563161   -2.014596
     75          1           0       -3.887762   -5.991784   -0.497516
     76          1           0       -5.494593   -5.107423   -0.546502
     77          1           0       -1.261284    8.026021    1.588696
     78          1           0       -7.724159   -3.136795   -2.909255
     79          1           0       -6.333877   -4.361453   -2.818093
 ---------------------------------------------------------------------

 SCF Done:  E(RB3LYP) =  -1947.78145182     A.U. after   18 cycles

 Excitation energies and oscillator strengths:

 Excited State   1:      Singlet-A      2.1471 eV  577.44 nm  f=0.2826  <S**2>=0.000
     151 ->156        -0.10836
     154 ->156         0.19995
     155 ->156         0.66721
 This state for optimization and/or second-order correction.
 Total Energy, E(TD-HF/TD-KS) =  -1947.70254655
 Copying the excited state density for this state as the 1-particle RhoCI density.

 The electronic state is 1-A.
 Alpha  occ. eigenvalues --  -19.19433 -19.17320 -19.13719 -19.10334 -19.10098
 Alpha  occ. eigenvalues --  -19.09797 -14.37726 -14.36438 -14.36085 -14.28756
 Alpha  occ. eigenvalues --  -10.33359 -10.30167 -10.29086 -10.25752 -10.25496
 Alpha  occ. eigenvalues --  -10.24533 -10.24378 -10.24279 -10.23898 -10.23356
 Alpha  occ. eigenvalues --  -10.23179 -10.22983 -10.22902 -10.22503 -10.21842
 Alpha  occ. eigenvalues --  -10.21692 -10.21456 -10.20670 -10.20535 -10.20442
 Alpha  occ. eigenvalues --  -10.20370 -10.19958 -10.19954 -10.19874 -10.19790
 Alpha  occ. eigenvalues --  -10.19546 -10.19495 -10.19378 -10.19301 -10.19262
 Alpha  occ. eigenvalues --  -10.19161 -10.18870 -10.17057  -1.08397  -1.07454
 Alpha  occ. eigenvalues --   -1.00014  -0.99512  -0.99064  -0.97116  -0.97069
 Alpha  occ. eigenvalues --   -0.96330  -0.93621  -0.91635  -0.84396  -0.83704
 Alpha  occ. eigenvalues --   -0.81905  -0.80055  -0.79508  -0.79237  -0.78776
 Alpha  occ. eigenvalues --   -0.77915  -0.76369  -0.75600  -0.74866  -0.72821
 Alpha  occ. eigenvalues --   -0.71402  -0.70618  -0.69930  -0.68800  -0.68529
 Alpha  occ. eigenvalues --   -0.66055  -0.64989  -0.64196  -0.61806  -0.61115
 Alpha  occ. eigenvalues --   -0.60129  -0.59365  -0.58529  -0.57949  -0.57727
 Alpha  occ. eigenvalues --   -0.56348  -0.55497  -0.54677  -0.54089  -0.53635
 Alpha  occ. eigenvalues --   -0.53081  -0.52182  -0.51608  -0.51112  -0.50421
 Alpha  occ. eigenvalues --   -0.49320  -0.49007  -0.48747  -0.48511  -0.48226
 Alpha  occ. eigenvalues --   -0.47004  -0.46697  -0.46229  -0.45698  -0.45284
 Alpha  occ. eigenvalues --   -0.45047  -0.44511  -0.44311  -0.43771  -0.43447
 Alpha  occ. eigenvalues --   -0.43075  -0.42783  -0.42554  -0.42068  -0.41821
 Alpha  occ. eigenvalues --   -0.41409  -0.41265  -0.41044  -0.40886  -0.40447
 Alpha  occ. eigenvalues --   -0.40251  -0.40133  -0.39740  -0.39451  -0.39224
 Alpha  occ. eigenvalues --   -0.38979  -0.38765  -0.38449  -0.38383  -0.38160
 Alpha  occ. eigenvalues --   -0.38048  -0.37444  -0.37173  -0.36817  -0.36213
 Alpha  occ. eigenvalues --   -0.35939  -0.35572  -0.35428  -0.35068  -0.34776
 Alpha  occ. eigenvalues --   -0.33874  -0.32496  -0.32475  -0.32432  -0.31690
 Alpha  occ. eigenvalues --   -0.30910  -0.29817  -0.28909  -0.28190  -0.27244
 Alpha  occ. eigenvalues --   -0.26865  -0.26314  -0.25981  -0.25366  -0.24774
 Alpha  occ. eigenvalues --   -0.23904  -0.23637  -0.23291  -0.22205  -0.20163
 Alpha virt. eigenvalues --   -0.11241  -0.07100  -0.06457  -0.01992  -0.01592
 Alpha virt. eigenvalues --   -0.01018   0.00632   0.01228   0.01998   0.02732
 Alpha virt. eigenvalues --    0.02954   0.03523   0.03684   0.04189   0.04732

 Mulliken charges:
               1
     1  O   -0.289689
     2  O   -0.204514
     3  O   -0.263572
     4  O   -0.231440
     5  O   -0.267755
     6  O   -0.237472
     7  N   -0.145625
     8  N   -0.210909
     9  N   -0.083457
    10  N   -0.265187
    11  C    0.114373
    12  C    0.153868
    13  C   -0.088108
    14  C   -0.116725
    15  C   -0.145294
    16  C    0.031488
    17  C   -0.144906
    18  C    0.052844
    19  C    0.080928
    20  C   -0.035352
    21  C    0.305928
    22  C    0.140237
    23  C   -0.116683
    24  C    0.103199
    25  C   -0.070998
    26  C   -0.083704
    27  C    0.007566
    28  C    0.135237
    29  C    0.129788
    30  C    0.032109
    31  C    0.037935
    32  C    0.025963
    33  C   -0.112622
    34  C    0.165616
    35  C    0.061902
    36  C   -0.044169
    37  C    0.163031
    38  C    0.058567
    39  C   -0.174361
    40  C    0.144137
    41  C    0.010762
    42  C    0.058663
    43  C    0.015516
    44  H   -0.012314
    45  H   -0.007452
    46  H    0.033222
    47  H    0.150877
    48  H    0.174589
    49  H    0.026930
    50  H    0.022924
    51  H   -0.133083
    52  H   -0.020266
    53  H    0.029797
    54  H    0.025580
    55  H    0.021817
    56  H    0.054846
    57  H    0.077301
    58  H    0.069471
    59  H   -0.027912
    60  H    0.086520
    61  H    0.015230
    62  H    0.002816
    63  H   -0.039706
    64  H    0.030784
    65  H    0.050802
    66  H    0.044436
    67  H    0.025405
    68  H    0.026821
    69  H    0.015521
    70  H    0.000847
    71  H    0.048259
    72  H    0.233709
    73  H   -0.070139
    74  H    0.028240
    75  H    0.028992
    76  H    0.041764
    77  H    0.219330
    78  H    0.012175
    79  H    0.014756
 Sum of Mulliken charges =   0.00000

 Dipole moment (field-independent basis, Debye):
    X=              0.6593    Y=              1.0982    Z=              3.5918  Tot=              3.8134
 Quadrupole moment (field-independent basis, Debye-Ang):
   XX=           -210.8718   YY=           -243.5106   ZZ=           -261.9534
   XY=             -8.8770   XZ=             33.6893   YZ=              0.2008

 Normal termination of Gaussian 09 at Mon Jul  8 23:42:16 2019.
