 Gaussian 09, Revision D.01,
 Gaussian 09:  ES64L-G09RevD.01 24-Apr-2013

 --------------------------
 # td=(NStates=1) B3LYP/SVP
 --------------------------

 --
 TD
 --
 Symbolic Z-matrix:
 Charge =  0 Multiplicity = 1

                         Standard orientation:
 ---------------------------------------------------------------------
 Center     Atomic      Atomic             Coordinates (Angstroms)
 Number     Number       Type             X           Y           Z
 ---------------------------------------------------------------------
      1          8           0        5.313105   -0.032501   -3.265052
      2          8           0       -3.032664   -3.215878    3.090333
      3          8           0       -3.172249   -0.939695    3.298098
      4          8           0       -1.761517    7.190332    1.567826
      5          8           0       -0.029654    6.852908    0.007865
      6          8           0       -2.062940   -3.889503   -0.088491
      7          7           0        2.340886    0.782798    0.594274
      8          7           0        4.487660   -0.681648   -1.204749
      9          7           0       -1.959564    0.710119   -0.372948
     10          7           0       -2.714815   -1.854393   -0.635907
     11          6           0        4.908112   -1.272739    0.047848
     12          6           0        4.500049   -0.477227    1.278728
     13          6           0        3.048799   -0.150760    1.356037
     14          6           0        2.003698   -0.857481    2.065505
     15          6           0        0.760194   -0.108328    1.790903
     16          6           0        0.975102    0.790461    0.818472
     17          6           0        6.325182   -1.392704   -0.230835
     18          6           0       -0.494175   -0.325360    2.528523
     19          6           0        6.740852   -0.924669   -1.417159
     20          6           0        0.212178    1.791222    0.140482
     21          6           0       -1.143854    1.886481   -0.238882
     22          6           0        5.507322   -0.433706   -2.146332
     23          6           0       -1.842983    2.928203   -0.838293
     24          6           0        2.303872   -1.851246    3.043552
     25          6           0        7.287342   -2.103345    0.794097
     26          6           0       -3.075049    2.444764   -1.145397
     27          6           0       -1.095241   -1.823673    2.464167
     28          6           0       -3.109137    1.050892   -0.992044
     29          6           0       -1.245265    4.369293   -0.896792
     30          6           0        7.981781   -0.675071   -2.149686
     31          6           0       -1.788015    5.062870    0.420396
     32          6           0       -4.152323    3.200066   -1.843407
     33          6           0       -4.058547    0.127814   -1.370049
     34          6           0       -2.561184   -1.936763    2.906350
     35          6           0       -3.807332   -1.290358   -1.170336
     36          6           0        9.283282   -0.690199   -1.605208
     37          6           0       -1.088853    6.401820    0.586203
     38          6           0       -4.815900   -2.349055   -1.420233
     39          6           0       -4.317277   -3.551515   -1.094681
     40          6           0       -2.883184   -3.223528   -0.574178
     41          6           0       -6.202378   -2.046651   -1.977278
     42          6           0       -4.694109   -4.955828   -1.160576
     43          6           0       -6.995357   -2.948139   -2.707961
     44          1           0        4.326598   -2.207011    0.041090
     45          1           0        4.895627    0.483451    1.226040
     46          1           0        4.805881   -0.822371    2.240657
     47          1           0        2.741275    1.499596   -0.183689
     48          1           0        3.386355   -0.553697   -1.390457
     49          1           0       -0.564462    0.095602    3.724166
     50          1           0       -1.316197    0.340500    2.259990
     51          1           0        0.848587    2.678573   -0.325739
     52          1           0        3.486563   -1.842138    3.284625
     53          1           0        1.885387   -1.658635    4.034240
     54          1           0        2.025142   -2.875552    2.682768
     55          1           0        6.643134   -2.895418    1.322883
     56          1           0        7.578519   -1.314369    1.626202
     57          1           0        8.197729   -2.679871    0.385721
     58          1           0       -1.072740   -2.301497    1.434036
     59          1           0       -0.243430   -2.494985    3.115150
     60          1           0       -1.670881   -0.237783   -0.328818
     61          1           0       -1.556858    4.958281   -1.720073
     62          1           0       -0.147561    4.206061   -1.048002
     63          1           0        7.805581   -0.463936   -3.196845
     64          1           0       -1.655872    4.376259    1.319402
     65          1           0       -2.946222    4.983656    0.407219
     66          1           0       -3.826312    4.241906   -2.170974
     67          1           0       -5.101787    3.150028   -1.196285
     68          1           0       -4.193887    2.699923   -2.866043
     69          1           0       -4.855640    0.341584   -2.053413
     70          1           0        9.608134   -1.153630   -0.511782
     71          1           0       10.139336   -0.654513   -2.206754
     72          1           0       -4.079948   -2.823646    3.297948
     73          1           0       -6.437052   -0.988605   -1.867814
     74          1           0       -4.883666   -5.101154   -2.311580
     75          1           0       -4.123472   -5.624512   -0.749289
     76          1           0       -5.645072   -5.225376   -0.742673
     77          1           0       -1.211479    7.897156    1.349636
     78          1           0       -7.903075   -2.475084   -3.208313
     79          1           0       -6.855650   -3.975491   -2.794181
 ---------------------------------------------------------------------

 SCF Done:  E(RB3LYP) =  -1947.84141198     A.U. after   17 cycles

 Excitation energies and oscillator strengths:

 Excited State   1:      Singlet-A      2.2010 eV  563.31 nm  f=0.5149  <S**2>=0.000
     154 ->156         0.10962
     155 ->156         0.69646
     155 <-156        -0.11788
 This state for optimization and/or second-order correction.
 Total Energy, E(TD-HF/TD-KS) =  -1947.76052651
 Copying the excited state density for this state as the 1-particle RhoCI density.

 The electronic state is 1-A.
 Alpha  occ. eigenvalues --  -19.18993 -19.18192 -19.15609 -19.12058 -19.10833
 Alpha  occ. eigenvalues --  -19.10578 -14.39391 -14.35736 -14.35209 -14.28348
 Alpha  occ. eigenvalues --  -10.35038 -10.31355 -10.28658 -10.26019 -10.24985
 Alpha  occ. eigenvalues --  -10.24567 -10.24205 -10.24047 -10.23930 -10.23650
 Alpha  occ. eigenvalues --  -10.23484 -10.23260 -10.22625 -10.22372 -10.22319
 Alpha  occ. eigenvalues --  -10.21698 -10.21530 -10.21449 -10.21330 -10.21219
 Alpha  occ. eigenvalues --  -10.21103 -10.20883 -10.20659 -10.20327 -10.20296
 Alpha  occ. eigenvalues --  -10.20268 -10.20213 -10.19800 -10.19594 -10.19527
 Alpha  occ. eigenvalues --  -10.19470 -10.18993 -10.18383  -1.09550  -1.06788
 Alpha  occ. eigenvalues --   -1.04834  -1.03111  -0.99711  -0.98768  -0.98076
 Alpha  occ. eigenvalues --   -0.97850  -0.94415  -0.91861  -0.83520  -0.82396
 Alpha  occ. eigenvalues --   -0.81072  -0.80837  -0.80228  -0.79730  -0.78395
 Alpha  occ. eigenvalues --   -0.77114  -0.75626  -0.74745  -0.74410  -0.72632
 Alpha  occ. eigenvalues --   -0.71459  -0.70499  -0.69963  -0.69082  -0.68524
 Alpha  occ. eigenvalues --   -0.66937  -0.65340  -0.64433  -0.61798  -0.60489
 Alpha  occ. eigenvalues --   -0.59015  -0.58539  -0.57476  -0.57256  -0.56487
 Alpha  occ. eigenvalues --   -0.55854  -0.55173  -0.54302  -0.53320  -0.53180
 Alpha  occ. eigenvalues --   -0.52536  -0.51684  -0.51069  -0.50784  -0.50123
 Alpha  occ. eigenvalues --   -0.49923  -0.48645  -0.48340  -0.47835  -0.47530
 Alpha  occ. eigenvalues --   -0.47316  -0.46537  -0.46473  -0.46175  -0.45876
 Alpha  occ. eigenvalues --   -0.45453  -0.44852  -0.44374  -0.43914  -0.43825
 Alpha  occ. eigenvalues --   -0.43574  -0.43276  -0.42870  -0.42809  -0.42500
 Alpha  occ. eigenvalues --   -0.42467  -0.42170  -0.41867  -0.41772  -0.41454
 Alpha  occ. eigenvalues --   -0.41270  -0.41137  -0.40819  -0.40786  -0.40324
 Alpha  occ. eigenvalues --   -0.39707  -0.39486  -0.39312  -0.39065  -0.38690
 Alpha  occ. eigenvalues --   -0.38399  -0.38021  -0.37661  -0.37473  -0.37148
 Alpha  occ. eigenvalues --   -0.37142  -0.36282  -0.35838  -0.35622  -0.35560
 Alpha  occ. eigenvalues --   -0.34636  -0.34271  -0.33098  -0.31705  -0.31082
 Alpha  occ. eigenvalues --   -0.30810  -0.30545  -0.30369  -0.28524  -0.27223
 Alpha  occ. eigenvalues --   -0.26788  -0.26503  -0.26037  -0.25921  -0.24849
 Alpha  occ. eigenvalues --   -0.24208  -0.23954  -0.23790  -0.22376  -0.19291
 Alpha virt. eigenvalues --   -0.10857  -0.06858  -0.06505  -0.04572  -0.01522
 Alpha virt. eigenvalues --   -0.00259   0.00432   0.00738   0.01498   0.02306
 Alpha virt. eigenvalues --    0.03090   0.03261   0.03558   0.04533   0.05297

 Mulliken charges:
               1
     1  O   -0.205133
     2  O   -0.257627
     3  O   -0.268030
     4  O   -0.177081
     5  O   -0.284155
     6  O   -0.129354
     7  N   -0.161583
     8  N   -0.311369
     9  N   -0.070079
    10  N   -0.269140
    11  C    0.162228
    12  C    0.326625
    13  C   -0.135167
    14  C   -0.114970
    15  C   -0.049046
    16  C    0.128339
    17  C   -0.185337
    18  C    0.000984
    19  C   -0.039179
    20  C   -0.108741
    21  C    0.080963
    22  C    0.165374
    23  C   -0.119323
    24  C    0.035484
    25  C    0.004084
    26  C   -0.155311
    27  C   -0.087505
    28  C    0.154017
    29  C    0.135116
    30  C    0.007619
    31  C   -0.038365
    32  C    0.058629
    33  C   -0.139150
    34  C    0.203812
    35  C    0.066551
    36  C   -0.053857
    37  C    0.234230
    38  C   -0.008304
    39  C   -0.223796
    40  C    0.101959
    41  C   -0.012849
    42  C    0.173905
    43  C   -0.014738
    44  H    0.018433
    45  H   -0.040349
    46  H   -0.012742
    47  H    0.160934
    48  H    0.157205
    49  H    0.028348
    50  H    0.001372
    51  H    0.016815
    52  H    0.007839
    53  H    0.030103
    54  H    0.048132
    55  H    0.024576
    56  H    0.052042
    57  H    0.059420
    58  H    0.083093
    59  H    0.054954
    60  H    0.119044
    61  H    0.004241
    62  H    0.030100
    63  H    0.021128
    64  H    0.068968
    65  H    0.061766
    66  H    0.018168
    67  H    0.053306
    68  H    0.041644
    69  H   -0.017711
    70  H    0.047221
    71  H    0.018806
    72  H    0.226975
    73  H   -0.001092
    74  H    0.040555
    75  H   -0.030029
    76  H    0.003754
    77  H    0.137825
    78  H    0.038164
    79  H    0.006259
 Sum of Mulliken charges =   0.00000

 Dipole moment (field-independent basis, Debye):
    X=              0.4204    Y=              1.4494    Z=              1.3426  Tot=              2.0199
 Quadrupole moment (field-independent basis, Debye-Ang):
   XX=           -221.3992   YY=           -252.9167   ZZ=           -265.9171
   XY=            -14.6711   XZ=             32.7480   YZ=             -1.8432

 Normal termination of Gaussian 09 at Tue Jul  9 12:36:27 2019.
