 Gaussian 09, Revision D.01,
 Gaussian 09:  ES64L-G09RevD.01 24-Apr-2013

 --------------------------
 # td=(NStates=1) B3LYP/SVP
 --------------------------

 --
 TD
 --
 Symbolic Z-matrix:
 Charge =  0 Multiplicity = 1

                         Standard orientation:
 ---------------------------------------------------------------------
 Center     Atomic      Atomic             Coordinates (Angstroms)
 Number     Number       Type             X           Y           Z
 ---------------------------------------------------------------------
      1          8           0        5.517876    0.096933   -3.311144
      2          8           0       -3.132486   -3.063657    2.985222
      3          8           0       -3.205499   -0.827385    3.341520
      4          8           0       -1.665509    7.056478    1.604478
      5          8           0       -0.842323    6.990820   -0.524613
      6          8           0       -1.828096   -4.057891   -0.189575
      7          7           0        2.325243    0.943825    0.646252
      8          7           0        4.493760   -0.497594   -1.232274
      9          7           0       -1.861337    0.613798   -0.443779
     10          7           0       -2.680051   -1.918843   -0.460196
     11          6           0        4.856946   -1.093452   -0.009906
     12          6           0        4.456533   -0.282071    1.201889
     13          6           0        2.975138   -0.009653    1.456547
     14          6           0        1.983155   -0.544445    2.235695
     15          6           0        0.762303    0.055235    1.883785
     16          6           0        1.009295    0.960770    0.898593
     17          6           0        6.379563   -1.355430   -0.167098
     18          6           0       -0.533078   -0.248264    2.697988
     19          6           0        6.725615   -1.002404   -1.507556
     20          6           0        0.192933    1.881472    0.125104
     21          6           0       -1.048330    1.759808   -0.393288
     22          6           0        5.532601   -0.374145   -2.191030
     23          6           0       -1.876854    2.891928   -0.883946
     24          6           0        2.303327   -1.726187    3.205824
     25          6           0        7.206127   -1.989748    0.958303
     26          6           0       -3.047357    2.403667   -1.397839
     27          6           0       -1.008308   -1.682270    2.563023
     28          6           0       -3.031222    0.958934   -1.071121
     29          6           0       -1.497329    4.309293   -0.881284
     30          6           0        8.006249   -0.770761   -2.129115
     31          6           0       -1.744329    4.965462    0.475730
     32          6           0       -4.287675    3.020954   -1.948837
     33          6           0       -3.996690   -0.001514   -1.280086
     34          6           0       -2.567020   -1.830096    3.045960
     35          6           0       -3.787535   -1.443106   -1.089840
     36          6           0        9.240604   -0.826106   -1.577903
     37          6           0       -1.406879    6.399250    0.406940
     38          6           0       -4.666011   -2.528381   -1.468080
     39          6           0       -4.046974   -3.700212   -1.099592
     40          6           0       -2.715576   -3.268611   -0.567261
     41          6           0       -6.078981   -2.327849   -1.978071
     42          6           0       -4.462270   -5.206635   -1.224947
     43          6           0       -6.814546   -3.144183   -2.652890
     44          1           0        4.410893   -2.070242    0.123972
     45          1           0        5.243528    0.663803    1.288383
     46          1           0        4.885098   -0.873706    1.857499
     47          1           0        2.618670    1.609688    0.112317
     48          1           0        3.586677   -0.322472   -1.501060
     49          1           0       -0.430074    0.006190    3.715422
     50          1           0       -1.214651    0.292824    2.164889
     51          1           0        0.543468    2.808110   -0.004204
     52          1           0        3.452904   -1.599943    3.398679
     53          1           0        1.748219   -1.600058    4.225809
     54          1           0        2.140836   -2.669943    2.998845
     55          1           0        6.439306   -2.624559    1.496966
     56          1           0        7.358052   -1.187652    1.636864
     57          1           0        8.254841   -2.440406    0.734665
     58          1           0       -1.061851   -2.127082    1.572678
     59          1           0       -0.423549   -2.471940    3.066936
     60          1           0       -1.756712   -0.443023   -0.398565
     61          1           0       -2.279607    4.898116   -1.615907
     62          1           0       -0.447709    4.678875   -1.112510
     63          1           0        7.884372   -1.035870   -3.284216
     64          1           0       -1.162597    4.451084    1.328543
     65          1           0       -2.839911    4.809343    0.702436
     66          1           0       -4.246179    4.191095   -2.136187
     67          1           0       -5.084680    2.834288   -1.160254
     68          1           0       -4.930214    2.414639   -2.787786
     69          1           0       -4.988459    0.275405   -1.522461
     70          1           0        9.377526   -0.697843   -0.399156
     71          1           0       10.123991   -0.565067   -2.185765
     72          1           0       -4.122686   -2.986103    3.068223
     73          1           0       -6.486282   -1.442358   -2.025915
     74          1           0       -4.327429   -5.735353   -2.134219
     75          1           0       -3.656067   -5.632918   -0.731813
     76          1           0       -5.384779   -5.531145   -0.428019
     77          1           0       -1.446464    8.044730    1.162653
     78          1           0       -7.803240   -2.737056   -2.921321
     79          1           0       -6.750799   -4.241625   -2.937672
 ---------------------------------------------------------------------

 SCF Done:  E(RB3LYP) =  -1947.83822422     A.U. after   16 cycles

 Excitation energies and oscillator strengths:

 Excited State   1:      Singlet-A      2.1605 eV  573.86 nm  f=0.3643  <S**2>=0.000
     152 ->156         0.11976
     155 ->156         0.69028
 This state for optimization and/or second-order correction.
 Total Energy, E(TD-HF/TD-KS) =  -1947.75882683
 Copying the excited state density for this state as the 1-particle RhoCI density.

 The electronic state is 1-A.
 Alpha  occ. eigenvalues --  -19.19766 -19.17331 -19.14914 -19.10982 -19.10758
 Alpha  occ. eigenvalues --  -19.10223 -14.37103 -14.36664 -14.34299 -14.30041
 Alpha  occ. eigenvalues --  -10.33731 -10.30935 -10.28452 -10.26795 -10.25477
 Alpha  occ. eigenvalues --  -10.25335 -10.24889 -10.24513 -10.23550 -10.23217
 Alpha  occ. eigenvalues --  -10.23209 -10.22975 -10.22761 -10.22681 -10.22596
 Alpha  occ. eigenvalues --  -10.22529 -10.22115 -10.21669 -10.21301 -10.20952
 Alpha  occ. eigenvalues --  -10.20815 -10.20461 -10.20335 -10.20242 -10.19928
 Alpha  occ. eigenvalues --  -10.19915 -10.19636 -10.19599 -10.19310 -10.19170
 Alpha  occ. eigenvalues --  -10.19169 -10.18555 -10.18062  -1.09090  -1.07227
 Alpha  occ. eigenvalues --   -1.02100  -1.00849  -1.00118  -1.00002  -0.98311
 Alpha  occ. eigenvalues --   -0.98245  -0.94307  -0.93112  -0.84448  -0.82399
 Alpha  occ. eigenvalues --   -0.81888  -0.81161  -0.80941  -0.80077  -0.79400
 Alpha  occ. eigenvalues --   -0.77498  -0.76309  -0.75841  -0.75151  -0.73049
 Alpha  occ. eigenvalues --   -0.71745  -0.71142  -0.70486  -0.69705  -0.68396
 Alpha  occ. eigenvalues --   -0.66303  -0.66125  -0.64782  -0.61263  -0.60759
 Alpha  occ. eigenvalues --   -0.59501  -0.59426  -0.58339  -0.58037  -0.57245
 Alpha  occ. eigenvalues --   -0.56855  -0.55829  -0.55620  -0.54512  -0.53885
 Alpha  occ. eigenvalues --   -0.52815  -0.52299  -0.51277  -0.50818  -0.50511
 Alpha  occ. eigenvalues --   -0.49667  -0.49444  -0.48129  -0.47785  -0.47596
 Alpha  occ. eigenvalues --   -0.46870  -0.46720  -0.46307  -0.46092  -0.45500
 Alpha  occ. eigenvalues --   -0.45273  -0.45025  -0.44413  -0.44312  -0.43865
 Alpha  occ. eigenvalues --   -0.43581  -0.43387  -0.43177  -0.43067  -0.42540
 Alpha  occ. eigenvalues --   -0.42424  -0.42105  -0.41973  -0.41839  -0.41032
 Alpha  occ. eigenvalues --   -0.40994  -0.40585  -0.40354  -0.40110  -0.39607
 Alpha  occ. eigenvalues --   -0.39486  -0.39228  -0.39178  -0.38961  -0.38695
 Alpha  occ. eigenvalues --   -0.38520  -0.38122  -0.37821  -0.37298  -0.36927
 Alpha  occ. eigenvalues --   -0.36881  -0.36470  -0.35603  -0.34795  -0.34271
 Alpha  occ. eigenvalues --   -0.34088  -0.33897  -0.33118  -0.32849  -0.31760
 Alpha  occ. eigenvalues --   -0.30747  -0.30307  -0.30044  -0.29307  -0.28378
 Alpha  occ. eigenvalues --   -0.26817  -0.26260  -0.26151  -0.25610  -0.25015
 Alpha  occ. eigenvalues --   -0.24762  -0.24408  -0.23585  -0.23424  -0.20357
 Alpha virt. eigenvalues --   -0.11722  -0.06931  -0.06370  -0.02904  -0.00785
 Alpha virt. eigenvalues --    0.00654   0.00819   0.01549   0.01864   0.02238
 Alpha virt. eigenvalues --    0.03264   0.04136   0.04385   0.04897   0.05089

 Mulliken charges:
               1
     1  O   -0.213225
     2  O   -0.199290
     3  O   -0.254652
     4  O   -0.259628
     5  O   -0.258775
     6  O   -0.225985
     7  N    0.012775
     8  N   -0.183818
     9  N   -0.106809
    10  N   -0.272048
    11  C    0.103026
    12  C    0.212455
    13  C   -0.029354
    14  C   -0.099441
    15  C   -0.173691
    16  C    0.050863
    17  C   -0.188265
    18  C    0.287292
    19  C   -0.115189
    20  C   -0.051751
    21  C    0.129657
    22  C    0.170699
    23  C   -0.048324
    24  C    0.085136
    25  C    0.101917
    26  C   -0.046023
    27  C   -0.051903
    28  C    0.094027
    29  C   -0.020752
    30  C   -0.006791
    31  C   -0.035171
    32  C    0.005017
    33  C   -0.082481
    34  C    0.144239
    35  C    0.063816
    36  C   -0.076540
    37  C    0.184929
    38  C    0.046378
    39  C   -0.205096
    40  C    0.153770
    41  C    0.083633
    42  C    0.111305
    43  C   -0.062173
    44  H    0.012067
    45  H    0.019713
    46  H   -0.108206
    47  H    0.041918
    48  H    0.091489
    49  H    0.004186
    50  H   -0.041721
    51  H   -0.072100
    52  H    0.017132
    53  H    0.020464
    54  H    0.004070
    55  H    0.032263
    56  H    0.019984
    57  H    0.066345
    58  H    0.045453
    59  H    0.013369
    60  H    0.167624
    61  H    0.043417
    62  H    0.050120
    63  H    0.048080
    64  H    0.074371
    65  H    0.051725
    66  H    0.050276
    67  H    0.038700
    68  H    0.051543
    69  H   -0.043610
    70  H    0.032882
    71  H    0.039152
    72  H    0.194028
    73  H   -0.076404
    74  H    0.027631
    75  H   -0.015520
    76  H    0.048576
    77  H    0.227092
    78  H    0.015671
    79  H    0.034463
 Sum of Mulliken charges =   0.00000

 Dipole moment (field-independent basis, Debye):
    X=             -2.0262    Y=              2.1591    Z=              2.3195  Tot=              3.7613
 Quadrupole moment (field-independent basis, Debye-Ang):
   XX=           -218.7173   YY=           -247.1154   ZZ=           -270.9222
   XY=            -10.9213   XZ=             37.9689   YZ=              1.4565

 Normal termination of Gaussian 09 at Mon Jul  8 20:04:39 2019.
