 Gaussian 09, Revision D.01,
 Gaussian 09:  ES64L-G09RevD.01 24-Apr-2013

 --------------------------
 # td=(NStates=1) B3LYP/SVP
 --------------------------

 --
 TD
 --
 Symbolic Z-matrix:
 Charge =  0 Multiplicity = 1

                         Standard orientation:
 ---------------------------------------------------------------------
 Center     Atomic      Atomic             Coordinates (Angstroms)
 Number     Number       Type             X           Y           Z
 ---------------------------------------------------------------------
      1          8           0        5.251224    0.165238   -3.281508
      2          8           0       -2.927223   -3.134636    2.988568
      3          8           0       -3.161596   -0.994460    3.514170
      4          8           0       -1.909146    7.344568    1.446009
      5          8           0       -0.643985    7.012406   -0.349275
      6          8           0       -1.615617   -3.976075   -0.146749
      7          7           0        2.333355    0.875391    0.474422
      8          7           0        4.341920   -0.567730   -1.281339
      9          7           0       -1.843988    0.677236   -0.454228
     10          7           0       -2.514045   -1.875106   -0.609421
     11          6           0        4.852146   -1.207468   -0.039062
     12          6           0        4.429605   -0.455983    1.282669
     13          6           0        2.989052   -0.012500    1.286014
     14          6           0        2.009381   -0.560651    2.178874
     15          6           0        0.706659    0.040674    1.847330
     16          6           0        0.984428    0.940167    0.738475
     17          6           0        6.285494   -1.344642   -0.191624
     18          6           0       -0.602312   -0.273891    2.470876
     19          6           0        6.661514   -0.829350   -1.411082
     20          6           0        0.162486    2.038810    0.167879
     21          6           0       -1.180654    1.861228   -0.361386
     22          6           0        5.362660   -0.266612   -2.112939
     23          6           0       -1.993103    2.907730   -0.866657
     24          6           0        2.244450   -1.492501    3.300535
     25          6           0        7.076791   -1.959972    0.866972
     26          6           0       -3.135682    2.325594   -1.258149
     27          6           0       -1.148847   -1.717195    2.526021
     28          6           0       -3.069011    0.975719   -0.949282
     29          6           0       -1.542140    4.288567   -0.876812
     30          6           0        7.924196   -0.678728   -2.108344
     31          6           0       -1.872304    5.039554    0.427696
     32          6           0       -4.318998    2.930456   -1.908197
     33          6           0       -3.906343   -0.094134   -1.341868
     34          6           0       -2.389908   -1.868804    3.041120
     35          6           0       -3.698376   -1.555605   -1.071189
     36          6           0        9.156342   -0.714991   -1.533831
     37          6           0       -1.438161    6.517220    0.467043
     38          6           0       -4.585766   -2.621929   -1.444971
     39          6           0       -3.876274   -3.782993   -1.001023
     40          6           0       -2.537268   -3.272612   -0.588110
     41          6           0       -5.805950   -2.467558   -2.143881
     42          6           0       -4.281543   -5.226848   -1.043561
     43          6           0       -6.846171   -3.444567   -2.586686
     44          1           0        4.197904   -2.156570    0.026814
     45          1           0        4.857213    0.612472    1.313613
     46          1           0        4.695126   -1.065063    2.244715
     47          1           0        2.805813    1.176659   -0.280710
     48          1           0        3.546543   -0.695287   -1.711114
     49          1           0       -0.555285    0.178242    3.505669
     50          1           0       -1.456306    0.297098    2.142864
     51          1           0        0.708963    2.976545    0.209151
     52          1           0        3.273274   -1.360098    3.670649
     53          1           0        2.018085   -1.157878    4.333824
     54          1           0        2.081200   -2.456908    3.355349
     55          1           0        6.725449   -3.013450    1.242181
     56          1           0        7.092484   -1.122809    1.950444
     57          1           0        8.237360   -2.160822    0.516467
     58          1           0       -0.958141   -2.148806    1.498869
     59          1           0       -0.246177   -2.368400    2.986431
     60          1           0       -1.393214   -0.324835   -0.607133
     61          1           0       -2.264188    4.898008   -1.617372
     62          1           0       -0.447715    4.611150   -1.239873
     63          1           0        7.894402   -0.490766   -3.264238
     64          1           0       -1.238111    4.411855    1.264571
     65          1           0       -3.128734    5.015729    0.714146
     66          1           0       -4.197926    3.953971   -2.138965
     67          1           0       -5.191593    2.877974   -1.397741
     68          1           0       -4.534960    2.441001   -2.940647
     69          1           0       -4.967186    0.071269   -1.963744
     70          1           0        9.242701   -0.923157   -0.299345
     71          1           0       10.089289   -0.758669   -2.059077
     72          1           0       -3.721902   -3.123068    3.677378
     73          1           0       -6.081207   -1.417079   -2.177866
     74          1           0       -4.297628   -5.673354   -2.240871
     75          1           0       -3.538231   -5.641467   -0.439983
     76          1           0       -5.399619   -5.437784   -0.713237
     77          1           0       -1.386229    8.192418    1.212493
     78          1           0       -7.623679   -2.808861   -3.190947
     79          1           0       -6.706084   -4.611243   -2.435612
 ---------------------------------------------------------------------

 SCF Done:  E(RB3LYP) =  -1947.75995280     A.U. after   19 cycles

 Excitation energies and oscillator strengths:

 Excited State   1:      Singlet-A      1.8145 eV  683.31 nm  f=0.3910  <S**2>=0.000
     154 ->156         0.12323
     155 ->156         0.69270
     155 <-156        -0.12310
 This state for optimization and/or second-order correction.
 Total Energy, E(TD-HF/TD-KS) =  -1947.69327244
 Copying the excited state density for this state as the 1-particle RhoCI density.

 The electronic state is 1-A.
 Alpha  occ. eigenvalues --  -19.19256 -19.15818 -19.13322 -19.10711 -19.10638
 Alpha  occ. eigenvalues --  -19.10407 -14.38392 -14.36491 -14.36091 -14.29630
 Alpha  occ. eigenvalues --  -10.33417 -10.30155 -10.29374 -10.26749 -10.26590
 Alpha  occ. eigenvalues --  -10.25046 -10.24881 -10.24379 -10.24275 -10.23874
 Alpha  occ. eigenvalues --  -10.23604 -10.23528 -10.23485 -10.22977 -10.22865
 Alpha  occ. eigenvalues --  -10.22774 -10.22678 -10.21937 -10.21578 -10.21487
 Alpha  occ. eigenvalues --  -10.21316 -10.20983 -10.20941 -10.20902 -10.20742
 Alpha  occ. eigenvalues --  -10.20570 -10.20322 -10.20156 -10.19649 -10.19601
 Alpha  occ. eigenvalues --  -10.19436 -10.18772 -10.18483  -1.09621  -1.05804
 Alpha  occ. eigenvalues --   -1.02255  -1.00931  -0.99935  -0.99274  -0.99003
 Alpha  occ. eigenvalues --   -0.95489  -0.95014  -0.93250  -0.83978  -0.83881
 Alpha  occ. eigenvalues --   -0.81485  -0.81089  -0.80097  -0.79860  -0.78001
 Alpha  occ. eigenvalues --   -0.77565  -0.76697  -0.75048  -0.73998  -0.72402
 Alpha  occ. eigenvalues --   -0.72101  -0.71357  -0.69787  -0.69123  -0.68636
 Alpha  occ. eigenvalues --   -0.67850  -0.66017  -0.63858  -0.62013  -0.60593
 Alpha  occ. eigenvalues --   -0.59153  -0.58825  -0.58604  -0.58276  -0.57127
 Alpha  occ. eigenvalues --   -0.56449  -0.55160  -0.54855  -0.54465  -0.53582
 Alpha  occ. eigenvalues --   -0.51874  -0.51184  -0.51155  -0.50737  -0.50134
 Alpha  occ. eigenvalues --   -0.49391  -0.48812  -0.48759  -0.48102  -0.47275
 Alpha  occ. eigenvalues --   -0.46688  -0.46490  -0.46367  -0.45572  -0.45486
 Alpha  occ. eigenvalues --   -0.45237  -0.44891  -0.44620  -0.44230  -0.43751
 Alpha  occ. eigenvalues --   -0.43595  -0.43209  -0.42996  -0.42608  -0.42331
 Alpha  occ. eigenvalues --   -0.42249  -0.41683  -0.41500  -0.41357  -0.41140
 Alpha  occ. eigenvalues --   -0.40735  -0.40422  -0.40269  -0.40147  -0.39779
 Alpha  occ. eigenvalues --   -0.39343  -0.38947  -0.38568  -0.38410  -0.37933
 Alpha  occ. eigenvalues --   -0.37812  -0.37745  -0.37593  -0.37194  -0.36792
 Alpha  occ. eigenvalues --   -0.36414  -0.35886  -0.35043  -0.33987  -0.33695
 Alpha  occ. eigenvalues --   -0.33540  -0.33013  -0.32369  -0.32082  -0.30767
 Alpha  occ. eigenvalues --   -0.30314  -0.29245  -0.28841  -0.28683  -0.28198
 Alpha  occ. eigenvalues --   -0.27501  -0.26799  -0.25862  -0.25810  -0.24619
 Alpha  occ. eigenvalues --   -0.24577  -0.24272  -0.23162  -0.21701  -0.18907
 Alpha virt. eigenvalues --   -0.11827  -0.07838  -0.07158  -0.02331  -0.02055
 Alpha virt. eigenvalues --   -0.00885  -0.00031   0.00588   0.01705   0.02253
 Alpha virt. eigenvalues --    0.03382   0.04106   0.04251   0.04405   0.04949

 Mulliken charges:
               1
     1  O   -0.257066
     2  O   -0.246591
     3  O   -0.286419
     4  O   -0.207383
     5  O   -0.271896
     6  O   -0.223662
     7  N    0.000524
     8  N   -0.125493
     9  N   -0.083822
    10  N   -0.256131
    11  C    0.074600
    12  C    0.147259
    13  C   -0.137337
    14  C   -0.112994
    15  C   -0.062728
    16  C    0.010631
    17  C   -0.046069
    18  C    0.094952
    19  C   -0.051614
    20  C   -0.100677
    21  C    0.056658
    22  C    0.133195
    23  C    0.007627
    24  C    0.117297
    25  C   -0.088538
    26  C   -0.128375
    27  C   -0.029512
    28  C    0.130554
    29  C   -0.013857
    30  C   -0.031332
    31  C   -0.109426
    32  C    0.167997
    33  C   -0.168359
    34  C    0.183671
    35  C    0.048771
    36  C   -0.074475
    37  C    0.183883
    38  C    0.058927
    39  C   -0.171646
    40  C    0.157973
    41  C   -0.079732
    42  C    0.015983
    43  C   -0.067570
    44  H    0.039080
    45  H    0.014261
    46  H    0.040128
    47  H    0.071722
    48  H    0.084064
    49  H    0.007778
    50  H   -0.000697
    51  H    0.011820
    52  H   -0.028710
    53  H   -0.000515
    54  H   -0.005533
    55  H    0.058625
    56  H    0.068639
    57  H    0.059910
    58  H    0.076478
    59  H    0.052385
    60  H    0.206466
    61  H    0.026241
    62  H    0.073903
    63  H    0.049152
    64  H    0.077057
    65  H    0.077068
    66  H   -0.018343
    67  H   -0.001817
    68  H    0.030695
    69  H    0.020237
    70  H    0.045545
    71  H    0.029853
    72  H    0.215220
    73  H   -0.006012
    74  H    0.055279
    75  H    0.030716
    76  H    0.049805
    77  H    0.206668
    78  H    0.059806
    79  H    0.065229
 Sum of Mulliken charges =   0.00000

 Dipole moment (field-independent basis, Debye):
    X=              1.3307    Y=              0.6477    Z=              2.1920  Tot=              2.6448
 Quadrupole moment (field-independent basis, Debye-Ang):
   XX=           -220.8514   YY=           -249.6380   ZZ=           -264.4414
   XY=            -14.6778   XZ=             34.7517   YZ=              0.5875

 Normal termination of Gaussian 09 at Wed Jul 10 22:04:49 2019.
