 Gaussian 09, Revision D.01,
 Gaussian 09:  ES64L-G09RevD.01 24-Apr-2013

 --------------------------
 # td=(NStates=1) B3LYP/SVP
 --------------------------

 --
 TD
 --
 Symbolic Z-matrix:
 Charge =  0 Multiplicity = 1

                         Standard orientation:
 ---------------------------------------------------------------------
 Center     Atomic      Atomic             Coordinates (Angstroms)
 Number     Number       Type             X           Y           Z
 ---------------------------------------------------------------------
      1          8           0        5.357232   -0.527019   -3.402630
      2          8           0       -2.833060   -2.814606    3.484592
      3          8           0       -3.322740   -0.682837    3.259519
      4          8           0       -1.727507    7.440661    1.047630
      5          8           0        0.096392    6.813513   -0.376784
      6          8           0       -1.926369   -4.045356    0.135933
      7          7           0        2.295755    0.903065    0.539845
      8          7           0        4.343104   -0.663792   -1.190405
      9          7           0       -1.942860    0.621406   -0.384400
     10          7           0       -2.576862   -1.847310   -0.477287
     11          6           0        4.808767   -1.180085    0.084627
     12          6           0        4.450976   -0.212931    1.116159
     13          6           0        2.928273    0.053056    1.339223
     14          6           0        2.059006   -0.507670    2.272758
     15          6           0        0.696867    0.035319    1.913772
     16          6           0        0.968835    0.936299    0.859338
     17          6           0        6.342406   -1.287649   -0.110185
     18          6           0       -0.606029   -0.002100    2.605014
     19          6           0        6.650218   -0.969327   -1.437396
     20          6           0        0.173959    1.899303    0.087952
     21          6           0       -1.151955    1.742546   -0.354121
     22          6           0        5.397047   -0.700114   -2.207871
     23          6           0       -1.967650    2.855667   -0.957972
     24          6           0        2.211334   -1.646527    3.413630
     25          6           0        7.202218   -1.707358    0.996106
     26          6           0       -3.208847    2.341168   -1.306329
     27          6           0       -1.071503   -1.456205    2.665809
     28          6           0       -3.072147    0.885420   -1.048633
     29          6           0       -1.498141    4.292410   -1.023052
     30          6           0        7.829581   -0.977342   -2.202728
     31          6           0       -1.922734    5.259216    0.139944
     32          6           0       -4.400547    2.968046   -1.878147
     33          6           0       -4.054693   -0.085475   -1.302797
     34          6           0       -2.589775   -1.618984    3.109394
     35          6           0       -3.761783   -1.448764   -1.039346
     36          6           0        9.104547   -0.961519   -1.615362
     37          6           0       -1.118411    6.528263    0.174541
     38          6           0       -4.635695   -2.642907   -1.403372
     39          6           0       -3.928578   -3.815169   -1.130745
     40          6           0       -2.688934   -3.255825   -0.408508
     41          6           0       -6.033244   -2.420926   -2.127997
     42          6           0       -4.203545   -5.299960   -1.314988
     43          6           0       -6.835708   -3.503380   -2.511878
     44          1           0        4.437537   -2.121703    0.457418
     45          1           0        5.027355    0.805039    0.951417
     46          1           0        4.781679   -0.645231    2.130383
     47          1           0        2.728845    1.568903   -0.072515
     48          1           0        3.459988   -0.672077   -1.544207
     49          1           0       -0.809456    0.458230    3.754662
     50          1           0       -1.329465    0.684775    2.144021
     51          1           0        0.723473    3.009133    0.046250
     52          1           0        3.143975   -1.855954    3.707196
     53          1           0        1.781854   -1.236954    4.347836
     54          1           0        1.772349   -2.528150    3.065749
     55          1           0        6.643952   -2.373073    1.804207
     56          1           0        7.669588   -0.874485    1.669669
     57          1           0        8.001040   -2.396304    0.730308
     58          1           0       -1.177094   -2.080484    1.671742
     59          1           0       -0.264400   -2.003317    3.192524
     60          1           0       -1.677124   -0.333990   -0.125707
     61          1           0       -1.878257    4.709982   -1.958651
     62          1           0       -0.426997    4.251503   -1.348279
     63          1           0        7.788733   -1.095798   -3.284173
     64          1           0       -1.939086    4.842893    1.259259
     65          1           0       -2.983706    5.548957    0.166871
     66          1           0       -4.272854    3.993724   -1.849089
     67          1           0       -5.173821    2.786823   -1.255428
     68          1           0       -4.543184    2.458564   -2.939077
     69          1           0       -4.836073    0.301239   -1.879486
     70          1           0        9.304838   -0.577964   -0.460091
     71          1           0       10.039987   -1.025893   -2.147876
     72          1           0       -3.857794   -2.872797    3.685597
     73          1           0       -6.245945   -1.421491   -2.218484
     74          1           0       -4.300977   -5.511098   -2.434286
     75          1           0       -3.434338   -6.030652   -1.124106
     76          1           0       -5.085964   -5.249808   -0.822998
     77          1           0       -1.080944    8.180809    1.082083
     78          1           0       -7.783799   -3.319073   -3.135570
     79          1           0       -6.634153   -4.521697   -2.248560
 ---------------------------------------------------------------------

 SCF Done:  E(RB3LYP) =  -1947.86129482     A.U. after   18 cycles

 Excitation energies and oscillator strengths:

 Excited State   1:      Singlet-A      2.2517 eV  550.64 nm  f=0.4087  <S**2>=0.000
     155 ->156         0.69210
 This state for optimization and/or second-order correction.
 Total Energy, E(TD-HF/TD-KS) =  -1947.77854820
 Copying the excited state density for this state as the 1-particle RhoCI density.

 The electronic state is 1-A.
 Alpha  occ. eigenvalues --  -19.20154 -19.18060 -19.14095 -19.11334 -19.10368
 Alpha  occ. eigenvalues --  -19.10098 -14.37791 -14.36699 -14.34486 -14.29677
 Alpha  occ. eigenvalues --  -10.34906 -10.29946 -10.28868 -10.26500 -10.24851
 Alpha  occ. eigenvalues --  -10.24778 -10.24343 -10.24320 -10.24222 -10.23198
 Alpha  occ. eigenvalues --  -10.22663 -10.22641 -10.22337 -10.22162 -10.21918
 Alpha  occ. eigenvalues --  -10.21827 -10.21815 -10.21305 -10.21290 -10.21051
 Alpha  occ. eigenvalues --  -10.21013 -10.20585 -10.20421 -10.20396 -10.20306
 Alpha  occ. eigenvalues --  -10.20235 -10.19808 -10.19473 -10.19381 -10.19054
 Alpha  occ. eigenvalues --  -10.18825 -10.18739 -10.18531  -1.10220  -1.07888
 Alpha  occ. eigenvalues --   -1.03137  -1.00727  -0.99565  -0.99438  -0.99166
 Alpha  occ. eigenvalues --   -0.95537  -0.93530  -0.90751  -0.83089  -0.82000
 Alpha  occ. eigenvalues --   -0.81289  -0.79944  -0.79695  -0.79090  -0.78336
 Alpha  occ. eigenvalues --   -0.76751  -0.75123  -0.74499  -0.74136  -0.73569
 Alpha  occ. eigenvalues --   -0.71208  -0.70817  -0.69869  -0.69840  -0.69001
 Alpha  occ. eigenvalues --   -0.66051  -0.65185  -0.63069  -0.60587  -0.60054
 Alpha  occ. eigenvalues --   -0.59704  -0.58992  -0.58481  -0.57719  -0.57598
 Alpha  occ. eigenvalues --   -0.57045  -0.55923  -0.54764  -0.53744  -0.52745
 Alpha  occ. eigenvalues --   -0.52007  -0.51801  -0.50744  -0.50672  -0.49515
 Alpha  occ. eigenvalues --   -0.48756  -0.48407  -0.48025  -0.47455  -0.47178
 Alpha  occ. eigenvalues --   -0.46698  -0.46476  -0.46156  -0.45920  -0.45724
 Alpha  occ. eigenvalues --   -0.45567  -0.44989  -0.44167  -0.43923  -0.43722
 Alpha  occ. eigenvalues --   -0.43345  -0.43121  -0.43026  -0.42774  -0.42612
 Alpha  occ. eigenvalues --   -0.42256  -0.42180  -0.41986  -0.41778  -0.41154
 Alpha  occ. eigenvalues --   -0.40811  -0.40499  -0.40129  -0.39975  -0.39610
 Alpha  occ. eigenvalues --   -0.39391  -0.39256  -0.38935  -0.38846  -0.38491
 Alpha  occ. eigenvalues --   -0.38085  -0.38039  -0.37297  -0.37004  -0.36678
 Alpha  occ. eigenvalues --   -0.36411  -0.35769  -0.34734  -0.34698  -0.34137
 Alpha  occ. eigenvalues --   -0.33735  -0.33397  -0.31452  -0.31343  -0.30908
 Alpha  occ. eigenvalues --   -0.30386  -0.30145  -0.28445  -0.28079  -0.27845
 Alpha  occ. eigenvalues --   -0.27145  -0.26465  -0.26015  -0.25936  -0.23742
 Alpha  occ. eigenvalues --   -0.23626  -0.23501  -0.23129  -0.22248  -0.19417
 Alpha virt. eigenvalues --   -0.10394  -0.06777  -0.05929  -0.05018  -0.01276
 Alpha virt. eigenvalues --    0.00116   0.01183   0.02741   0.03057   0.03472
 Alpha virt. eigenvalues --    0.03782   0.04117   0.04405   0.05183   0.05250

 Mulliken charges:
               1
     1  O   -0.197893
     2  O   -0.143896
     3  O   -0.235949
     4  O   -0.208618
     5  O   -0.342504
     6  O   -0.216639
     7  N   -0.004977
     8  N   -0.235474
     9  N   -0.014109
    10  N   -0.321847
    11  C    0.180178
    12  C    0.102586
    13  C   -0.108166
    14  C   -0.159164
    15  C   -0.064517
    16  C    0.024460
    17  C   -0.112122
    18  C    0.045045
    19  C   -0.025235
    20  C   -0.156231
    21  C    0.108358
    22  C    0.167433
    23  C   -0.129203
    24  C    0.166357
    25  C    0.013271
    26  C   -0.167979
    27  C   -0.106978
    28  C    0.045622
    29  C    0.109676
    30  C   -0.023716
    31  C    0.012476
    32  C    0.205141
    33  C   -0.088046
    34  C    0.113399
    35  C    0.137130
    36  C   -0.081725
    37  C    0.200069
    38  C   -0.034237
    39  C   -0.206700
    40  C    0.155016
    41  C    0.055813
    42  C    0.125667
    43  C   -0.033106
    44  H    0.004799
    45  H    0.008954
    46  H    0.003690
    47  H    0.111057
    48  H    0.095215
    49  H    0.028439
    50  H    0.004574
    51  H    0.062315
    52  H   -0.050221
    53  H    0.025264
    54  H    0.041747
    55  H    0.019515
    56  H    0.056982
    57  H    0.034306
    58  H    0.080596
    59  H    0.017325
    60  H    0.156873
    61  H    0.006450
    62  H    0.034088
    63  H    0.024232
    64  H    0.081613
    65  H    0.036432
    66  H   -0.017903
    67  H   -0.001792
    68  H    0.060515
    69  H   -0.055260
    70  H    0.045568
    71  H    0.025224
    72  H    0.203986
    73  H   -0.037585
    74  H    0.032639
    75  H    0.025755
    76  H    0.032761
    77  H    0.195131
    78  H    0.040463
    79  H    0.017584
 Sum of Mulliken charges =   0.00000

 Dipole moment (field-independent basis, Debye):
    X=             -1.0671    Y=              2.3397    Z=              2.0692  Tot=              3.3007
 Quadrupole moment (field-independent basis, Debye-Ang):
   XX=           -219.0982   YY=           -241.9287   ZZ=           -261.6007
   XY=            -12.0039   XZ=             31.6774   YZ=              0.5793

 Normal termination of Gaussian 09 at Mon Jul  8 12:48:00 2019.
