 Gaussian 09, Revision D.01,
 Gaussian 09:  ES64L-G09RevD.01 24-Apr-2013

 --------------------------
 # td=(NStates=1) B3LYP/SVP
 --------------------------

 --
 TD
 --
 Symbolic Z-matrix:
 Charge =  0 Multiplicity = 1

                         Standard orientation:
 ---------------------------------------------------------------------
 Center     Atomic      Atomic             Coordinates (Angstroms)
 Number     Number       Type             X           Y           Z
 ---------------------------------------------------------------------
      1          8           0        5.164095   -0.202153   -3.466403
      2          8           0       -2.828695   -3.052004    3.530853
      3          8           0       -3.199092   -0.791587    3.240629
      4          8           0       -1.448667    7.362051    1.535134
      5          8           0       -0.228751    6.909563   -0.312871
      6          8           0       -2.267098   -4.054225    0.105754
      7          7           0        2.432280    0.805422    0.586663
      8          7           0        4.413852   -0.728801   -1.304388
      9          7           0       -1.874692    0.698983   -0.469798
     10          7           0       -2.884847   -1.809407   -0.470470
     11          6           0        4.843380   -1.310769   -0.077016
     12          6           0        4.542947   -0.477375    1.253223
     13          6           0        3.082161   -0.162438    1.357730
     14          6           0        2.009109   -0.803998    2.156786
     15          6           0        0.832968   -0.221089    1.822395
     16          6           0        1.076730    0.740434    0.784012
     17          6           0        6.300246   -1.399752   -0.295844
     18          6           0       -0.447397   -0.415663    2.581379
     19          6           0        6.644576   -0.991040   -1.490068
     20          6           0        0.239964    1.872943    0.226464
     21          6           0       -1.029100    1.723079   -0.190941
     22          6           0        5.385836   -0.591640   -2.288179
     23          6           0       -1.839694    2.909110   -0.701423
     24          6           0        2.318744   -1.863960    3.218050
     25          6           0        7.198089   -1.885187    0.814302
     26          6           0       -3.057490    2.421229   -1.188320
     27          6           0       -1.063653   -1.806114    2.517922
     28          6           0       -3.046272    0.991998   -0.970472
     29          6           0       -1.297887    4.361343   -0.729736
     30          6           0        7.940123   -0.957194   -2.180912
     31          6           0       -1.593030    5.153153    0.525194
     32          6           0       -4.083389    3.214999   -1.877394
     33          6           0       -3.969027    0.031884   -1.439146
     34          6           0       -2.498132   -1.801034    3.083184
     35          6           0       -3.935953   -1.294631   -1.130618
     36          6           0        9.084874   -0.857031   -1.681953
     37          6           0       -0.986082    6.512320    0.509272
     38          6           0       -4.743482   -2.345421   -1.616081
     39          6           0       -4.311774   -3.489758   -1.225198
     40          6           0       -3.056875   -3.226288   -0.510993
     41          6           0       -6.016815   -2.002027   -2.458160
     42          6           0       -4.793825   -4.964001   -1.159933
     43          6           0       -7.133288   -2.940932   -2.642148
     44          1           0        4.494640   -2.351888    0.128552
     45          1           0        5.149083    0.465970    1.235042
     46          1           0        4.758634   -1.050444    2.187890
     47          1           0        3.107337    1.375512   -0.053150
     48          1           0        3.399199   -0.823474   -1.387524
     49          1           0       -0.364919   -0.146028    3.669950
     50          1           0       -1.174822    0.434678    1.978146
     51          1           0        0.774115    2.777854    0.249444
     52          1           0        3.403995   -1.975682    3.223937
     53          1           0        1.962704   -1.403742    4.115466
     54          1           0        1.595764   -2.792246    2.975512
     55          1           0        6.682146   -2.335502    1.572189
     56          1           0        7.654426   -0.907156    1.294134
     57          1           0        8.030614   -2.205904    0.149079
     58          1           0       -1.017407   -2.160354    1.450885
     59          1           0       -0.630248   -2.631360    3.282317
     60          1           0       -1.680101   -0.348825   -0.280767
     61          1           0       -2.048946    4.771832   -1.466346
     62          1           0       -0.310036    4.625009   -1.001447
     63          1           0        7.727497   -0.681151   -3.250897
     64          1           0       -1.444659    4.524296    1.392420
     65          1           0       -2.674256    5.176543    0.475656
     66          1           0       -3.986924    4.321716   -2.049874
     67          1           0       -5.230817    3.304848   -1.423026
     68          1           0       -4.142149    2.882549   -2.858601
     69          1           0       -4.828380    0.317873   -2.115384
     70          1           0        9.379886   -1.001200   -0.400767
     71          1           0        9.950103   -0.825425   -2.253767
     72          1           0       -3.705932   -2.880539    4.012564
     73          1           0       -5.998527   -0.761679   -2.818065
     74          1           0       -4.975910   -5.323580   -2.235982
     75          1           0       -3.872847   -5.525912   -0.837925
     76          1           0       -5.720652   -5.203034   -0.203770
     77          1           0       -0.932832    8.180213    1.383125
     78          1           0       -8.047476   -2.595255   -3.198484
     79          1           0       -7.002298   -4.115980   -2.371615
 ---------------------------------------------------------------------

 SCF Done:  E(RB3LYP) =  -1947.79871923     A.U. after   19 cycles

 Excitation energies and oscillator strengths:

 Excited State   1:      Singlet-A      2.0054 eV  618.26 nm  f=0.3999  <S**2>=0.000
     153 ->156         0.13953
     154 ->156         0.12851
     155 ->156         0.68042
     155 <-156        -0.10673
 This state for optimization and/or second-order correction.
 Total Energy, E(TD-HF/TD-KS) =  -1947.72502254
 Copying the excited state density for this state as the 1-particle RhoCI density.

 The electronic state is 1-A.
 Alpha  occ. eigenvalues --  -19.18172 -19.17488 -19.14724 -19.11503 -19.11171
 Alpha  occ. eigenvalues --  -19.10082 -14.39967 -14.37745 -14.36214 -14.28459
 Alpha  occ. eigenvalues --  -10.33332 -10.30870 -10.30114 -10.26084 -10.25579
 Alpha  occ. eigenvalues --  -10.25088 -10.24887 -10.23872 -10.23658 -10.23494
 Alpha  occ. eigenvalues --  -10.23401 -10.22794 -10.22404 -10.22258 -10.21954
 Alpha  occ. eigenvalues --  -10.21700 -10.21339 -10.21311 -10.21234 -10.21187
 Alpha  occ. eigenvalues --  -10.21106 -10.20936 -10.20651 -10.20514 -10.20297
 Alpha  occ. eigenvalues --  -10.20165 -10.19884 -10.19784 -10.19650 -10.19473
 Alpha  occ. eigenvalues --  -10.19363 -10.19223 -10.18907  -1.10268  -1.06986
 Alpha  occ. eigenvalues --   -1.01586  -1.01363  -1.00746  -0.98196  -0.98023
 Alpha  occ. eigenvalues --   -0.97515  -0.95064  -0.91947  -0.83552  -0.83322
 Alpha  occ. eigenvalues --   -0.82288  -0.81470  -0.80287  -0.79524  -0.78728
 Alpha  occ. eigenvalues --   -0.77815  -0.76439  -0.75765  -0.73305  -0.72345
 Alpha  occ. eigenvalues --   -0.71720  -0.71245  -0.69569  -0.68598  -0.68374
 Alpha  occ. eigenvalues --   -0.66921  -0.66122  -0.64379  -0.62182  -0.60623
 Alpha  occ. eigenvalues --   -0.59501  -0.58862  -0.58225  -0.57415  -0.57052
 Alpha  occ. eigenvalues --   -0.56199  -0.55565  -0.55116  -0.53698  -0.52949
 Alpha  occ. eigenvalues --   -0.52478  -0.52047  -0.51301  -0.50424  -0.49939
 Alpha  occ. eigenvalues --   -0.49653  -0.49516  -0.49106  -0.47823  -0.47423
 Alpha  occ. eigenvalues --   -0.47287  -0.47171  -0.46819  -0.46571  -0.46253
 Alpha  occ. eigenvalues --   -0.45477  -0.44592  -0.44416  -0.44330  -0.43700
 Alpha  occ. eigenvalues --   -0.43434  -0.43107  -0.42768  -0.42716  -0.42311
 Alpha  occ. eigenvalues --   -0.42120  -0.41403  -0.41266  -0.41151  -0.40917
 Alpha  occ. eigenvalues --   -0.40694  -0.40598  -0.40291  -0.40232  -0.39904
 Alpha  occ. eigenvalues --   -0.39391  -0.38914  -0.38610  -0.38364  -0.38083
 Alpha  occ. eigenvalues --   -0.37986  -0.37931  -0.37518  -0.37015  -0.36905
 Alpha  occ. eigenvalues --   -0.36420  -0.35353  -0.34774  -0.34040  -0.33587
 Alpha  occ. eigenvalues --   -0.33395  -0.33368  -0.32869  -0.32464  -0.31712
 Alpha  occ. eigenvalues --   -0.30789  -0.30656  -0.30200  -0.27989  -0.27271
 Alpha  occ. eigenvalues --   -0.26696  -0.26566  -0.26262  -0.26230  -0.25643
 Alpha  occ. eigenvalues --   -0.25430  -0.23936  -0.23528  -0.22046  -0.19387
 Alpha virt. eigenvalues --   -0.11355  -0.06494  -0.05075  -0.01819  -0.01334
 Alpha virt. eigenvalues --   -0.00128   0.00700   0.00945   0.02473   0.02521
 Alpha virt. eigenvalues --    0.02920   0.03728   0.04157   0.04297   0.04681

 Mulliken charges:
               1
     1  O   -0.252555
     2  O   -0.205056
     3  O   -0.258807
     4  O   -0.229581
     5  O   -0.192526
     6  O   -0.283638
     7  N   -0.117698
     8  N   -0.183512
     9  N   -0.028672
    10  N   -0.317883
    11  C    0.089046
    12  C    0.177198
    13  C   -0.152072
    14  C   -0.154522
    15  C   -0.059282
    16  C    0.024840
    17  C   -0.235444
    18  C    0.003518
    19  C   -0.103237
    20  C   -0.105609
    21  C    0.174086
    22  C    0.209112
    23  C   -0.139730
    24  C    0.121495
    25  C    0.134466
    26  C   -0.070386
    27  C   -0.055981
    28  C    0.122313
    29  C    0.083751
    30  C    0.048175
    31  C    0.014614
    32  C    0.028355
    33  C   -0.134064
    34  C    0.175055
    35  C    0.090112
    36  C   -0.068745
    37  C    0.165339
    38  C    0.034471
    39  C   -0.174813
    40  C    0.173749
    41  C   -0.069934
    42  C    0.009875
    43  C   -0.085916
    44  H    0.026597
    45  H    0.003117
    46  H    0.006182
    47  H    0.162030
    48  H    0.131497
    49  H    0.018635
    50  H    0.049495
    51  H   -0.005679
    52  H   -0.003656
    53  H    0.015316
    54  H    0.065112
    55  H   -0.006950
    56  H    0.039726
    57  H    0.055862
    58  H    0.085880
    59  H    0.052556
    60  H    0.174291
    61  H    0.007661
    62  H    0.020238
    63  H    0.027978
    64  H    0.039475
    65  H    0.026691
    66  H    0.017501
    67  H    0.046526
    68  H    0.016193
    69  H   -0.019183
    70  H    0.039137
    71  H    0.009993
    72  H    0.192719
    73  H    0.054337
    74  H    0.039378
    75  H    0.040660
    76  H    0.067543
    77  H    0.180715
    78  H    0.047122
    79  H    0.075398
 Sum of Mulliken charges =   0.00000

 Dipole moment (field-independent basis, Debye):
    X=              1.9260    Y=              3.2135    Z=              2.9852  Tot=              4.7904
 Quadrupole moment (field-independent basis, Debye-Ang):
   XX=           -223.0224   YY=           -252.0174   ZZ=           -263.0015
   XY=            -10.9201   XZ=             33.4410   YZ=             -1.2828

 Normal termination of Gaussian 09 at Sun Jul  7 14:57:56 2019.
