 Gaussian 09, Revision D.01,
 Gaussian 09:  ES64L-G09RevD.01 24-Apr-2013

 --------------------------
 # td=(NStates=1) B3LYP/SVP
 --------------------------

 --
 TD
 --
 Symbolic Z-matrix:
 Charge =  0 Multiplicity = 1

                         Standard orientation:
 ---------------------------------------------------------------------
 Center     Atomic      Atomic             Coordinates (Angstroms)
 Number     Number       Type             X           Y           Z
 ---------------------------------------------------------------------
      1          8           0        5.451784   -0.048810   -3.343461
      2          8           0       -2.787373   -3.126038    3.314567
      3          8           0       -3.322134   -0.907840    3.308864
      4          8           0       -1.621934    7.145669    1.583937
      5          8           0       -0.411997    6.881173   -0.294371
      6          8           0       -1.996330   -3.994003    0.186203
      7          7           0        2.279825    0.807600    0.516819
      8          7           0        4.414783   -0.571668   -1.362665
      9          7           0       -1.874591    0.642809   -0.391264
     10          7           0       -2.729023   -1.872305   -0.484631
     11          6           0        4.840290   -1.150995   -0.060476
     12          6           0        4.338996   -0.332190    1.123286
     13          6           0        2.927426   -0.128006    1.300713
     14          6           0        2.057009   -0.670353    2.144070
     15          6           0        0.731797   -0.081822    1.835853
     16          6           0        1.040632    0.859363    0.840305
     17          6           0        6.339063   -1.249710   -0.190132
     18          6           0       -0.446759   -0.309493    2.555269
     19          6           0        6.658607   -0.835222   -1.422598
     20          6           0        0.161920    1.873500    0.118449
     21          6           0       -1.135588    1.823279   -0.314070
     22          6           0        5.542742   -0.370358   -2.166445
     23          6           0       -1.918033    2.958070   -0.829809
     24          6           0        2.197948   -1.712998    3.081307
     25          6           0        7.197132   -1.888467    0.919283
     26          6           0       -3.117897    2.381814   -1.350529
     27          6           0       -1.097178   -1.738565    2.546106
     28          6           0       -3.097098    0.966064   -1.058884
     29          6           0       -1.541511    4.351290   -0.890248
     30          6           0        8.008782   -0.807529   -2.068505
     31          6           0       -1.885185    5.121427    0.495907
     32          6           0       -4.351730    3.092477   -1.910667
     33          6           0       -3.996276    0.005595   -1.379511
     34          6           0       -2.469983   -1.829266    3.211696
     35          6           0       -3.820696   -1.355151   -1.095670
     36          6           0        9.195133   -0.810072   -1.430712
     37          6           0       -1.216957    6.509463    0.498189
     38          6           0       -4.737562   -2.504572   -1.524026
     39          6           0       -4.113114   -3.668059   -1.114186
     40          6           0       -2.717558   -3.236953   -0.493346
     41          6           0       -5.932242   -2.185109   -2.272209
     42          6           0       -4.399016   -5.108925   -1.255251
     43          6           0       -6.811704   -3.234593   -2.691966
     44          1           0        4.554963   -2.237797    0.008535
     45          1           0        4.814497    0.686994    1.001199
     46          1           0        4.700579   -0.892862    2.022033
     47          1           0        2.799208    1.448599   -0.032941
     48          1           0        3.622871   -0.699766   -1.903508
     49          1           0       -0.450998   -0.157872    3.707340
     50          1           0       -1.228149    0.309974    2.012618
     51          1           0        0.660982    2.836994   -0.156248
     52          1           0        3.298997   -2.000210    3.114392
     53          1           0        1.648073   -1.388843    3.952303
     54          1           0        1.622467   -2.669317    2.718493
     55          1           0        6.567852   -2.527137    1.574547
     56          1           0        7.947755   -1.145705    1.310732
     57          1           0        7.913816   -2.690997    0.520427
     58          1           0       -1.226821   -2.229360    1.713957
     59          1           0       -0.192286   -2.290721    3.104815
     60          1           0       -1.702941   -0.465774   -0.193083
     61          1           0       -2.009788    4.835312   -1.797607
     62          1           0       -0.254527    4.403138   -1.128228
     63          1           0        7.877878   -0.377819   -3.156040
     64          1           0       -1.391865    4.551804    1.398033
     65          1           0       -3.007109    5.113395    0.646904
     66          1           0       -4.189557    4.044178   -2.012906
     67          1           0       -5.367587    3.174915   -1.155822
     68          1           0       -4.895124    2.714789   -2.934184
     69          1           0       -4.963046    0.346259   -1.836236
     70          1           0        9.529519   -0.776387   -0.382190
     71          1           0       10.179493   -0.905646   -1.897766
     72          1           0       -3.597052   -3.126105    3.534171
     73          1           0       -6.153118   -1.182514   -2.400844
     74          1           0       -4.683690   -5.246839   -2.365834
     75          1           0       -3.702984   -5.773496   -0.801837
     76          1           0       -5.337943   -5.407338   -0.921529
     77          1           0       -1.069433    7.945626    1.742524
     78          1           0       -7.571032   -2.996441   -3.366480
     79          1           0       -6.465331   -4.272897   -2.540610
 ---------------------------------------------------------------------

 SCF Done:  E(RB3LYP) =  -1947.84388723     A.U. after   16 cycles

 Excitation energies and oscillator strengths:

 Excited State   1:      Singlet-A      2.0962 eV  591.48 nm  f=0.3376  <S**2>=0.000
     153 ->156        -0.11580
     154 ->156         0.21195
     155 ->156         0.66495
 This state for optimization and/or second-order correction.
 Total Energy, E(TD-HF/TD-KS) =  -1947.76685457
 Copying the excited state density for this state as the 1-particle RhoCI density.

 The electronic state is 1-A.
 Alpha  occ. eigenvalues --  -19.19802 -19.16391 -19.13864 -19.11293 -19.10454
 Alpha  occ. eigenvalues --  -19.10053 -14.37405 -14.35815 -14.34486 -14.29547
 Alpha  occ. eigenvalues --  -10.33095 -10.31014 -10.27847 -10.26893 -10.25396
 Alpha  occ. eigenvalues --  -10.24541 -10.24504 -10.23889 -10.23369 -10.23236
 Alpha  occ. eigenvalues --  -10.22959 -10.22645 -10.22520 -10.22460 -10.22239
 Alpha  occ. eigenvalues --  -10.22032 -10.21957 -10.21628 -10.21171 -10.21001
 Alpha  occ. eigenvalues --  -10.20404 -10.20111 -10.20108 -10.19905 -10.19778
 Alpha  occ. eigenvalues --  -10.19666 -10.19588 -10.19226 -10.18821 -10.18427
 Alpha  occ. eigenvalues --  -10.18066 -10.17957 -10.17488  -1.11780  -1.10723
 Alpha  occ. eigenvalues --   -1.03024  -1.02579  -1.00891  -0.99929  -0.97903
 Alpha  occ. eigenvalues --   -0.95952  -0.93763  -0.91388  -0.82818  -0.82444
 Alpha  occ. eigenvalues --   -0.82202  -0.81634  -0.80248  -0.79712  -0.77363
 Alpha  occ. eigenvalues --   -0.76764  -0.76106  -0.75365  -0.74259  -0.72922
 Alpha  occ. eigenvalues --   -0.72354  -0.71768  -0.70066  -0.69200  -0.68727
 Alpha  occ. eigenvalues --   -0.68485  -0.65984  -0.64175  -0.61427  -0.61107
 Alpha  occ. eigenvalues --   -0.60783  -0.60231  -0.59361  -0.58575  -0.56119
 Alpha  occ. eigenvalues --   -0.55961  -0.55239  -0.54594  -0.53743  -0.53151
 Alpha  occ. eigenvalues --   -0.52553  -0.52354  -0.51513  -0.50687  -0.49933
 Alpha  occ. eigenvalues --   -0.49314  -0.48781  -0.48574  -0.47851  -0.47441
 Alpha  occ. eigenvalues --   -0.47408  -0.46975  -0.46625  -0.46205  -0.45519
 Alpha  occ. eigenvalues --   -0.45424  -0.44386  -0.44261  -0.44018  -0.43424
 Alpha  occ. eigenvalues --   -0.43301  -0.42853  -0.42819  -0.42516  -0.42183
 Alpha  occ. eigenvalues --   -0.42101  -0.41951  -0.41715  -0.41570  -0.41334
 Alpha  occ. eigenvalues --   -0.40815  -0.40733  -0.40315  -0.40189  -0.39708
 Alpha  occ. eigenvalues --   -0.39369  -0.39024  -0.38828  -0.38735  -0.38468
 Alpha  occ. eigenvalues --   -0.38379  -0.38209  -0.37710  -0.37368  -0.37327
 Alpha  occ. eigenvalues --   -0.36894  -0.36213  -0.36080  -0.35402  -0.34866
 Alpha  occ. eigenvalues --   -0.34101  -0.34079  -0.33823  -0.30981  -0.30696
 Alpha  occ. eigenvalues --   -0.30646  -0.29829  -0.29552  -0.27935  -0.27065
 Alpha  occ. eigenvalues --   -0.26740  -0.26478  -0.25749  -0.25274  -0.24568
 Alpha  occ. eigenvalues --   -0.23969  -0.23865  -0.22981  -0.21393  -0.19495
 Alpha virt. eigenvalues --   -0.11063  -0.06601  -0.06219  -0.01918  -0.00207
 Alpha virt. eigenvalues --   -0.00181   0.00114   0.01602   0.02162   0.02753
 Alpha virt. eigenvalues --    0.03746   0.03965   0.04049   0.04571   0.05532

 Mulliken charges:
               1
     1  O   -0.232548
     2  O   -0.058181
     3  O   -0.278363
     4  O   -0.166656
     5  O   -0.195840
     6  O   -0.241630
     7  N    0.038986
     8  N   -0.198504
     9  N   -0.194914
    10  N   -0.288654
    11  C    0.077789
    12  C    0.187089
    13  C   -0.098138
    14  C   -0.116943
    15  C   -0.043352
    16  C    0.030222
    17  C   -0.164070
    18  C   -0.004155
    19  C   -0.064077
    20  C   -0.101087
    21  C    0.133962
    22  C    0.127956
    23  C   -0.020540
    24  C    0.079163
    25  C    0.065097
    26  C   -0.087460
    27  C    0.006709
    28  C    0.149667
    29  C   -0.049737
    30  C    0.030453
    31  C   -0.054264
    32  C    0.057648
    33  C   -0.133295
    34  C    0.153291
    35  C    0.105378
    36  C   -0.072904
    37  C    0.135445
    38  C    0.063892
    39  C   -0.234620
    40  C    0.185906
    41  C   -0.019401
    42  C    0.142011
    43  C    0.012325
    44  H    0.027102
    45  H   -0.008894
    46  H   -0.008613
    47  H    0.099751
    48  H    0.106898
    49  H    0.024258
    50  H    0.017644
    51  H   -0.014705
    52  H   -0.000555
    53  H    0.020939
    54  H    0.062989
    55  H    0.028961
    56  H    0.058448
    57  H    0.037408
    58  H   -0.014682
    59  H    0.017527
    60  H    0.214296
    61  H    0.045409
    62  H    0.062595
    63  H    0.056231
    64  H    0.072078
    65  H    0.059026
    66  H   -0.047024
    67  H    0.042873
    68  H    0.052120
    69  H   -0.008403
    70  H    0.009564
    71  H    0.021048
    72  H    0.089119
    73  H   -0.042916
    74  H    0.028076
    75  H    0.024217
    76  H   -0.004954
    77  H    0.188349
    78  H    0.009728
    79  H    0.010437
 Sum of Mulliken charges =   0.00000

 Dipole moment (field-independent basis, Debye):
    X=              1.2921    Y=              3.1768    Z=              2.7023  Tot=              4.3662
 Quadrupole moment (field-independent basis, Debye-Ang):
   XX=           -222.2401   YY=           -235.6282   ZZ=           -265.4799
   XY=            -15.2411   XZ=             38.7855   YZ=              6.7066

 Normal termination of Gaussian 09 at Tue Jul  9 05:15:04 2019.
