 Gaussian 09, Revision D.01,
 Gaussian 09:  ES64L-G09RevD.01 24-Apr-2013

 --------------------------
 # td=(NStates=1) B3LYP/SVP
 --------------------------

 --
 TD
 --
 Symbolic Z-matrix:
 Charge =  0 Multiplicity = 1

                         Standard orientation:
 ---------------------------------------------------------------------
 Center     Atomic      Atomic             Coordinates (Angstroms)
 Number     Number       Type             X           Y           Z
 ---------------------------------------------------------------------
      1          8           0        5.416431   -0.107489   -3.376131
      2          8           0       -2.976943   -2.965149    3.510811
      3          8           0       -3.253864   -0.749448    3.210823
      4          8           0       -2.138080    7.158049    1.313608
      5          8           0       -0.927533    6.949978   -0.612088
      6          8           0       -1.640652   -4.036275   -0.126708
      7          7           0        2.421060    0.949468    0.623999
      8          7           0        4.481099   -0.449270   -1.275781
      9          7           0       -1.905692    0.592952   -0.319247
     10          7           0       -2.680269   -1.924338   -0.492414
     11          6           0        4.913049   -1.002249    0.020291
     12          6           0        4.517565   -0.126152    1.325176
     13          6           0        2.943957    0.022458    1.521618
     14          6           0        2.074869   -0.511607    2.285366
     15          6           0        0.743688   -0.048237    1.902514
     16          6           0        0.982181    0.898681    0.828533
     17          6           0        6.411260   -1.089941   -0.167996
     18          6           0       -0.638308   -0.190580    2.491878
     19          6           0        6.717278   -0.673707   -1.396273
     20          6           0        0.192578    1.852495    0.042123
     21          6           0       -1.170995    1.812919   -0.349922
     22          6           0        5.570098   -0.366385   -2.179420
     23          6           0       -1.939556    2.778435   -0.944306
     24          6           0        2.235567   -1.662034    3.353371
     25          6           0        7.260896   -1.602778    1.000703
     26          6           0       -3.224545    2.242378   -1.253164
     27          6           0       -1.053905   -1.564802    2.646032
     28          6           0       -3.121408    0.793042   -0.920847
     29          6           0       -1.592056    4.237398   -0.937234
     30          6           0        8.039034   -0.609104   -2.069839
     31          6           0       -2.192164    4.973074    0.272336
     32          6           0       -4.515176    2.953110   -1.880987
     33          6           0       -4.053009   -0.169926   -1.174499
     34          6           0       -2.501942   -1.719981    3.150144
     35          6           0       -3.714559   -1.573137   -1.015427
     36          6           0        9.316803   -0.631990   -1.616855
     37          6           0       -1.772024    6.469008    0.244253
     38          6           0       -4.533820   -2.795116   -1.601692
     39          6           0       -3.796825   -3.880204   -1.242835
     40          6           0       -2.415130   -3.330115   -0.582201
     41          6           0       -5.821734   -2.609091   -2.072431
     42          6           0       -4.148406   -5.308577   -1.280698
     43          6           0       -6.468980   -3.493278   -2.916682
     44          1           0        4.415651   -2.014112    0.237004
     45          1           0        4.923391    0.875597    1.217950
     46          1           0        4.795448   -0.595132    2.252063
     47          1           0        2.914755    1.340576   -0.159261
     48          1           0        3.632587   -0.584478   -1.681096
     49          1           0       -0.495008   -0.158201    3.670967
     50          1           0       -1.581375    0.535444    2.166993
     51          1           0        0.606944    2.666709   -0.234892
     52          1           0        3.351006   -1.719413    3.431866
     53          1           0        1.827047   -1.033845    4.539085
     54          1           0        1.859787   -2.597078    3.104300
     55          1           0        6.649936   -2.401646    1.535360
     56          1           0        7.513160   -0.829267    1.843266
     57          1           0        8.154714   -2.209523    0.586963
     58          1           0       -1.021393   -2.096798    1.844280
     59          1           0       -0.525324   -2.230835    3.397001
     60          1           0       -1.476474   -0.242912   -0.036045
     61          1           0       -1.862117    4.702054   -1.931687
     62          1           0       -0.542853    4.481338   -1.002652
     63          1           0        8.064669   -0.442316   -3.056449
     64          1           0       -1.781000    4.351071    1.043459
     65          1           0       -3.334792    4.846173    0.479535
     66          1           0       -3.962334    3.957113   -2.367725
     67          1           0       -5.273789    2.917276   -0.970753
     68          1           0       -4.741205    2.467106   -2.787535
     69          1           0       -4.936996   -0.092597   -1.792922
     70          1           0        9.485436   -0.729035   -0.563379
     71          1           0       10.232256   -0.326193   -2.203006
     72          1           0       -3.828548   -3.032112    4.009711
     73          1           0       -6.468560   -1.723022   -1.575802
     74          1           0       -3.974789   -5.580969   -2.405146
     75          1           0       -3.430648   -5.969782   -0.733273
     76          1           0       -5.165493   -5.676183   -0.989198
     77          1           0       -1.920889    8.361075    1.387287
     78          1           0       -7.663624   -3.355861   -3.225482
     79          1           0       -5.953509   -4.483271   -3.035382
 ---------------------------------------------------------------------

 SCF Done:  E(RB3LYP) =  -1947.73097152     A.U. after   16 cycles

 Excitation energies and oscillator strengths:

 Excited State   1:      Singlet-A      2.2326 eV  555.33 nm  f=0.4845  <S**2>=0.000
     155 ->156         0.69526
     155 ->158         0.12112
     155 <-156        -0.11101
 This state for optimization and/or second-order correction.
 Total Energy, E(TD-HF/TD-KS) =  -1947.64892419
 Copying the excited state density for this state as the 1-particle RhoCI density.

 The electronic state is 1-A.
 Alpha  occ. eigenvalues --  -19.20273 -19.16767 -19.13111 -19.12007 -19.11156
 Alpha  occ. eigenvalues --  -19.10783 -14.36929 -14.35373 -14.34987 -14.28569
 Alpha  occ. eigenvalues --  -10.33219 -10.31322 -10.28845 -10.28269 -10.26263
 Alpha  occ. eigenvalues --  -10.24062 -10.23559 -10.23288 -10.23210 -10.23121
 Alpha  occ. eigenvalues --  -10.22551 -10.22427 -10.22361 -10.22349 -10.22326
 Alpha  occ. eigenvalues --  -10.22167 -10.21417 -10.20959 -10.20661 -10.20483
 Alpha  occ. eigenvalues --  -10.20450 -10.20395 -10.20383 -10.20358 -10.20194
 Alpha  occ. eigenvalues --  -10.19839 -10.19566 -10.19466 -10.19219 -10.19175
 Alpha  occ. eigenvalues --  -10.18728 -10.18698 -10.17661  -1.07266  -1.07182
 Alpha  occ. eigenvalues --   -1.06558  -1.02388  -0.97990  -0.97132  -0.96428
 Alpha  occ. eigenvalues --   -0.96285  -0.94143  -0.94030  -0.82913  -0.82427
 Alpha  occ. eigenvalues --   -0.81928  -0.80446  -0.80305  -0.78747  -0.78059
 Alpha  occ. eigenvalues --   -0.76767  -0.76246  -0.74956  -0.73790  -0.72534
 Alpha  occ. eigenvalues --   -0.71403  -0.70254  -0.68513  -0.67946  -0.67349
 Alpha  occ. eigenvalues --   -0.66837  -0.65600  -0.63569  -0.61100  -0.60735
 Alpha  occ. eigenvalues --   -0.59680  -0.59432  -0.58866  -0.58144  -0.57008
 Alpha  occ. eigenvalues --   -0.55950  -0.55362  -0.55050  -0.53797  -0.52874
 Alpha  occ. eigenvalues --   -0.51767  -0.51530  -0.51238  -0.50404  -0.49329
 Alpha  occ. eigenvalues --   -0.49054  -0.48216  -0.47838  -0.47690  -0.46944
 Alpha  occ. eigenvalues --   -0.46712  -0.46677  -0.45724  -0.45507  -0.45203
 Alpha  occ. eigenvalues --   -0.45136  -0.44982  -0.44420  -0.44092  -0.43958
 Alpha  occ. eigenvalues --   -0.43758  -0.43247  -0.42516  -0.42306  -0.42148
 Alpha  occ. eigenvalues --   -0.41762  -0.41576  -0.41459  -0.41241  -0.40477
 Alpha  occ. eigenvalues --   -0.40242  -0.40191  -0.40096  -0.39888  -0.39626
 Alpha  occ. eigenvalues --   -0.39179  -0.38995  -0.38712  -0.38172  -0.37942
 Alpha  occ. eigenvalues --   -0.37740  -0.37048  -0.36761  -0.36689  -0.36521
 Alpha  occ. eigenvalues --   -0.36271  -0.35552  -0.35061  -0.34686  -0.34357
 Alpha  occ. eigenvalues --   -0.34092  -0.33643  -0.32199  -0.31860  -0.30793
 Alpha  occ. eigenvalues --   -0.30669  -0.30504  -0.29216  -0.28210  -0.27300
 Alpha  occ. eigenvalues --   -0.26954  -0.26371  -0.26315  -0.25385  -0.25058
 Alpha  occ. eigenvalues --   -0.24913  -0.23757  -0.22810  -0.21834  -0.18339
 Alpha virt. eigenvalues --   -0.09721  -0.06925  -0.06084  -0.04360  -0.01925
 Alpha virt. eigenvalues --   -0.00539   0.00230   0.01108   0.01476   0.01913
 Alpha virt. eigenvalues --    0.03401   0.03493   0.04393   0.04788   0.05273

 Mulliken charges:
               1
     1  O   -0.223771
     2  O   -0.232148
     3  O   -0.246036
     4  O   -0.269945
     5  O   -0.308012
     6  O   -0.102246
     7  N   -0.143686
     8  N   -0.189905
     9  N   -0.074024
    10  N   -0.197278
    11  C    0.071521
    12  C    0.197837
    13  C   -0.070611
    14  C   -0.127613
    15  C   -0.059831
    16  C    0.092017
    17  C   -0.138320
    18  C   -0.009721
    19  C    0.005939
    20  C    0.034020
    21  C    0.046603
    22  C    0.145512
    23  C   -0.080990
    24  C    0.037720
    25  C    0.030024
    26  C   -0.173009
    27  C    0.082962
    28  C    0.191609
    29  C    0.070889
    30  C    0.018780
    31  C   -0.006347
    32  C    0.072173
    33  C   -0.109024
    34  C    0.130172
    35  C   -0.060251
    36  C   -0.042948
    37  C    0.215492
    38  C    0.079613
    39  C   -0.225432
    40  C    0.174914
    41  C   -0.107161
    42  C    0.033620
    43  C   -0.086228
    44  H    0.035540
    45  H   -0.000903
    46  H   -0.010314
    47  H    0.116112
    48  H    0.096341
    49  H    0.011257
    50  H    0.104505
    51  H   -0.114830
    52  H    0.000182
    53  H    0.047419
    54  H    0.048328
    55  H    0.023538
    56  H    0.069415
    57  H    0.056375
    58  H   -0.037968
    59  H    0.030810
    60  H    0.119891
    61  H    0.014808
    62  H    0.008211
    63  H   -0.037116
    64  H    0.037725
    65  H    0.051379
    66  H    0.042429
    67  H    0.082116
    68  H    0.026558
    69  H   -0.031400
    70  H   -0.003944
    71  H    0.044574
    72  H    0.202405
    73  H    0.042348
    74  H    0.041820
    75  H    0.020568
    76  H    0.039465
    77  H    0.291833
    78  H    0.052886
    79  H    0.030756
 Sum of Mulliken charges =   0.00000

 Dipole moment (field-independent basis, Debye):
    X=              0.7264    Y=              1.0639    Z=              4.8198  Tot=              4.9890
 Quadrupole moment (field-independent basis, Debye-Ang):
   XX=           -221.8253   YY=           -235.3803   ZZ=           -262.3121
   XY=            -13.2071   XZ=             23.7987   YZ=              4.1568

 Normal termination of Gaussian 09 at Wed Jul 10 16:00:49 2019.
