 Gaussian 09, Revision D.01,
 Gaussian 09:  ES64L-G09RevD.01 24-Apr-2013

 --------------------------
 # td=(NStates=1) B3LYP/SVP
 --------------------------

 --
 TD
 --
 Symbolic Z-matrix:
 Charge =  0 Multiplicity = 1

                         Standard orientation:
 ---------------------------------------------------------------------
 Center     Atomic      Atomic             Coordinates (Angstroms)
 Number     Number       Type             X           Y           Z
 ---------------------------------------------------------------------
      1          8           0        5.382112   -0.135648   -3.287159
      2          8           0       -2.916226   -2.978362    3.314889
      3          8           0       -3.303696   -0.814130    3.381092
      4          8           0       -1.810941    7.242389    1.313419
      5          8           0       -0.643975    6.920227   -0.673639
      6          8           0       -1.749478   -4.007028   -0.040030
      7          7           0        2.335130    0.995855    0.544814
      8          7           0        4.430601   -0.542743   -1.220667
      9          7           0       -1.906226    0.660451   -0.276525
     10          7           0       -2.524808   -1.935476   -0.539912
     11          6           0        4.806030   -1.150492    0.050220
     12          6           0        4.416036   -0.244579    1.346066
     13          6           0        2.916885    0.092737    1.337130
     14          6           0        1.955308   -0.556692    2.084092
     15          6           0        0.690677   -0.017303    1.819705
     16          6           0        0.941661    0.935137    0.744046
     17          6           0        6.389075   -1.268274   -0.186129
     18          6           0       -0.542253   -0.247424    2.662348
     19          6           0        6.754160   -0.810968   -1.376605
     20          6           0        0.147432    1.829656    0.110601
     21          6           0       -1.189165    1.783142   -0.275953
     22          6           0        5.512278   -0.336227   -2.112271
     23          6           0       -2.028357    2.887627   -0.839227
     24          6           0        2.235018   -1.613666    3.273697
     25          6           0        7.172062   -1.966621    0.871567
     26          6           0       -3.243152    2.276772   -1.218344
     27          6           0       -1.100857   -1.658637    2.664355
     28          6           0       -3.093755    0.896001   -0.932697
     29          6           0       -1.672255    4.275806   -0.992359
     30          6           0        7.993851   -0.782490   -2.044274
     31          6           0       -1.753166    5.114587    0.374834
     32          6           0       -4.519334    2.944550   -1.812250
     33          6           0       -4.026442   -0.161415   -1.212993
     34          6           0       -2.495923   -1.682799    3.189922
     35          6           0       -3.739188   -1.506064   -1.031833
     36          6           0        9.256483   -0.526965   -1.528478
     37          6           0       -1.381916    6.523207    0.158944
     38          6           0       -4.611861   -2.660509   -1.400083
     39          6           0       -3.910325   -3.827212   -1.217073
     40          6           0       -2.622387   -3.348345   -0.617627
     41          6           0       -5.951105   -2.486984   -2.008494
     42          6           0       -4.100285   -5.244086   -1.557031
     43          6           0       -6.693047   -3.402092   -2.614655
     44          1           0        4.251103   -2.079891    0.072467
     45          1           0        5.197300    0.561370    1.346359
     46          1           0        4.985057   -0.636927    2.158048
     47          1           0        2.795138    1.464087   -0.202086
     48          1           0        3.510455   -0.839488   -1.639376
     49          1           0       -0.287919    0.255742    3.590862
     50          1           0       -1.266991    0.347961    2.150635
     51          1           0        0.718185    2.720038   -0.242292
     52          1           0        3.252716   -1.707655    3.619779
     53          1           0        1.645809   -1.445683    4.228346
     54          1           0        2.043997   -2.755846    3.039142
     55          1           0        6.606823   -2.683736    1.480057
     56          1           0        7.809446   -1.127913    1.641711
     57          1           0        7.964892   -2.687464    0.516536
     58          1           0       -1.170156   -2.189354    1.697715
     59          1           0       -0.498377   -2.245893    3.296560
     60          1           0       -1.717226   -0.381349   -0.202861
     61          1           0       -2.169268    4.777043   -1.700174
     62          1           0       -0.527700    4.337423   -1.273617
     63          1           0        8.014924   -0.965378   -3.179752
     64          1           0       -1.078912    4.758938    1.276014
     65          1           0       -2.862486    5.195138    0.783248
     66          1           0       -4.239561    4.061505   -2.002693
     67          1           0       -5.649480    2.952568   -1.268636
     68          1           0       -4.628137    2.618941   -2.671728
     69          1           0       -4.825203    0.058289   -1.863413
     70          1           0        9.460435   -0.138576   -0.517909
     71          1           0       10.192203   -0.637836   -2.203799
     72          1           0       -4.039382   -2.786022    3.385741
     73          1           0       -6.530910   -1.500559   -1.777740
     74          1           0       -3.720754   -5.382794   -2.596537
     75          1           0       -3.582895   -5.700125   -0.855187
     76          1           0       -5.226980   -5.336624   -1.459530
     77          1           0       -1.373090    8.217189    1.354198
     78          1           0       -7.724455   -3.074776   -2.962060
     79          1           0       -6.406953   -4.444789   -2.895483
 ---------------------------------------------------------------------

 SCF Done:  E(RB3LYP) =  -1947.87155693     A.U. after   23 cycles

 Excitation energies and oscillator strengths:

 Excited State   1:      Singlet-A      2.0238 eV  612.64 nm  f=0.4728  <S**2>=0.000
     154 ->156         0.12240
     155 ->156         0.69955
     155 <-156        -0.13935
 This state for optimization and/or second-order correction.
 Total Energy, E(TD-HF/TD-KS) =  -1947.79718534
 Copying the excited state density for this state as the 1-particle RhoCI density.

 The electronic state is 1-A.
 Alpha  occ. eigenvalues --  -19.17978 -19.15844 -19.14308 -19.11447 -19.11119
 Alpha  occ. eigenvalues --  -19.08803 -14.39399 -14.35982 -14.35405 -14.28149
 Alpha  occ. eigenvalues --  -10.32471 -10.29773 -10.29422 -10.25709 -10.25169
 Alpha  occ. eigenvalues --  -10.24597 -10.24148 -10.23704 -10.23538 -10.23062
 Alpha  occ. eigenvalues --  -10.22937 -10.22754 -10.22595 -10.22009 -10.21599
 Alpha  occ. eigenvalues --  -10.21577 -10.21442 -10.21360 -10.21234 -10.21009
 Alpha  occ. eigenvalues --  -10.21004 -10.20849 -10.20680 -10.20460 -10.20327
 Alpha  occ. eigenvalues --  -10.19957 -10.19855 -10.19475 -10.19335 -10.19096
 Alpha  occ. eigenvalues --  -10.18659 -10.18143 -10.17872  -1.08671  -1.06896
 Alpha  occ. eigenvalues --   -1.04202  -1.00191  -1.00136  -0.99352  -0.98677
 Alpha  occ. eigenvalues --   -0.96803  -0.93524  -0.89681  -0.82847  -0.82545
 Alpha  occ. eigenvalues --   -0.82387  -0.81672  -0.79992  -0.78892  -0.77443
 Alpha  occ. eigenvalues --   -0.77171  -0.76699  -0.75679  -0.74679  -0.72307
 Alpha  occ. eigenvalues --   -0.71401  -0.70544  -0.69873  -0.69262  -0.68772
 Alpha  occ. eigenvalues --   -0.67776  -0.66031  -0.63562  -0.61812  -0.60530
 Alpha  occ. eigenvalues --   -0.58866  -0.58513  -0.58149  -0.57281  -0.56699
 Alpha  occ. eigenvalues --   -0.56149  -0.54967  -0.54562  -0.53610  -0.53001
 Alpha  occ. eigenvalues --   -0.52176  -0.50812  -0.50468  -0.50070  -0.49745
 Alpha  occ. eigenvalues --   -0.48930  -0.48361  -0.48013  -0.47835  -0.47164
 Alpha  occ. eigenvalues --   -0.46848  -0.46416  -0.46251  -0.46026  -0.45644
 Alpha  occ. eigenvalues --   -0.45092  -0.44912  -0.44505  -0.44078  -0.43584
 Alpha  occ. eigenvalues --   -0.43298  -0.43004  -0.42860  -0.42413  -0.42313
 Alpha  occ. eigenvalues --   -0.42012  -0.41858  -0.41482  -0.40980  -0.40736
 Alpha  occ. eigenvalues --   -0.40342  -0.40205  -0.40093  -0.39599  -0.39314
 Alpha  occ. eigenvalues --   -0.39110  -0.38999  -0.38770  -0.38639  -0.38401
 Alpha  occ. eigenvalues --   -0.38094  -0.37759  -0.37694  -0.37444  -0.36815
 Alpha  occ. eigenvalues --   -0.36584  -0.36360  -0.35805  -0.35129  -0.34813
 Alpha  occ. eigenvalues --   -0.33843  -0.33407  -0.33051  -0.32985  -0.31682
 Alpha  occ. eigenvalues --   -0.31019  -0.29876  -0.29266  -0.28758  -0.27250
 Alpha  occ. eigenvalues --   -0.27181  -0.26722  -0.26480  -0.25794  -0.25626
 Alpha  occ. eigenvalues --   -0.24948  -0.23972  -0.23030  -0.21892  -0.18081
 Alpha virt. eigenvalues --   -0.10475  -0.06468  -0.06000  -0.01304  -0.00974
 Alpha virt. eigenvalues --   -0.00022   0.00953   0.01771   0.02231   0.02722
 Alpha virt. eigenvalues --    0.03547   0.03851   0.03958   0.04096   0.04596

 Mulliken charges:
               1
     1  O   -0.189185
     2  O   -0.278447
     3  O   -0.233072
     4  O   -0.304240
     5  O   -0.181399
     6  O   -0.232843
     7  N   -0.021985
     8  N   -0.252864
     9  N   -0.051561
    10  N   -0.326982
    11  C    0.066648
    12  C    0.157943
    13  C   -0.020059
    14  C   -0.100859
    15  C   -0.111185
    16  C    0.087507
    17  C   -0.147566
    18  C    0.166074
    19  C    0.021257
    20  C   -0.147215
    21  C    0.090392
    22  C    0.157731
    23  C   -0.050238
    24  C    0.028204
    25  C    0.000647
    26  C   -0.127603
    27  C    0.045745
    28  C    0.055687
    29  C    0.122012
    30  C   -0.072161
    31  C   -0.081952
    32  C    0.146726
    33  C   -0.082286
    34  C    0.130048
    35  C    0.096578
    36  C   -0.069168
    37  C    0.163119
    38  C    0.052726
    39  C   -0.239920
    40  C    0.138023
    41  C   -0.040484
    42  C    0.171108
    43  C   -0.071479
    44  H    0.021751
    45  H   -0.015829
    46  H   -0.012244
    47  H    0.113666
    48  H    0.145891
    49  H    0.021441
    50  H   -0.013999
    51  H   -0.013857
    52  H   -0.006946
    53  H    0.031384
    54  H    0.041241
    55  H    0.025577
    56  H    0.057352
    57  H    0.040064
    58  H    0.087211
    59  H    0.002082
    60  H    0.162912
    61  H   -0.028520
    62  H    0.033726
    63  H    0.045415
    64  H    0.080200
    65  H    0.059853
    66  H    0.005619
    67  H    0.062421
    68  H   -0.045248
    69  H   -0.041737
    70  H    0.025878
    71  H    0.047346
    72  H    0.231963
    73  H    0.024765
    74  H    0.048069
    75  H   -0.008267
    76  H    0.029789
    77  H    0.220512
    78  H    0.028883
    79  H    0.028211
 Sum of Mulliken charges =   0.00000

 Dipole moment (field-independent basis, Debye):
    X=              2.8733    Y=              2.8342    Z=              1.9715  Tot=              4.4917
 Quadrupole moment (field-independent basis, Debye-Ang):
   XX=           -215.4312   YY=           -245.8844   ZZ=           -262.8200
   XY=            -11.7067   XZ=             34.2090   YZ=              7.9395

 Normal termination of Gaussian 09 at Sun Jul  7 16:35:27 2019.
