 Gaussian 09, Revision D.01,
 Gaussian 09:  ES64L-G09RevD.01 24-Apr-2013

 --------------------------
 # td=(NStates=1) B3LYP/SVP
 --------------------------

 --
 TD
 --
 Symbolic Z-matrix:
 Charge =  0 Multiplicity = 1

                         Standard orientation:
 ---------------------------------------------------------------------
 Center     Atomic      Atomic             Coordinates (Angstroms)
 Number     Number       Type             X           Y           Z
 ---------------------------------------------------------------------
      1          8           0        5.207117   -0.178272   -3.388476
      2          8           0       -2.827982   -3.088590    3.386843
      3          8           0       -3.118284   -0.906071    3.619978
      4          8           0       -1.609635    7.192938    1.496579
      5          8           0       -0.301202    6.839508   -0.340398
      6          8           0       -2.060394   -3.994869    0.084816
      7          7           0        2.399184    0.929555    0.608599
      8          7           0        4.339759   -0.618672   -1.227665
      9          7           0       -1.957433    0.647318   -0.390415
     10          7           0       -2.777782   -1.830892   -0.484132
     11          6           0        4.829127   -1.170305    0.022557
     12          6           0        4.517488   -0.272764    1.164689
     13          6           0        3.037788    0.061489    1.411556
     14          6           0        2.106328   -0.723382    2.172427
     15          6           0        0.824529   -0.167142    1.789645
     16          6           0        0.999474    0.894034    0.772371
     17          6           0        6.252314   -1.330394   -0.293277
     18          6           0       -0.447260   -0.347663    2.473216
     19          6           0        6.607371   -0.909636   -1.454527
     20          6           0        0.186524    1.931131    0.172314
     21          6           0       -1.121493    1.806379   -0.300935
     22          6           0        5.311078   -0.514753   -2.226858
     23          6           0       -1.934321    2.927809   -0.865180
     24          6           0        2.383058   -1.675306    3.151804
     25          6           0        7.195831   -1.857939    0.911427
     26          6           0       -3.084478    2.384538   -1.296774
     27          6           0       -1.130244   -1.769921    2.458613
     28          6           0       -3.134753    0.991480   -0.957384
     29          6           0       -1.489529    4.226392   -0.839369
     30          6           0        7.882108   -0.932317   -2.207762
     31          6           0       -1.744509    5.037099    0.512718
     32          6           0       -4.239871    3.159623   -1.908771
     33          6           0       -4.038078   -0.015126   -1.413376
     34          6           0       -2.414724   -1.789917    3.227036
     35          6           0       -3.813606   -1.399242   -1.097310
     36          6           0        9.209994   -0.858539   -1.768540
     37          6           0       -1.193808    6.465506    0.463720
     38          6           0       -4.663063   -2.494082   -1.486270
     39          6           0       -4.080785   -3.688630   -1.101046
     40          6           0       -2.875062   -3.265684   -0.419253
     41          6           0       -5.912775   -2.233581   -2.278307
     42          6           0       -4.627106   -5.043549   -1.194653
     43          6           0       -6.871273   -3.025888   -2.852559
     44          1           0        4.567220   -2.180165    0.151175
     45          1           0        5.274069    0.638348    0.905933
     46          1           0        4.922431   -0.753259    2.077555
     47          1           0        2.868120    1.699500    0.189549
     48          1           0        3.356109   -0.621526   -1.553001
     49          1           0       -0.356886    0.141820    3.468354
     50          1           0       -1.050002    0.574139    2.170500
     51          1           0        0.663675    2.906007    0.166036
     52          1           0        3.360206   -1.656464    3.592911
     53          1           0        1.788595   -1.523580    4.156245
     54          1           0        2.172542   -2.678538    2.803618
     55          1           0        6.769093   -2.614529    1.403804
     56          1           0        7.595345   -1.176232    1.771264
     57          1           0        8.168625   -2.317898    0.500382
     58          1           0       -1.290264   -1.991253    1.471348
     59          1           0       -0.569722   -2.482906    2.939135
     60          1           0       -1.843705   -0.451428   -0.207411
     61          1           0       -1.986130    4.830251   -1.728577
     62          1           0       -0.403545    4.566356   -1.108196
     63          1           0        7.641159   -1.038389   -3.289415
     64          1           0       -1.318122    4.389332    1.307513
     65          1           0       -2.795301    5.113224    0.542772
     66          1           0       -3.711002    4.089385   -2.317738
     67          1           0       -5.084746    3.298626   -1.196689
     68          1           0       -4.674116    2.584812   -2.894470
     69          1           0       -4.927756    0.356734   -1.964907
     70          1           0        9.467332   -0.820469   -0.747032
     71          1           0       10.096291   -1.024778   -2.497077
     72          1           0       -3.689311   -3.038124    4.119164
     73          1           0       -6.111984   -1.269199   -2.579763
     74          1           0       -5.234582   -5.181361   -2.180795
     75          1           0       -3.814477   -5.939156   -1.073956
     76          1           0       -5.375159   -5.097624   -0.382498
     77          1           0       -1.227586    8.116878    1.276472
     78          1           0       -8.002206   -2.502318   -3.240376
     79          1           0       -6.744902   -4.152853   -2.922933
 ---------------------------------------------------------------------

 SCF Done:  E(RB3LYP) =  -1947.88194779     A.U. after   16 cycles

 Excitation energies and oscillator strengths:

 Excited State   1:      Singlet-A      2.0375 eV  608.52 nm  f=0.4592  <S**2>=0.000
     155 ->156         0.69989
     155 <-156        -0.10676
 This state for optimization and/or second-order correction.
 Total Energy, E(TD-HF/TD-KS) =  -1947.80707182
 Copying the excited state density for this state as the 1-particle RhoCI density.

 The electronic state is 1-A.
 Alpha  occ. eigenvalues --  -19.21120 -19.16386 -19.14035 -19.11285 -19.11049
 Alpha  occ. eigenvalues --  -19.10767 -14.38483 -14.35933 -14.35327 -14.29334
 Alpha  occ. eigenvalues --  -10.33969 -10.30122 -10.28873 -10.26815 -10.24715
 Alpha  occ. eigenvalues --  -10.24198 -10.23866 -10.23486 -10.23399 -10.22889
 Alpha  occ. eigenvalues --  -10.22584 -10.22388 -10.22084 -10.21794 -10.21759
 Alpha  occ. eigenvalues --  -10.21398 -10.21370 -10.20979 -10.20882 -10.20635
 Alpha  occ. eigenvalues --  -10.20635 -10.20467 -10.20446 -10.20354 -10.20038
 Alpha  occ. eigenvalues --  -10.19918 -10.19768 -10.19677 -10.19427 -10.19420
 Alpha  occ. eigenvalues --  -10.19217 -10.18982 -10.18134  -1.11207  -1.06923
 Alpha  occ. eigenvalues --   -1.02816  -1.02604  -1.00215  -0.98479  -0.97379
 Alpha  occ. eigenvalues --   -0.97247  -0.94725  -0.93960  -0.83925  -0.81861
 Alpha  occ. eigenvalues --   -0.81528  -0.81091  -0.80272  -0.79157  -0.77794
 Alpha  occ. eigenvalues --   -0.77379  -0.76520  -0.75080  -0.73836  -0.72591
 Alpha  occ. eigenvalues --   -0.71703  -0.70727  -0.69715  -0.69154  -0.68048
 Alpha  occ. eigenvalues --   -0.67315  -0.66079  -0.64144  -0.61197  -0.60803
 Alpha  occ. eigenvalues --   -0.59880  -0.58188  -0.57680  -0.57592  -0.56272
 Alpha  occ. eigenvalues --   -0.55955  -0.55398  -0.54636  -0.54111  -0.53440
 Alpha  occ. eigenvalues --   -0.52458  -0.51890  -0.50976  -0.50478  -0.50150
 Alpha  occ. eigenvalues --   -0.49817  -0.48800  -0.48071  -0.47786  -0.47406
 Alpha  occ. eigenvalues --   -0.47084  -0.46512  -0.46320  -0.46292  -0.45704
 Alpha  occ. eigenvalues --   -0.45240  -0.44935  -0.44328  -0.44227  -0.43432
 Alpha  occ. eigenvalues --   -0.43242  -0.43046  -0.42739  -0.42653  -0.42256
 Alpha  occ. eigenvalues --   -0.42054  -0.42002  -0.41551  -0.41255  -0.40938
 Alpha  occ. eigenvalues --   -0.40796  -0.40491  -0.40314  -0.39893  -0.39812
 Alpha  occ. eigenvalues --   -0.39658  -0.39238  -0.39109  -0.38631  -0.38348
 Alpha  occ. eigenvalues --   -0.38260  -0.37896  -0.37758  -0.37521  -0.37204
 Alpha  occ. eigenvalues --   -0.36941  -0.36814  -0.35419  -0.35240  -0.34263
 Alpha  occ. eigenvalues --   -0.34192  -0.33497  -0.33024  -0.31519  -0.31235
 Alpha  occ. eigenvalues --   -0.30440  -0.30269  -0.29373  -0.28892  -0.28197
 Alpha  occ. eigenvalues --   -0.26965  -0.26683  -0.25950  -0.25778  -0.24641
 Alpha  occ. eigenvalues --   -0.24560  -0.23980  -0.23518  -0.22384  -0.19006
 Alpha virt. eigenvalues --   -0.10948  -0.06782  -0.04921  -0.02538  -0.00636
 Alpha virt. eigenvalues --    0.00361   0.01099   0.01597   0.02333   0.02757
 Alpha virt. eigenvalues --    0.03402   0.03482   0.03688   0.04359   0.04773

 Mulliken charges:
               1
     1  O   -0.207857
     2  O   -0.281015
     3  O   -0.215904
     4  O   -0.170483
     5  O   -0.274698
     6  O   -0.174426
     7  N   -0.045294
     8  N   -0.239502
     9  N   -0.151213
    10  N   -0.294673
    11  C    0.190760
    12  C    0.123972
    13  C   -0.072381
    14  C   -0.078604
    15  C   -0.104022
    16  C    0.081384
    17  C   -0.203217
    18  C    0.011221
    19  C   -0.057705
    20  C   -0.113246
    21  C    0.118891
    22  C    0.154992
    23  C    0.065172
    24  C    0.073889
    25  C    0.065146
    26  C   -0.145123
    27  C    0.166429
    28  C    0.096499
    29  C   -0.122972
    30  C   -0.021457
    31  C    0.041815
    32  C    0.037128
    33  C   -0.122079
    34  C    0.110587
    35  C    0.104382
    36  C   -0.033143
    37  C    0.154818
    38  C    0.055559
    39  C   -0.156439
    40  C    0.145532
    41  C    0.021226
    42  C    0.015257
    43  C   -0.132549
    44  H   -0.002163
    45  H    0.014360
    46  H   -0.001752
    47  H    0.111685
    48  H    0.138752
    49  H   -0.001940
    50  H   -0.000842
    51  H    0.000230
    52  H   -0.008039
    53  H    0.023464
    54  H    0.031981
    55  H   -0.022947
    56  H    0.046738
    57  H    0.028385
    58  H    0.036670
    59  H   -0.003034
    60  H    0.207670
    61  H    0.020566
    62  H    0.050254
    63  H    0.026418
    64  H    0.060552
    65  H    0.019953
    66  H    0.026585
    67  H    0.053133
    68  H    0.041363
    69  H   -0.014496
    70  H    0.009140
    71  H    0.048226
    72  H    0.231883
    73  H   -0.033008
    74  H    0.039305
    75  H    0.060154
    76  H    0.044163
    77  H    0.208791
    78  H    0.061240
    79  H    0.029904
 Sum of Mulliken charges =   0.00000

 Dipole moment (field-independent basis, Debye):
    X=             -0.2584    Y=              2.6439    Z=              3.6603  Tot=              4.5227
 Quadrupole moment (field-independent basis, Debye-Ang):
   XX=           -226.9657   YY=           -235.6513   ZZ=           -263.3282
   XY=            -14.6103   XZ=             33.2573   YZ=              2.6585

 Normal termination of Gaussian 09 at Tue Jul  9 13:44:09 2019.
