 Gaussian 09, Revision D.01,
 Gaussian 09:  ES64L-G09RevD.01 24-Apr-2013

 --------------------------
 # td=(NStates=1) B3LYP/SVP
 --------------------------

 --
 TD
 --
 Symbolic Z-matrix:
 Charge =  0 Multiplicity = 1

                         Standard orientation:
 ---------------------------------------------------------------------
 Center     Atomic      Atomic             Coordinates (Angstroms)
 Number     Number       Type             X           Y           Z
 ---------------------------------------------------------------------
      1          8           0        5.262254   -0.236922   -3.293066
      2          8           0       -3.146410   -2.919957    2.926490
      3          8           0       -3.158202   -0.702755    3.425157
      4          8           0       -1.782765    7.335596    1.213109
      5          8           0       -0.450102    6.980372   -0.588773
      6          8           0       -1.621275   -3.976023   -0.047246
      7          7           0        2.298020    1.006610    0.610984
      8          7           0        4.344623   -0.596923   -1.285033
      9          7           0       -2.013321    0.649873   -0.200644
     10          7           0       -2.525139   -1.916045   -0.479546
     11          6           0        4.823866   -1.171125    0.148984
     12          6           0        4.373248   -0.198185    1.248103
     13          6           0        2.967168    0.069627    1.399158
     14          6           0        1.967901   -0.477291    2.263195
     15          6           0        0.743551    0.099178    1.890289
     16          6           0        0.933917    1.033384    0.857732
     17          6           0        6.338092   -1.255029   -0.096979
     18          6           0       -0.631737   -0.174164    2.626221
     19          6           0        6.611470   -0.949532   -1.431572
     20          6           0        0.141876    1.974735    0.090954
     21          6           0       -1.173238    1.797554   -0.308850
     22          6           0        5.403719   -0.657456   -2.125871
     23          6           0       -2.047938    2.870015   -0.805177
     24          6           0        2.243228   -1.518033    3.332592
     25          6           0        7.226659   -1.771965    0.977891
     26          6           0       -3.231519    2.355374   -1.302021
     27          6           0       -1.122371   -1.677731    2.533135
     28          6           0       -3.163046    0.966930   -0.881903
     29          6           0       -1.604241    4.297503   -1.041690
     30          6           0        7.956238   -0.943336   -2.187726
     31          6           0       -1.858168    5.084710    0.278212
     32          6           0       -4.319215    2.993107   -2.020468
     33          6           0       -4.003522   -0.126318   -1.218239
     34          6           0       -2.543672   -1.702400    3.005251
     35          6           0       -3.727696   -1.530323   -1.005572
     36          6           0        9.189889   -0.778308   -1.618811
     37          6           0       -1.237512    6.584390    0.251702
     38          6           0       -4.576874   -2.747576   -1.366692
     39          6           0       -3.930425   -3.855504   -1.009945
     40          6           0       -2.559418   -3.287562   -0.404973
     41          6           0       -5.826973   -2.632694   -2.164157
     42          6           0       -4.200744   -5.306504   -0.950147
     43          6           0       -6.484956   -3.515860   -2.890823
     44          1           0        4.248873   -2.149885    0.225978
     45          1           0        5.021631    0.800589    1.218119
     46          1           0        4.898652   -0.760020    2.028720
     47          1           0        2.744854    1.508728   -0.259414
     48          1           0        3.300421   -0.611222   -1.630536
     49          1           0       -0.431531    0.009067    3.671210
     50          1           0       -1.457125    0.464331    2.267807
     51          1           0        0.698076    2.890347   -0.104689
     52          1           0        3.293151   -1.355729    3.767694
     53          1           0        1.474076   -1.494529    4.082034
     54          1           0        2.219955   -2.649437    3.022920
     55          1           0        6.638341   -2.435780    1.452529
     56          1           0        7.552619   -0.936741    1.896671
     57          1           0        7.979911   -2.327835    0.521662
     58          1           0       -1.188749   -1.961123    1.553909
     59          1           0       -0.370075   -2.438731    2.816317
     60          1           0       -1.775213   -0.206904   -0.077016
     61          1           0       -2.009863    4.811100   -1.982930
     62          1           0       -0.359905    4.268704   -1.119516
     63          1           0        7.697776   -1.300777   -3.309985
     64          1           0       -1.419466    4.580199    1.323793
     65          1           0       -2.995632    5.245503    0.331895
     66          1           0       -3.867938    3.989845   -2.305328
     67          1           0       -5.294648    3.298177   -1.397424
     68          1           0       -4.484869    2.278710   -2.875540
     69          1           0       -4.836802    0.186481   -1.647081
     70          1           0        9.278001   -0.602616   -0.464417
     71          1           0       10.024653   -0.657372   -2.250456
     72          1           0       -4.167802   -2.838483    3.139030
     73          1           0       -6.304746   -1.603268   -1.985448
     74          1           0       -3.791465   -5.916401   -1.932865
     75          1           0       -3.854821   -5.727192    0.282727
     76          1           0       -5.566060   -5.404460   -0.943639
     77          1           0       -1.170969    8.049221    0.992458
     78          1           0       -7.359349   -3.314401   -3.359675
     79          1           0       -5.986582   -4.632854   -2.986033
 ---------------------------------------------------------------------

 SCF Done:  E(RB3LYP) =  -1947.81032721     A.U. after   16 cycles

 Excitation energies and oscillator strengths:

 Excited State   1:      Singlet-A      2.1852 eV  567.37 nm  f=0.4708  <S**2>=0.000
     155 ->156         0.70235
     155 <-156        -0.11051
 This state for optimization and/or second-order correction.
 Total Energy, E(TD-HF/TD-KS) =  -1947.73002129
 Copying the excited state density for this state as the 1-particle RhoCI density.

 The electronic state is 1-A.
 Alpha  occ. eigenvalues --  -19.20621 -19.17370 -19.14784 -19.10995 -19.09885
 Alpha  occ. eigenvalues --  -19.08014 -14.38944 -14.36090 -14.34961 -14.29305
 Alpha  occ. eigenvalues --  -10.33883 -10.31099 -10.27037 -10.26289 -10.26161
 Alpha  occ. eigenvalues --  -10.25191 -10.25155 -10.24531 -10.24088 -10.23991
 Alpha  occ. eigenvalues --  -10.23451 -10.23402 -10.23357 -10.22981 -10.22709
 Alpha  occ. eigenvalues --  -10.22523 -10.22284 -10.22265 -10.22227 -10.21605
 Alpha  occ. eigenvalues --  -10.21496 -10.21370 -10.20747 -10.20640 -10.20364
 Alpha  occ. eigenvalues --  -10.20349 -10.19889 -10.19633 -10.19511 -10.19509
 Alpha  occ. eigenvalues --  -10.19101 -10.18575 -10.18329  -1.13088  -1.06480
 Alpha  occ. eigenvalues --   -1.02546  -1.00988  -1.00193  -0.98741  -0.97691
 Alpha  occ. eigenvalues --   -0.97267  -0.91169  -0.90635  -0.83984  -0.81953
 Alpha  occ. eigenvalues --   -0.81600  -0.80308  -0.80196  -0.79882  -0.77518
 Alpha  occ. eigenvalues --   -0.76751  -0.75980  -0.75590  -0.74558  -0.73015
 Alpha  occ. eigenvalues --   -0.72308  -0.71197  -0.69439  -0.68389  -0.68141
 Alpha  occ. eigenvalues --   -0.66036  -0.65304  -0.63137  -0.60409  -0.59614
 Alpha  occ. eigenvalues --   -0.59377  -0.58512  -0.58164  -0.57645  -0.57340
 Alpha  occ. eigenvalues --   -0.56187  -0.55388  -0.54770  -0.53697  -0.52428
 Alpha  occ. eigenvalues --   -0.51764  -0.51555  -0.50649  -0.50181  -0.49700
 Alpha  occ. eigenvalues --   -0.49154  -0.49123  -0.48682  -0.48035  -0.47713
 Alpha  occ. eigenvalues --   -0.46985  -0.46462  -0.45993  -0.45914  -0.45585
 Alpha  occ. eigenvalues --   -0.45173  -0.45093  -0.44839  -0.44394  -0.44153
 Alpha  occ. eigenvalues --   -0.43616  -0.43114  -0.42789  -0.42438  -0.42381
 Alpha  occ. eigenvalues --   -0.41982  -0.41774  -0.41582  -0.41377  -0.40848
 Alpha  occ. eigenvalues --   -0.40221  -0.39940  -0.39659  -0.39604  -0.39491
 Alpha  occ. eigenvalues --   -0.39217  -0.39028  -0.38925  -0.38650  -0.38508
 Alpha  occ. eigenvalues --   -0.38083  -0.37801  -0.37539  -0.36457  -0.36265
 Alpha  occ. eigenvalues --   -0.36197  -0.36167  -0.35035  -0.35020  -0.34274
 Alpha  occ. eigenvalues --   -0.34108  -0.33828  -0.33521  -0.32263  -0.30859
 Alpha  occ. eigenvalues --   -0.30371  -0.30312  -0.29776  -0.28718  -0.27708
 Alpha  occ. eigenvalues --   -0.26610  -0.26523  -0.25150  -0.24859  -0.24737
 Alpha  occ. eigenvalues --   -0.24102  -0.23835  -0.23441  -0.22885  -0.19300
 Alpha virt. eigenvalues --   -0.10781  -0.06835  -0.06042  -0.01228  -0.00768
 Alpha virt. eigenvalues --   -0.00017   0.00381   0.00975   0.01962   0.02652
 Alpha virt. eigenvalues --    0.02894   0.03042   0.03575   0.04237   0.04511

 Mulliken charges:
               1
     1  O   -0.270360
     2  O   -0.230041
     3  O   -0.273772
     4  O   -0.135796
     5  O   -0.235905
     6  O   -0.205627
     7  N   -0.143808
     8  N   -0.264803
     9  N    0.011893
    10  N   -0.277340
    11  C    0.043897
    12  C    0.125044
    13  C   -0.008416
    14  C   -0.104845
    15  C   -0.111471
    16  C    0.067351
    17  C   -0.188290
    18  C    0.092070
    19  C   -0.056517
    20  C   -0.112382
    21  C    0.144918
    22  C    0.137569
    23  C   -0.054842
    24  C    0.052272
    25  C    0.141074
    26  C   -0.112317
    27  C    0.045446
    28  C    0.073356
    29  C   -0.010557
    30  C   -0.021732
    31  C   -0.089860
    32  C    0.054097
    33  C   -0.032443
    34  C    0.168479
    35  C    0.109998
    36  C   -0.036133
    37  C    0.147671
    38  C    0.061205
    39  C   -0.163698
    40  C    0.133205
    41  C   -0.032208
    42  C   -0.117256
    43  C   -0.013125
    44  H    0.052602
    45  H    0.027651
    46  H   -0.018879
    47  H    0.154843
    48  H    0.164873
    49  H    0.007297
    50  H    0.025550
    51  H   -0.000070
    52  H    0.023578
    53  H    0.012810
    54  H    0.041272
    55  H   -0.014714
    56  H    0.066918
    57  H    0.016818
    58  H    0.008598
    59  H    0.025513
    60  H    0.049155
    61  H    0.057926
    62  H    0.049022
    63  H    0.063719
    64  H    0.090561
    65  H    0.051244
    66  H    0.012048
    67  H    0.065062
    68  H    0.055507
    69  H   -0.108883
    70  H    0.050075
    71  H    0.028603
    72  H    0.217087
    73  H    0.009193
    74  H    0.086059
    75  H    0.086353
    76  H    0.043440
    77  H    0.155865
    78  H   -0.006540
    79  H    0.043841
 Sum of Mulliken charges =   0.00000

 Dipole moment (field-independent basis, Debye):
    X=              0.2523    Y=              2.4020    Z=              2.7786  Tot=              3.6815
 Quadrupole moment (field-independent basis, Debye-Ang):
   XX=           -218.0526   YY=           -245.4840   ZZ=           -269.7065
   XY=            -13.5616   XZ=             36.9945   YZ=              0.0726

 Normal termination of Gaussian 09 at Mon Jul  8 16:05:43 2019.
