 Gaussian 09, Revision D.01,
 Gaussian 09:  ES64L-G09RevD.01 24-Apr-2013

 --------------------------
 # td=(NStates=1) B3LYP/SVP
 --------------------------

 --
 TD
 --
 Symbolic Z-matrix:
 Charge =  0 Multiplicity = 1

                         Standard orientation:
 ---------------------------------------------------------------------
 Center     Atomic      Atomic             Coordinates (Angstroms)
 Number     Number       Type             X           Y           Z
 ---------------------------------------------------------------------
      1          8           0        5.458187   -0.148772   -3.344630
      2          8           0       -2.553757   -3.168726    3.248451
      3          8           0       -3.104086   -1.026696    3.152395
      4          8           0       -1.875833    7.189298    1.447243
      5          8           0       -0.561331    6.955960   -0.377377
      6          8           0       -1.769503   -3.996520   -0.084300
      7          7           0        2.397348    1.124651    0.529441
      8          7           0        4.441569   -0.613396   -1.303588
      9          7           0       -1.946932    0.664790   -0.414282
     10          7           0       -2.606470   -1.855369   -0.551666
     11          6           0        4.790219   -1.079306    0.073440
     12          6           0        4.447625   -0.092650    1.278739
     13          6           0        3.078094    0.153908    1.219104
     14          6           0        2.020109   -0.462765    2.043401
     15          6           0        0.803766    0.108787    1.743162
     16          6           0        1.033130    1.140543    0.755560
     17          6           0        6.374388   -1.265863   -0.124499
     18          6           0       -0.481563   -0.221236    2.461238
     19          6           0        6.770104   -0.889148   -1.420726
     20          6           0        0.094813    1.994943    0.131791
     21          6           0       -1.218389    1.750204   -0.425117
     22          6           0        5.516906   -0.482509   -2.206689
     23          6           0       -2.122725    2.881412   -0.839921
     24          6           0        2.273446   -1.537327    3.115669
     25          6           0        7.169282   -1.775693    1.069320
     26          6           0       -3.338167    2.330202   -1.212860
     27          6           0       -1.050564   -1.719332    2.415281
     28          6           0       -3.152557    0.940349   -1.010149
     29          6           0       -1.639412    4.277493   -0.914701
     30          6           0        7.985513   -0.960521   -2.130912
     31          6           0       -1.852450    5.054684    0.344940
     32          6           0       -4.501683    2.968522   -1.798602
     33          6           0       -4.062046   -0.110096   -1.393097
     34          6           0       -2.298246   -1.851526    2.977054
     35          6           0       -3.722347   -1.446387   -1.068313
     36          6           0        9.178781   -0.784801   -1.535579
     37          6           0       -1.369847    6.554847    0.423995
     38          6           0       -4.732243   -2.636556   -1.319243
     39          6           0       -4.023895   -3.766075   -1.055906
     40          6           0       -2.691389   -3.271315   -0.475690
     41          6           0       -6.100436   -2.482463   -1.761245
     42          6           0       -4.310639   -5.126104   -1.121919
     43          6           0       -6.897477   -3.417517   -2.406190
     44          1           0        4.562361   -2.179804    0.259124
     45          1           0        5.249101    0.726740    1.194144
     46          1           0        4.807919   -0.682397    2.033710
     47          1           0        2.715965    1.618144   -0.268600
     48          1           0        3.591532   -0.697285   -1.703575
     49          1           0       -0.188977   -0.035559    3.588631
     50          1           0       -1.106009    0.697523    2.084198
     51          1           0        0.522284    3.089546   -0.099202
     52          1           0        3.339803   -1.751532    3.455808
     53          1           0        1.684102   -1.410396    3.986000
     54          1           0        1.806297   -2.711289    2.847038
     55          1           0        6.520874   -2.623426    1.580726
     56          1           0        7.261240   -1.002615    1.850187
     57          1           0        8.238272   -2.160197    0.842936
     58          1           0       -1.078947   -2.124503    1.330476
     59          1           0       -0.421182   -2.482063    2.910680
     60          1           0       -1.593041   -0.438227   -0.483473
     61          1           0       -2.170110    4.764361   -1.583824
     62          1           0       -0.582451    4.283423   -1.578535
     63          1           0        7.755236   -0.858855   -3.243413
     64          1           0       -1.574750    4.599328    1.372823
     65          1           0       -2.915658    4.930836    0.353349
     66          1           0       -4.452314    3.938314   -2.077896
     67          1           0       -5.388466    2.786170   -1.186087
     68          1           0       -4.635166    2.337897   -2.748895
     69          1           0       -4.914252    0.223260   -1.849386
     70          1           0        9.194713   -0.913281   -0.452006
     71          1           0       10.203632   -0.647587   -2.048962
     72          1           0       -3.563766   -3.352817    3.540972
     73          1           0       -6.528907   -1.487396   -1.565364
     74          1           0       -4.111284   -5.809028   -2.120186
     75          1           0       -3.752360   -5.788253   -0.431905
     76          1           0       -5.387047   -5.534647   -0.756364
     77          1           0       -1.515337    7.981162    1.339872
     78          1           0       -7.698425   -3.219994   -2.711478
     79          1           0       -6.443485   -4.406862   -2.803143
 ---------------------------------------------------------------------

 SCF Done:  E(RB3LYP) =  -1947.80356909     A.U. after   17 cycles

 Excitation energies and oscillator strengths:

 Excited State   1:      Singlet-A      2.0628 eV  601.05 nm  f=0.5478  <S**2>=0.000
     155 ->156         0.70365
     155 <-156        -0.12086
 This state for optimization and/or second-order correction.
 Total Energy, E(TD-HF/TD-KS) =  -1947.72776262
 Copying the excited state density for this state as the 1-particle RhoCI density.

 The electronic state is 1-A.
 Alpha  occ. eigenvalues --  -19.20407 -19.15063 -19.13664 -19.11254 -19.10463
 Alpha  occ. eigenvalues --  -19.09887 -14.39109 -14.36119 -14.34803 -14.30160
 Alpha  occ. eigenvalues --  -10.33359 -10.28900 -10.28456 -10.27062 -10.26215
 Alpha  occ. eigenvalues --  -10.24115 -10.24046 -10.23919 -10.23700 -10.23048
 Alpha  occ. eigenvalues --  -10.22882 -10.22743 -10.22595 -10.22090 -10.21396
 Alpha  occ. eigenvalues --  -10.21134 -10.21054 -10.20718 -10.20603 -10.20512
 Alpha  occ. eigenvalues --  -10.20404 -10.20324 -10.20278 -10.20144 -10.20062
 Alpha  occ. eigenvalues --  -10.19970 -10.19741 -10.19579 -10.19394 -10.19073
 Alpha  occ. eigenvalues --  -10.18631 -10.18506 -10.18457  -1.14872  -1.07241
 Alpha  occ. eigenvalues --   -1.04488  -1.03150  -1.00658  -0.99254  -0.98864
 Alpha  occ. eigenvalues --   -0.97891  -0.92925  -0.92503  -0.83423  -0.82289
 Alpha  occ. eigenvalues --   -0.81744  -0.81190  -0.80864  -0.80484  -0.77772
 Alpha  occ. eigenvalues --   -0.76859  -0.76464  -0.75696  -0.74644  -0.72669
 Alpha  occ. eigenvalues --   -0.70947  -0.70687  -0.69615  -0.69547  -0.68650
 Alpha  occ. eigenvalues --   -0.67296  -0.66270  -0.63769  -0.62145  -0.61506
 Alpha  occ. eigenvalues --   -0.60881  -0.59395  -0.57818  -0.57682  -0.56759
 Alpha  occ. eigenvalues --   -0.56141  -0.55281  -0.55008  -0.53487  -0.52911
 Alpha  occ. eigenvalues --   -0.52378  -0.51575  -0.51461  -0.50560  -0.50409
 Alpha  occ. eigenvalues --   -0.49943  -0.48963  -0.48733  -0.47868  -0.47494
 Alpha  occ. eigenvalues --   -0.47084  -0.47060  -0.46448  -0.46282  -0.46084
 Alpha  occ. eigenvalues --   -0.45645  -0.44939  -0.44603  -0.44328  -0.43908
 Alpha  occ. eigenvalues --   -0.43355  -0.43227  -0.43072  -0.42933  -0.42543
 Alpha  occ. eigenvalues --   -0.42220  -0.42066  -0.41857  -0.41601  -0.41319
 Alpha  occ. eigenvalues --   -0.40949  -0.40670  -0.40157  -0.39843  -0.39756
 Alpha  occ. eigenvalues --   -0.39610  -0.39059  -0.38678  -0.38251  -0.38024
 Alpha  occ. eigenvalues --   -0.37813  -0.37747  -0.37492  -0.37071  -0.36941
 Alpha  occ. eigenvalues --   -0.36184  -0.35874  -0.34745  -0.34397  -0.33906
 Alpha  occ. eigenvalues --   -0.33521  -0.33401  -0.33118  -0.32344  -0.31844
 Alpha  occ. eigenvalues --   -0.30516  -0.30072  -0.29011  -0.28394  -0.27746
 Alpha  occ. eigenvalues --   -0.27244  -0.26455  -0.25890  -0.25815  -0.24929
 Alpha  occ. eigenvalues --   -0.24339  -0.23627  -0.23142  -0.22496  -0.18376
 Alpha virt. eigenvalues --   -0.10485  -0.06564  -0.05986  -0.01067  -0.00095
 Alpha virt. eigenvalues --    0.00178   0.00908   0.02377   0.03127   0.03415
 Alpha virt. eigenvalues --    0.03754   0.04664   0.04948   0.05417   0.05565

 Mulliken charges:
               1
     1  O   -0.180217
     2  O   -0.273030
     3  O   -0.182842
     4  O   -0.055119
     5  O   -0.221176
     6  O   -0.218467
     7  N   -0.021060
     8  N   -0.197927
     9  N   -0.070374
    10  N   -0.273524
    11  C    0.023737
    12  C    0.232558
    13  C   -0.027186
    14  C   -0.091370
    15  C   -0.076784
    16  C    0.037361
    17  C   -0.195311
    18  C    0.028861
    19  C   -0.067732
    20  C   -0.149089
    21  C    0.046015
    22  C    0.143896
    23  C   -0.174053
    24  C    0.019568
    25  C    0.026313
    26  C   -0.103890
    27  C    0.019077
    28  C    0.061095
    29  C    0.166709
    30  C   -0.009635
    31  C   -0.027412
    32  C    0.153384
    33  C   -0.090619
    34  C    0.095327
    35  C    0.131396
    36  C   -0.047066
    37  C    0.114915
    38  C    0.045900
    39  C   -0.087816
    40  C    0.164661
    41  C   -0.067467
    42  C   -0.055197
    43  C    0.108441
    44  H    0.050478
    45  H    0.023552
    46  H   -0.049231
    47  H    0.103006
    48  H    0.092329
    49  H    0.024118
    50  H    0.047658
    51  H    0.033203
    52  H    0.019765
    53  H    0.002956
    54  H    0.042538
    55  H    0.035669
    56  H    0.040378
    57  H    0.058044
    58  H    0.095671
    59  H    0.017810
    60  H    0.225664
    61  H   -0.067173
    62  H    0.041562
    63  H    0.030444
    64  H    0.054281
    65  H    0.015646
    66  H   -0.017443
    67  H    0.027598
    68  H    0.035771
    69  H   -0.077025
    70  H    0.012328
    71  H    0.047878
    72  H    0.216180
    73  H   -0.000759
    74  H    0.048317
    75  H    0.018014
    76  H    0.028874
    77  H    0.118198
    78  H   -0.092778
    79  H    0.041627
 Sum of Mulliken charges =   0.00000

 Dipole moment (field-independent basis, Debye):
    X=              0.0811    Y=              2.8594    Z=              2.4845  Tot=              3.7889
 Quadrupole moment (field-independent basis, Debye-Ang):
   XX=           -220.0262   YY=           -240.8822   ZZ=           -262.2846
   XY=            -13.1160   XZ=             34.5403   YZ=              2.6111

 Normal termination of Gaussian 09 at Wed Jul 10 21:33:09 2019.
