 Gaussian 09, Revision D.01,
 Gaussian 09:  ES64L-G09RevD.01 24-Apr-2013

 --------------------------
 # td=(NStates=1) B3LYP/SVP
 --------------------------

 --
 TD
 --
 Symbolic Z-matrix:
 Charge =  0 Multiplicity = 1

                         Standard orientation:
 ---------------------------------------------------------------------
 Center     Atomic      Atomic             Coordinates (Angstroms)
 Number     Number       Type             X           Y           Z
 ---------------------------------------------------------------------
      1          8           0        5.528062    0.077138   -3.302434
      2          8           0       -2.809368   -3.106059    3.270790
      3          8           0       -3.219109   -0.986370    3.111823
      4          8           0       -1.501300    7.074333    1.556754
      5          8           0       -0.664989    7.025670   -0.436821
      6          8           0       -2.103928   -4.038340   -0.182685
      7          7           0        2.342743    0.775487    0.432591
      8          7           0        4.428448   -0.625311   -1.316889
      9          7           0       -1.863318    0.688634   -0.433212
     10          7           0       -2.748975   -1.816604   -0.537390
     11          6           0        4.881980   -1.289991   -0.055220
     12          6           0        4.537326   -0.425436    1.126358
     13          6           0        3.022251   -0.063776    1.191186
     14          6           0        2.073401   -0.654829    2.102188
     15          6           0        0.813983   -0.129237    1.821608
     16          6           0        1.025032    0.868808    0.924940
     17          6           0        6.393849   -1.379001   -0.254244
     18          6           0       -0.494467   -0.375494    2.550796
     19          6           0        6.794988   -0.811256   -1.374858
     20          6           0        0.132173    1.889782    0.109130
     21          6           0       -1.131635    1.849590   -0.287570
     22          6           0        5.583081   -0.391337   -2.204828
     23          6           0       -1.910407    2.929088   -0.857923
     24          6           0        2.276297   -1.572852    3.239403
     25          6           0        7.201297   -1.967586    0.967970
     26          6           0       -3.102484    2.458845   -1.183252
     27          6           0       -1.043062   -1.787426    2.521599
     28          6           0       -3.081085    0.981012   -0.940024
     29          6           0       -1.411055    4.308572   -0.832592
     30          6           0        8.125391   -0.837053   -2.069349
     31          6           0       -1.754406    4.983668    0.450713
     32          6           0       -4.354795    3.235778   -1.652258
     33          6           0       -4.016824    0.041140   -1.240050
     34          6           0       -2.456899   -1.856344    3.003509
     35          6           0       -3.881265   -1.318874   -1.118404
     36          6           0        9.268714   -0.861522   -1.486662
     37          6           0       -1.260165    6.437857    0.408919
     38          6           0       -4.829035   -2.429720   -1.545167
     39          6           0       -4.264791   -3.589957   -1.120679
     40          6           0       -2.897435   -3.216263   -0.608050
     41          6           0       -6.123253   -2.236073   -2.053112
     42          6           0       -4.609243   -5.033618   -1.271610
     43          6           0       -7.015576   -3.209896   -2.532076
     44          1           0        4.373593   -2.325098    0.070866
     45          1           0        5.159970    0.385897    1.057485
     46          1           0        4.667172   -0.806275    2.180734
     47          1           0        2.961255    1.364105   -0.185024
     48          1           0        3.588503   -0.832080   -1.724474
     49          1           0       -0.322443   -0.212213    3.577520
     50          1           0       -1.322156    0.466138    2.451304
     51          1           0        0.670907    2.833432    0.093116
     52          1           0        3.222478   -1.661005    3.692192
     53          1           0        1.597240   -1.306522    4.187558
     54          1           0        2.036296   -2.673463    2.934864
     55          1           0        6.537534   -2.772968    1.413433
     56          1           0        7.849388   -1.330377    1.523459
     57          1           0        7.916172   -2.734941    0.336030
     58          1           0       -1.086198   -2.206216    1.507563
     59          1           0       -0.439276   -2.487964    2.894116
     60          1           0       -1.862195   -0.276139   -0.166153
     61          1           0       -1.714191    4.807551   -1.752746
     62          1           0       -0.295253    4.171104   -0.523930
     63          1           0        8.158489   -0.623650   -3.014042
     64          1           0       -0.962728    4.509336    1.022470
     65          1           0       -2.888198    5.042016    0.760175
     66          1           0       -3.919064    4.364288   -1.714028
     67          1           0       -5.229610    3.382205   -0.784602
     68          1           0       -4.758995    2.731927   -2.579760
     69          1           0       -4.921661    0.193443   -1.812775
     70          1           0        9.318635   -0.906905   -0.414768
     71          1           0       10.171824   -0.589699   -1.950424
     72          1           0       -3.780370   -2.915100    3.618251
     73          1           0       -6.396931   -1.025840   -2.158358
     74          1           0       -4.788220   -5.346854   -2.403859
     75          1           0       -3.790164   -5.744038   -0.931994
     76          1           0       -5.513090   -5.246076   -0.834010
     77          1           0       -1.137297    7.990930    1.511080
     78          1           0       -8.010935   -2.715440   -2.953793
     79          1           0       -6.989007   -4.309517   -2.464922
 ---------------------------------------------------------------------

 SCF Done:  E(RB3LYP) =  -1947.85199146     A.U. after   16 cycles

 Excitation energies and oscillator strengths:

 Excited State   1:      Singlet-A      2.1920 eV  565.62 nm  f=0.3629  <S**2>=0.000
     153 ->156        -0.11141
     155 ->156         0.69443
 This state for optimization and/or second-order correction.
 Total Energy, E(TD-HF/TD-KS) =  -1947.77143657
 Copying the excited state density for this state as the 1-particle RhoCI density.

 The electronic state is 1-A.
 Alpha  occ. eigenvalues --  -19.18020 -19.16404 -19.12878 -19.12013 -19.10983
 Alpha  occ. eigenvalues --  -19.09886 -14.38246 -14.36025 -14.34483 -14.29031
 Alpha  occ. eigenvalues --  -10.32140 -10.29744 -10.29446 -10.25896 -10.25305
 Alpha  occ. eigenvalues --  -10.24752 -10.24070 -10.23321 -10.23186 -10.22682
 Alpha  occ. eigenvalues --  -10.22664 -10.22599 -10.22458 -10.22325 -10.21981
 Alpha  occ. eigenvalues --  -10.21832 -10.21203 -10.21175 -10.21136 -10.21043
 Alpha  occ. eigenvalues --  -10.20854 -10.20675 -10.19963 -10.19711 -10.19618
 Alpha  occ. eigenvalues --  -10.19089 -10.18932 -10.18870 -10.18457 -10.18259
 Alpha  occ. eigenvalues --  -10.18200 -10.17986 -10.17084  -1.11060  -1.10002
 Alpha  occ. eigenvalues --   -1.04271  -1.00917  -1.00910  -0.99807  -0.99409
 Alpha  occ. eigenvalues --   -0.98674  -0.92906  -0.91271  -0.85241  -0.82617
 Alpha  occ. eigenvalues --   -0.81699  -0.81060  -0.80377  -0.79423  -0.79233
 Alpha  occ. eigenvalues --   -0.77364  -0.76853  -0.76177  -0.74038  -0.72676
 Alpha  occ. eigenvalues --   -0.71398  -0.70605  -0.69485  -0.68474  -0.67853
 Alpha  occ. eigenvalues --   -0.66773  -0.65718  -0.63896  -0.61271  -0.60817
 Alpha  occ. eigenvalues --   -0.60613  -0.58780  -0.58321  -0.57497  -0.56516
 Alpha  occ. eigenvalues --   -0.55967  -0.55536  -0.54748  -0.54043  -0.53368
 Alpha  occ. eigenvalues --   -0.52363  -0.51872  -0.51478  -0.50980  -0.50098
 Alpha  occ. eigenvalues --   -0.49713  -0.49284  -0.49012  -0.48138  -0.47355
 Alpha  occ. eigenvalues --   -0.47189  -0.46752  -0.46502  -0.46322  -0.45740
 Alpha  occ. eigenvalues --   -0.45423  -0.45058  -0.45051  -0.43988  -0.43623
 Alpha  occ. eigenvalues --   -0.43610  -0.43267  -0.43137  -0.42658  -0.42483
 Alpha  occ. eigenvalues --   -0.42322  -0.41701  -0.41388  -0.41147  -0.41061
 Alpha  occ. eigenvalues --   -0.40584  -0.40239  -0.40000  -0.39769  -0.39702
 Alpha  occ. eigenvalues --   -0.39060  -0.38705  -0.38619  -0.38420  -0.38079
 Alpha  occ. eigenvalues --   -0.37899  -0.37706  -0.37604  -0.37248  -0.36769
 Alpha  occ. eigenvalues --   -0.36532  -0.35946  -0.35147  -0.34841  -0.34534
 Alpha  occ. eigenvalues --   -0.34160  -0.33845  -0.32769  -0.32753  -0.32174
 Alpha  occ. eigenvalues --   -0.31641  -0.31118  -0.28644  -0.28328  -0.27977
 Alpha  occ. eigenvalues --   -0.27334  -0.27164  -0.26764  -0.26618  -0.25691
 Alpha  occ. eigenvalues --   -0.24914  -0.23749  -0.22946  -0.21822  -0.19411
 Alpha virt. eigenvalues --   -0.10366  -0.06069  -0.05342  -0.00973   0.00592
 Alpha virt. eigenvalues --    0.00772   0.01696   0.01796   0.03298   0.03845
 Alpha virt. eigenvalues --    0.04110   0.04610   0.04659   0.05023   0.05045

 Mulliken charges:
               1
     1  O   -0.174171
     2  O   -0.198674
     3  O   -0.196338
     4  O   -0.185814
     5  O   -0.205228
     6  O   -0.207139
     7  N   -0.054939
     8  N   -0.249731
     9  N   -0.014180
    10  N   -0.316677
    11  C    0.041560
    12  C    0.281033
    13  C   -0.168544
    14  C   -0.112862
    15  C   -0.054239
    16  C    0.011718
    17  C   -0.167057
    18  C    0.062379
    19  C   -0.048942
    20  C   -0.080134
    21  C    0.146997
    22  C    0.166623
    23  C   -0.048100
    24  C    0.032997
    25  C    0.049492
    26  C   -0.113651
    27  C    0.086287
    28  C    0.125542
    29  C    0.066684
    30  C    0.084226
    31  C    0.027714
    32  C   -0.000472
    33  C   -0.088286
    34  C    0.079726
    35  C    0.023137
    36  C    0.006389
    37  C    0.080132
    38  C    0.095995
    39  C   -0.185395
    40  C    0.152483
    41  C   -0.092899
    42  C    0.077691
    43  C   -0.067800
    44  H    0.035349
    45  H   -0.054525
    46  H    0.009334
    47  H    0.142786
    48  H    0.105800
    49  H   -0.022280
    50  H    0.035768
    51  H   -0.011090
    52  H   -0.015910
    53  H    0.029164
    54  H    0.037304
    55  H    0.032999
    56  H    0.061977
    57  H    0.045068
    58  H    0.047223
    59  H   -0.040666
    60  H    0.125078
    61  H    0.036294
    62  H    0.010909
    63  H   -0.065203
    64  H    0.026842
    65  H    0.069814
    66  H    0.033075
    67  H    0.062624
    68  H    0.060043
    69  H   -0.053536
    70  H   -0.007812
    71  H    0.012838
    72  H    0.192280
    73  H    0.035380
    74  H    0.035283
    75  H    0.045866
    76  H    0.004402
    77  H    0.188333
    78  H    0.043618
    79  H    0.038038
 Sum of Mulliken charges =   0.00000

 Dipole moment (field-independent basis, Debye):
    X=              1.2516    Y=              2.1544    Z=              2.7902  Tot=              3.7407
 Quadrupole moment (field-independent basis, Debye-Ang):
   XX=           -213.0994   YY=           -247.9214   ZZ=           -262.1648
   XY=            -10.8642   XZ=             27.5275   YZ=              7.1393

 Normal termination of Gaussian 09 at Mon Jul  8 22:58:38 2019.
