 Gaussian 09, Revision D.01,
 Gaussian 09:  ES64L-G09RevD.01 24-Apr-2013

 --------------------------
 # td=(NStates=1) B3LYP/SVP
 --------------------------

 --
 TD
 --
 Symbolic Z-matrix:
 Charge =  0 Multiplicity = 1

                         Standard orientation:
 ---------------------------------------------------------------------
 Center     Atomic      Atomic             Coordinates (Angstroms)
 Number     Number       Type             X           Y           Z
 ---------------------------------------------------------------------
      1          8           0        5.649155    0.283423   -3.320411
      2          8           0       -2.816534   -3.252394    3.233568
      3          8           0       -3.149584   -1.057306    3.561934
      4          8           0       -1.668983    7.147102    1.805429
      5          8           0       -0.389340    6.981934   -0.096615
      6          8           0       -2.107687   -3.983557   -0.129106
      7          7           0        2.396790    0.821090    0.672277
      8          7           0        4.499824   -0.291071   -1.376691
      9          7           0       -1.866745    0.728269   -0.487695
     10          7           0       -2.794573   -1.844036   -0.573142
     11          6           0        4.812961   -1.190588   -0.202628
     12          6           0        4.501286   -0.539282    1.216572
     13          6           0        3.002904   -0.240824    1.409976
     14          6           0        1.946850   -0.895118    2.157106
     15          6           0        0.794531   -0.178918    1.784965
     16          6           0        1.063868    0.821658    0.884221
     17          6           0        6.265221   -1.456294   -0.259439
     18          6           0       -0.519452   -0.495668    2.486746
     19          6           0        6.704807   -0.771341   -1.431651
     20          6           0        0.324051    1.826286    0.123217
     21          6           0       -1.021015    1.821590   -0.334762
     22          6           0        5.598308   -0.217569   -2.175988
     23          6           0       -1.743274    2.979931   -0.778679
     24          6           0        2.284096   -2.104301    2.969699
     25          6           0        7.009687   -2.312290    0.754172
     26          6           0       -3.043399    2.516456   -1.178427
     27          6           0       -1.147446   -1.971593    2.430481
     28          6           0       -3.039556    1.065326   -1.035116
     29          6           0       -1.257176    4.399532   -0.778134
     30          6           0        8.096636   -0.697616   -2.023340
     31          6           0       -1.841431    5.134037    0.537150
     32          6           0       -4.083455    3.245448   -1.946245
     33          6           0       -4.068836    0.100351   -1.386090
     34          6           0       -2.491373   -1.909499    3.113284
     35          6           0       -3.896093   -1.308859   -1.110755
     36          6           0        9.237557   -0.828195   -1.399215
     37          6           0       -1.268696    6.550693    0.644712
     38          6           0       -4.883336   -2.388906   -1.513383
     39          6           0       -4.264139   -3.581343   -1.268084
     40          6           0       -2.945958   -3.240186   -0.664473
     41          6           0       -6.173939   -2.018108   -2.091750
     42          6           0       -4.786371   -4.893687   -1.442591
     43          6           0       -6.927382   -2.908127   -2.769113
     44          1           0        4.246747   -2.182015   -0.409837
     45          1           0        5.067326    0.442769    1.162366
     46          1           0        4.919080   -1.035076    1.964059
     47          1           0        2.937549    1.464261    0.030111
     48          1           0        3.614691   -0.262588   -1.644655
     49          1           0       -0.306567   -0.396540    3.690939
     50          1           0       -1.185736    0.383738    2.458838
     51          1           0        0.909942    2.738914    0.297129
     52          1           0        3.277756   -2.207067    3.510351
     53          1           0        1.537681   -2.038066    3.891377
     54          1           0        1.977667   -3.018546    2.469148
     55          1           0        6.282506   -3.104207    1.241005
     56          1           0        7.339561   -1.912932    1.772062
     57          1           0        7.876661   -2.670915    0.382668
     58          1           0       -1.265338   -2.232356    1.440035
     59          1           0       -0.533377   -2.639747    2.961091
     60          1           0       -1.565415   -0.416392   -0.438850
     61          1           0       -1.574202    4.936477   -1.691454
     62          1           0       -0.270977    4.242792   -0.732975
     63          1           0        8.132797   -0.733823   -3.039748
     64          1           0       -1.718756    4.496367    1.589435
     65          1           0       -3.117661    5.538192    0.534390
     66          1           0       -3.727342    4.085043   -2.540861
     67          1           0       -4.983941    3.363718   -1.287374
     68          1           0       -4.257203    2.541064   -2.903287
     69          1           0       -5.017136    0.418312   -1.745326
     70          1           0        9.551855   -1.055781   -0.422137
     71          1           0       10.208634   -0.619685   -2.131038
     72          1           0       -3.678370   -3.403316    3.759504
     73          1           0       -6.410666   -0.976663   -2.350415
     74          1           0       -4.993814   -5.155877   -2.463979
     75          1           0       -4.215226   -5.664017   -0.953778
     76          1           0       -5.812223   -5.078294   -1.114970
     77          1           0       -1.573556    8.189131    1.967943
     78          1           0       -7.960021   -2.778253   -3.081146
     79          1           0       -6.938840   -3.989968   -2.586885
 ---------------------------------------------------------------------

 SCF Done:  E(RB3LYP) =  -1947.84459327     A.U. after   20 cycles

 Excitation energies and oscillator strengths:

 Excited State   1:      Singlet-A      2.0500 eV  604.81 nm  f=0.4741  <S**2>=0.000
     155 ->156         0.69768
     155 <-156        -0.11799
 This state for optimization and/or second-order correction.
 Total Energy, E(TD-HF/TD-KS) =  -1947.76925850
 Copying the excited state density for this state as the 1-particle RhoCI density.

 The electronic state is 1-A.
 Alpha  occ. eigenvalues --  -19.18632 -19.14982 -19.12995 -19.11931 -19.09870
 Alpha  occ. eigenvalues --  -19.09377 -14.38651 -14.36838 -14.35554 -14.29104
 Alpha  occ. eigenvalues --  -10.32965 -10.30024 -10.28333 -10.26342 -10.26106
 Alpha  occ. eigenvalues --  -10.25035 -10.24936 -10.24846 -10.23644 -10.23619
 Alpha  occ. eigenvalues --  -10.23201 -10.22885 -10.22862 -10.22398 -10.22215
 Alpha  occ. eigenvalues --  -10.21217 -10.21208 -10.21137 -10.21013 -10.20937
 Alpha  occ. eigenvalues --  -10.20924 -10.20792 -10.20191 -10.19994 -10.19821
 Alpha  occ. eigenvalues --  -10.19654 -10.19624 -10.19451 -10.19361 -10.19318
 Alpha  occ. eigenvalues --  -10.19256 -10.17841 -10.17782  -1.07707  -1.07585
 Alpha  occ. eigenvalues --   -1.01264  -1.00011  -0.99657  -0.98799  -0.98301
 Alpha  occ. eigenvalues --   -0.97855  -0.93972  -0.91265  -0.82697  -0.82135
 Alpha  occ. eigenvalues --   -0.80911  -0.80876  -0.80563  -0.79215  -0.77365
 Alpha  occ. eigenvalues --   -0.76761  -0.75948  -0.75587  -0.74309  -0.73037
 Alpha  occ. eigenvalues --   -0.72320  -0.71332  -0.69903  -0.68880  -0.67811
 Alpha  occ. eigenvalues --   -0.66779  -0.66090  -0.63898  -0.61794  -0.60974
 Alpha  occ. eigenvalues --   -0.59863  -0.58636  -0.58432  -0.57603  -0.56689
 Alpha  occ. eigenvalues --   -0.55841  -0.55267  -0.54847  -0.54395  -0.53525
 Alpha  occ. eigenvalues --   -0.52585  -0.51222  -0.51210  -0.49599  -0.48892
 Alpha  occ. eigenvalues --   -0.48636  -0.48163  -0.47893  -0.47443  -0.47176
 Alpha  occ. eigenvalues --   -0.47022  -0.46971  -0.46365  -0.45950  -0.45666
 Alpha  occ. eigenvalues --   -0.45363  -0.45258  -0.44706  -0.44392  -0.43871
 Alpha  occ. eigenvalues --   -0.43473  -0.43197  -0.42999  -0.42591  -0.42286
 Alpha  occ. eigenvalues --   -0.42181  -0.42005  -0.41343  -0.41132  -0.40881
 Alpha  occ. eigenvalues --   -0.40368  -0.40152  -0.40091  -0.39643  -0.39488
 Alpha  occ. eigenvalues --   -0.39204  -0.38757  -0.38734  -0.38629  -0.38407
 Alpha  occ. eigenvalues --   -0.38032  -0.37952  -0.37372  -0.37135  -0.36654
 Alpha  occ. eigenvalues --   -0.35784  -0.35695  -0.34534  -0.34388  -0.34205
 Alpha  occ. eigenvalues --   -0.33660  -0.33480  -0.32360  -0.32148  -0.30891
 Alpha  occ. eigenvalues --   -0.30557  -0.30501  -0.28482  -0.28088  -0.27272
 Alpha  occ. eigenvalues --   -0.27069  -0.26984  -0.25196  -0.24935  -0.24642
 Alpha  occ. eigenvalues --   -0.24548  -0.24051  -0.23393  -0.22363  -0.19024
 Alpha virt. eigenvalues --   -0.11066  -0.07094  -0.06628  -0.01650  -0.01229
 Alpha virt. eigenvalues --    0.00665   0.00854   0.01378   0.02631   0.02780
 Alpha virt. eigenvalues --    0.03059   0.03626   0.04509   0.04841   0.05422

 Mulliken charges:
               1
     1  O   -0.254979
     2  O   -0.257300
     3  O   -0.167333
     4  O   -0.266936
     5  O   -0.233017
     6  O   -0.219136
     7  N   -0.129389
     8  N   -0.135734
     9  N   -0.132248
    10  N   -0.288028
    11  C    0.039180
    12  C    0.243999
    13  C   -0.084690
    14  C   -0.085722
    15  C   -0.094323
    16  C    0.086727
    17  C   -0.127698
    18  C   -0.050210
    19  C   -0.078408
    20  C   -0.123288
    21  C    0.132025
    22  C    0.153348
    23  C   -0.159228
    24  C    0.045554
    25  C    0.081352
    26  C   -0.133572
    27  C    0.109343
    28  C    0.098523
    29  C    0.263057
    30  C    0.073836
    31  C   -0.160515
    32  C    0.054371
    33  C   -0.078130
    34  C    0.121659
    35  C    0.068333
    36  C   -0.074133
    37  C    0.194895
    38  C    0.044564
    39  C   -0.164851
    40  C    0.157346
    41  C    0.000389
    42  C    0.117923
    43  C   -0.042043
    44  H    0.049491
    45  H    0.007628
    46  H   -0.056861
    47  H    0.137559
    48  H    0.081312
    49  H    0.007926
    50  H    0.012148
    51  H    0.021520
    52  H    0.032650
    53  H    0.021814
    54  H    0.044570
    55  H    0.032782
    56  H    0.040723
    57  H    0.007883
    58  H    0.042069
    59  H    0.008615
    60  H    0.229373
    61  H    0.025697
    62  H   -0.028403
    63  H   -0.005944
    64  H    0.095835
    65  H    0.068127
    66  H    0.015422
    67  H    0.050502
    68  H    0.038153
    69  H   -0.043230
    70  H    0.000695
    71  H    0.037818
    72  H    0.186847
    73  H    0.011505
    74  H    0.012092
    75  H    0.014912
    76  H    0.006609
    77  H    0.235624
    78  H    0.010029
    79  H    0.000995
 Sum of Mulliken charges =   0.00000

 Dipole moment (field-independent basis, Debye):
    X=             -0.3926    Y=              1.6781    Z=              3.5054  Tot=              3.9061
 Quadrupole moment (field-independent basis, Debye-Ang):
   XX=           -220.3531   YY=           -235.3961   ZZ=           -263.6126
   XY=            -23.3880   XZ=             37.5342   YZ=              5.5385

 Normal termination of Gaussian 09 at Tue Jul  9 23:17:03 2019.
