 Gaussian 09, Revision D.01,
 Gaussian 09:  ES64L-G09RevD.01 24-Apr-2013

 --------------------------
 # td=(NStates=1) B3LYP/SVP
 --------------------------

 --
 TD
 --
 Symbolic Z-matrix:
 Charge =  0 Multiplicity = 1

                         Standard orientation:
 ---------------------------------------------------------------------
 Center     Atomic      Atomic             Coordinates (Angstroms)
 Number     Number       Type             X           Y           Z
 ---------------------------------------------------------------------
      1          8           0        5.540307   -0.088712   -3.226426
      2          8           0       -3.005104   -2.927044    3.415422
      3          8           0       -3.360042   -0.696114    3.123621
      4          8           0       -2.016087    7.232873    1.367204
      5          8           0       -0.753279    7.023488   -0.413608
      6          8           0       -1.894040   -4.100074   -0.099048
      7          7           0        2.392259    0.886970    0.596923
      8          7           0        4.514136   -0.645923   -1.217855
      9          7           0       -1.872136    0.609069   -0.448954
     10          7           0       -2.553973   -1.900062   -0.626794
     11          6           0        4.799483   -1.258596    0.051364
     12          6           0        4.503743   -0.331412    1.287677
     13          6           0        3.015716   -0.015627    1.358812
     14          6           0        1.914611   -0.675230    2.100438
     15          6           0        0.698580   -0.062266    1.767665
     16          6           0        1.024054    0.984404    0.724941
     17          6           0        6.468459   -1.322590   -0.071313
     18          6           0       -0.660845   -0.208352    2.524232
     19          6           0        6.796212   -0.825600   -1.349044
     20          6           0        0.134652    1.944137    0.145951
     21          6           0       -1.119546    1.805582   -0.335490
     22          6           0        5.497392   -0.480891   -2.141664
     23          6           0       -1.884810    2.905950   -0.883339
     24          6           0        2.134053   -1.697860    3.176487
     25          6           0        7.311852   -1.944279    0.922220
     26          6           0       -3.081045    2.234978   -1.388454
     27          6           0       -1.144039   -1.550340    2.626025
     28          6           0       -3.018949    0.826024   -1.125283
     29          6           0       -1.481634    4.250577   -0.821324
     30          6           0        8.071649   -0.653890   -2.066470
     31          6           0       -1.803238    5.005237    0.450591
     32          6           0       -4.275266    2.922424   -1.950776
     33          6           0       -3.905646   -0.102841   -1.365913
     34          6           0       -2.544088   -1.657591    3.092642
     35          6           0       -3.670141   -1.453860   -1.172916
     36          6           0        9.262631   -0.444495   -1.443798
     37          6           0       -1.497856    6.496278    0.331030
     38          6           0       -4.623911   -2.613146   -1.492746
     39          6           0       -3.994342   -3.719747   -1.141649
     40          6           0       -2.644629   -3.299328   -0.490981
     41          6           0       -5.914365   -2.414562   -2.108087
     42          6           0       -4.333416   -5.194736   -1.226668
     43          6           0       -6.852593   -3.372113   -2.439512
     44          1           0        4.429173   -2.186794    0.130436
     45          1           0        5.047414    0.743606    1.289148
     46          1           0        4.795091   -1.006655    2.262835
     47          1           0        2.923531    1.137092   -0.285605
     48          1           0        3.449075   -0.618612   -1.597217
     49          1           0       -0.569063    0.316832    3.580678
     50          1           0       -1.431490    0.600980    2.187854
     51          1           0        0.655953    2.823743   -0.076456
     52          1           0        3.369596   -1.789244    3.497411
     53          1           0        1.381539   -1.656857    4.063512
     54          1           0        1.908830   -2.695845    2.726800
     55          1           0        6.696702   -2.891937    1.390407
     56          1           0        7.821167   -1.272138    1.751688
     57          1           0        8.093224   -2.447760    0.555001
     58          1           0       -1.131454   -2.028265    1.707861
     59          1           0       -0.540716   -2.178271    3.090721
     60          1           0       -1.518577   -0.378454   -0.341276
     61          1           0       -1.825105    4.661942   -1.634803
     62          1           0       -0.412219    4.557487   -1.041646
     63          1           0        7.921660   -0.669988   -3.212919
     64          1           0       -1.118071    4.569372    1.371218
     65          1           0       -2.916752    4.622231    0.894894
     66          1           0       -3.951483    4.053923   -2.301945
     67          1           0       -5.277743    3.062144   -1.250190
     68          1           0       -4.723970    2.483058   -2.930886
     69          1           0       -4.843012    0.214663   -1.821853
     70          1           0        9.225932   -0.272162   -0.257461
     71          1           0       10.283429   -0.122210   -2.030776
     72          1           0       -4.046798   -3.040699    3.542431
     73          1           0       -6.245360   -1.331209   -2.260937
     74          1           0       -4.581726   -5.494618   -2.309853
     75          1           0       -3.579085   -5.802755   -0.809003
     76          1           0       -5.374310   -5.318547   -0.810329
     77          1           0       -1.890016    8.169234    1.371174
     78          1           0       -7.573217   -2.853540   -2.929063
     79          1           0       -7.004543   -4.622894   -2.240292
 ---------------------------------------------------------------------

 SCF Done:  E(RB3LYP) =  -1947.79227491     A.U. after   17 cycles

 Excitation energies and oscillator strengths:

 Excited State   1:      Singlet-A      2.1799 eV  568.76 nm  f=0.5633  <S**2>=0.000
     155 ->156         0.70203
     155 <-156        -0.11577
 This state for optimization and/or second-order correction.
 Total Energy, E(TD-HF/TD-KS) =  -1947.71216555
 Copying the excited state density for this state as the 1-particle RhoCI density.

 The electronic state is 1-A.
 Alpha  occ. eigenvalues --  -19.16933 -19.16826 -19.13665 -19.11759 -19.10928
 Alpha  occ. eigenvalues --  -19.10859 -14.40019 -14.37561 -14.35364 -14.28796
 Alpha  occ. eigenvalues --  -10.33142 -10.31314 -10.29382 -10.26338 -10.26092
 Alpha  occ. eigenvalues --  -10.24910 -10.24066 -10.23983 -10.23728 -10.23476
 Alpha  occ. eigenvalues --  -10.23030 -10.23013 -10.22890 -10.22384 -10.21847
 Alpha  occ. eigenvalues --  -10.21842 -10.21624 -10.21444 -10.21226 -10.21148
 Alpha  occ. eigenvalues --  -10.21100 -10.20683 -10.20653 -10.20492 -10.20249
 Alpha  occ. eigenvalues --  -10.20048 -10.19997 -10.19712 -10.18781 -10.18672
 Alpha  occ. eigenvalues --  -10.18395 -10.17938 -10.17334  -1.10341  -1.06946
 Alpha  occ. eigenvalues --   -1.04957  -1.04429  -1.01370  -0.99490  -0.97461
 Alpha  occ. eigenvalues --   -0.96067  -0.95165  -0.92053  -0.84164  -0.82157
 Alpha  occ. eigenvalues --   -0.81438  -0.81233  -0.79892  -0.79470  -0.77919
 Alpha  occ. eigenvalues --   -0.77529  -0.77040  -0.75509  -0.74242  -0.72486
 Alpha  occ. eigenvalues --   -0.70750  -0.70292  -0.69296  -0.68852  -0.67930
 Alpha  occ. eigenvalues --   -0.66599  -0.66303  -0.64128  -0.61545  -0.60202
 Alpha  occ. eigenvalues --   -0.59940  -0.58941  -0.58364  -0.57269  -0.57157
 Alpha  occ. eigenvalues --   -0.56579  -0.55380  -0.54612  -0.54178  -0.53403
 Alpha  occ. eigenvalues --   -0.52129  -0.51646  -0.51243  -0.50805  -0.50243
 Alpha  occ. eigenvalues --   -0.48782  -0.48463  -0.48019  -0.47795  -0.47587
 Alpha  occ. eigenvalues --   -0.47407  -0.47069  -0.46082  -0.45457  -0.45187
 Alpha  occ. eigenvalues --   -0.44742  -0.44505  -0.44412  -0.43829  -0.43648
 Alpha  occ. eigenvalues --   -0.43464  -0.43151  -0.43073  -0.42821  -0.42547
 Alpha  occ. eigenvalues --   -0.42241  -0.42165  -0.41599  -0.41251  -0.40909
 Alpha  occ. eigenvalues --   -0.40703  -0.40648  -0.40502  -0.39724  -0.39315
 Alpha  occ. eigenvalues --   -0.39117  -0.38993  -0.38827  -0.38650  -0.38168
 Alpha  occ. eigenvalues --   -0.38012  -0.37635  -0.37476  -0.36830  -0.36602
 Alpha  occ. eigenvalues --   -0.36027  -0.35557  -0.35214  -0.35168  -0.34955
 Alpha  occ. eigenvalues --   -0.33175  -0.32984  -0.32716  -0.31816  -0.31456
 Alpha  occ. eigenvalues --   -0.31286  -0.29827  -0.29236  -0.28971  -0.28489
 Alpha  occ. eigenvalues --   -0.27745  -0.26821  -0.26035  -0.25226  -0.24798
 Alpha  occ. eigenvalues --   -0.23951  -0.23710  -0.23538  -0.22005  -0.18605
 Alpha virt. eigenvalues --   -0.10246  -0.06047  -0.05759  -0.01231  -0.00633
 Alpha virt. eigenvalues --    0.00238   0.00363   0.00924   0.01290   0.02609
 Alpha virt. eigenvalues --    0.03228   0.03616   0.03883   0.04073   0.04672

 Mulliken charges:
               1
     1  O   -0.139904
     2  O   -0.266169
     3  O   -0.274287
     4  O   -0.206876
     5  O   -0.181094
     6  O   -0.148649
     7  N   -0.035147
     8  N   -0.257370
     9  N   -0.091244
    10  N   -0.299377
    11  C    0.166070
    12  C    0.089003
    13  C   -0.116085
    14  C   -0.121516
    15  C   -0.075315
    16  C    0.013859
    17  C   -0.171480
    18  C    0.011433
    19  C   -0.095564
    20  C   -0.093289
    21  C    0.137920
    22  C    0.137672
    23  C   -0.032118
    24  C   -0.000573
    25  C    0.064901
    26  C   -0.095375
    27  C    0.204083
    28  C    0.178774
    29  C    0.144840
    30  C   -0.002625
    31  C   -0.117144
    32  C   -0.052988
    33  C   -0.152007
    34  C    0.146998
    35  C    0.090338
    36  C   -0.107125
    37  C    0.160907
    38  C    0.098610
    39  C   -0.255515
    40  C    0.142285
    41  C   -0.089653
    42  C    0.103965
    43  C   -0.034263
    44  H   -0.009486
    45  H    0.046450
    46  H    0.042015
    47  H    0.134228
    48  H    0.162324
    49  H    0.017731
    50  H    0.038587
    51  H   -0.036591
    52  H    0.031450
    53  H    0.050536
    54  H    0.037277
    55  H    0.027747
    56  H    0.058014
    57  H   -0.007798
    58  H    0.011017
    59  H   -0.053685
    60  H    0.162376
    61  H   -0.049970
    62  H    0.018016
    63  H    0.045452
    64  H    0.075192
    65  H    0.074131
    66  H    0.032343
    67  H    0.057592
    68  H    0.039578
    69  H   -0.042132
    70  H    0.044346
    71  H    0.062755
    72  H    0.232080
    73  H    0.016747
    74  H    0.024746
    75  H    0.022528
    76  H    0.020668
    77  H    0.172734
    78  H   -0.006259
    79  H    0.068353
 Sum of Mulliken charges =   0.00000

 Dipole moment (field-independent basis, Debye):
    X=              1.4278    Y=              1.5482    Z=              2.1723  Tot=              3.0256
 Quadrupole moment (field-independent basis, Debye-Ang):
   XX=           -226.1619   YY=           -245.6400   ZZ=           -263.9166
   XY=             -9.7607   XZ=             26.0892   YZ=              0.7162

 Normal termination of Gaussian 09 at Tue Jul  9 01:30:50 2019.
