 Gaussian 09, Revision D.01,
 Gaussian 09:  ES64L-G09RevD.01 24-Apr-2013

 --------------------------
 # td=(NStates=1) B3LYP/SVP
 --------------------------

 --
 TD
 --
 Symbolic Z-matrix:
 Charge =  0 Multiplicity = 1

                         Standard orientation:
 ---------------------------------------------------------------------
 Center     Atomic      Atomic             Coordinates (Angstroms)
 Number     Number       Type             X           Y           Z
 ---------------------------------------------------------------------
      1          8           0        5.483381   -0.231883   -3.429241
      2          8           0       -2.838756   -3.154132    3.412452
      3          8           0       -3.394882   -0.963350    3.143063
      4          8           0       -0.910824    7.140790    1.727306
      5          8           0       -0.346415    6.987107   -0.514729
      6          8           0       -2.312926   -4.001951   -0.223981
      7          7           0        2.381641    0.705577    0.654802
      8          7           0        4.502324   -0.629116   -1.379157
      9          7           0       -1.781067    0.662325   -0.373634
     10          7           0       -2.879647   -1.763113   -0.483363
     11          6           0        4.819284   -1.397171   -0.188181
     12          6           0        4.338319   -0.719429    1.203182
     13          6           0        2.945999   -0.355937    1.416728
     14          6           0        1.929609   -0.826356    2.133313
     15          6           0        0.653708   -0.203374    1.772796
     16          6           0        1.064818    0.846630    0.891022
     17          6           0        6.354678   -1.409236   -0.226101
     18          6           0       -0.598644   -0.346246    2.550623
     19          6           0        6.761244   -1.020650   -1.468150
     20          6           0        0.251504    1.873997    0.296404
     21          6           0       -1.007751    1.899906   -0.272236
     22          6           0        5.591221   -0.455967   -2.176804
     23          6           0       -1.674113    2.930431   -0.785962
     24          6           0        2.036105   -1.967717    3.055207
     25          6           0        7.042639   -2.070856    0.862953
     26          6           0       -2.942501    2.443475   -1.119668
     27          6           0       -1.135563   -1.792373    2.496724
     28          6           0       -3.024149    1.066608   -0.936492
     29          6           0       -1.140427    4.409879   -0.754031
     30          6           0        8.121789   -0.887927   -2.035471
     31          6           0       -1.493949    5.106859    0.551073
     32          6           0       -4.136548    3.272282   -1.646268
     33          6           0       -4.044164    0.211166   -1.265975
     34          6           0       -2.568538   -1.873013    3.074929
     35          6           0       -3.915102   -1.176734   -1.123908
     36          6           0        9.280679   -0.902512   -1.465490
     37          6           0       -0.917694    6.533729    0.459679
     38          6           0       -5.003660   -2.261091   -1.599345
     39          6           0       -4.470933   -3.412688   -1.205067
     40          6           0       -3.055924   -3.178519   -0.647521
     41          6           0       -6.166123   -1.824633   -2.236041
     42          6           0       -4.889135   -4.811394   -1.494337
     43          6           0       -7.157531   -2.736620   -2.659134
     44          1           0        4.437389   -2.501454   -0.130662
     45          1           0        5.161749    0.242159    1.475640
     46          1           0        4.768508   -1.527235    1.908268
     47          1           0        3.073630    1.556279    0.207363
     48          1           0        3.666964   -0.284771   -1.685852
     49          1           0       -0.511444   -0.123147    3.661511
     50          1           0       -1.372327    0.283311    2.325515
     51          1           0        0.660038    2.835676    0.302196
     52          1           0        3.130957   -2.253651    3.423525
     53          1           0        1.451233   -1.914452    4.018964
     54          1           0        1.614940   -2.938772    2.640084
     55          1           0        6.568476   -2.934555    1.306865
     56          1           0        7.568540   -1.535276    1.644825
     57          1           0        7.873981   -2.639158    0.557362
     58          1           0       -1.086916   -2.434993    1.420906
     59          1           0       -0.544941   -2.569752    3.114810
     60          1           0       -1.576345   -0.328972   -0.218529
     61          1           0       -1.665248    4.947007   -1.599529
     62          1           0       -0.158459    4.577467   -1.012090
     63          1           0        7.928119   -0.559843   -2.940517
     64          1           0       -1.191097    4.720031    1.554482
     65          1           0       -2.619377    5.188479    0.636048
     66          1           0       -3.632383    4.272787   -2.208341
     67          1           0       -5.035329    3.371642   -0.850736
     68          1           0       -4.781792    2.657794   -2.463192
     69          1           0       -4.989897    0.677753   -1.679367
     70          1           0        9.542725   -0.996281   -0.374194
     71          1           0       10.029379   -1.045193   -2.320304
     72          1           0       -3.760065   -3.141903    3.616995
     73          1           0       -6.185017   -0.528749   -2.575901
     74          1           0       -4.842228   -5.083778   -2.366241
     75          1           0       -4.313915   -5.496486   -0.944529
     76          1           0       -5.953277   -4.888113   -1.110919
     77          1           0       -0.412721    7.950370    1.663644
     78          1           0       -7.975356   -2.414290   -3.078979
     79          1           0       -6.962753   -3.969407   -2.519317
 ---------------------------------------------------------------------

 SCF Done:  E(RB3LYP) =  -1947.78216688     A.U. after   16 cycles

 Excitation energies and oscillator strengths:

 Excited State   1:      Singlet-A      2.1464 eV  577.64 nm  f=0.4812  <S**2>=0.000
     153 ->156        -0.10191
     155 ->156         0.69292
     155 <-156        -0.11006
 This state for optimization and/or second-order correction.
 Total Energy, E(TD-HF/TD-KS) =  -1947.70328847
 Copying the excited state density for this state as the 1-particle RhoCI density.

 The electronic state is 1-A.
 Alpha  occ. eigenvalues --  -19.18818 -19.16959 -19.14816 -19.11467 -19.11034
 Alpha  occ. eigenvalues --  -19.09526 -14.39149 -14.35357 -14.35311 -14.29296
 Alpha  occ. eigenvalues --  -10.33757 -10.30756 -10.28381 -10.26672 -10.26401
 Alpha  occ. eigenvalues --  -10.23947 -10.23932 -10.23851 -10.23755 -10.23684
 Alpha  occ. eigenvalues --  -10.23455 -10.22699 -10.22598 -10.22546 -10.22430
 Alpha  occ. eigenvalues --  -10.21822 -10.21664 -10.21386 -10.21350 -10.20687
 Alpha  occ. eigenvalues --  -10.20388 -10.20167 -10.20145 -10.20096 -10.19971
 Alpha  occ. eigenvalues --  -10.19828 -10.19549 -10.19126 -10.19100 -10.18988
 Alpha  occ. eigenvalues --  -10.18840 -10.18612 -10.16666  -1.09324  -1.08488
 Alpha  occ. eigenvalues --   -1.03267  -1.01796  -1.00665  -0.98694  -0.98088
 Alpha  occ. eigenvalues --   -0.96303  -0.93249  -0.90525  -0.83263  -0.83136
 Alpha  occ. eigenvalues --   -0.81558  -0.80853  -0.80690  -0.79527  -0.78481
 Alpha  occ. eigenvalues --   -0.78235  -0.76057  -0.75395  -0.74716  -0.73409
 Alpha  occ. eigenvalues --   -0.72124  -0.70311  -0.69778  -0.68861  -0.68433
 Alpha  occ. eigenvalues --   -0.66578  -0.66062  -0.64058  -0.61811  -0.61198
 Alpha  occ. eigenvalues --   -0.59973  -0.59799  -0.58839  -0.57634  -0.56750
 Alpha  occ. eigenvalues --   -0.55886  -0.55522  -0.54631  -0.54289  -0.52967
 Alpha  occ. eigenvalues --   -0.52006  -0.51342  -0.50785  -0.50561  -0.49804
 Alpha  occ. eigenvalues --   -0.49204  -0.48696  -0.48186  -0.47869  -0.47213
 Alpha  occ. eigenvalues --   -0.47041  -0.46962  -0.46207  -0.45794  -0.45554
 Alpha  occ. eigenvalues --   -0.45103  -0.44993  -0.44585  -0.44117  -0.44030
 Alpha  occ. eigenvalues --   -0.43429  -0.42958  -0.42768  -0.42527  -0.42355
 Alpha  occ. eigenvalues --   -0.42131  -0.41987  -0.41558  -0.41456  -0.41046
 Alpha  occ. eigenvalues --   -0.40955  -0.40623  -0.40345  -0.39767  -0.39667
 Alpha  occ. eigenvalues --   -0.39363  -0.39190  -0.39056  -0.38828  -0.38179
 Alpha  occ. eigenvalues --   -0.37926  -0.37672  -0.37167  -0.36614  -0.36595
 Alpha  occ. eigenvalues --   -0.36152  -0.35656  -0.35379  -0.35133  -0.34950
 Alpha  occ. eigenvalues --   -0.34309  -0.34059  -0.33713  -0.31877  -0.31518
 Alpha  occ. eigenvalues --   -0.30902  -0.30852  -0.29919  -0.28576  -0.27638
 Alpha  occ. eigenvalues --   -0.26816  -0.26252  -0.25799  -0.24972  -0.24807
 Alpha  occ. eigenvalues --   -0.24236  -0.24108  -0.23648  -0.22335  -0.19455
 Alpha virt. eigenvalues --   -0.11046  -0.06820  -0.06582  -0.02032  -0.01566
 Alpha virt. eigenvalues --   -0.00450   0.00279   0.00903   0.01735   0.02330
 Alpha virt. eigenvalues --    0.02829   0.03505   0.03874   0.04903   0.05220

 Mulliken charges:
               1
     1  O   -0.293553
     2  O   -0.152751
     3  O   -0.251691
     4  O   -0.213206
     5  O   -0.221195
     6  O   -0.164980
     7  N   -0.164586
     8  N   -0.114675
     9  N   -0.165572
    10  N   -0.300420
    11  C    0.090585
    12  C   -0.018391
    13  C    0.054172
    14  C   -0.089380
    15  C   -0.065611
    16  C    0.100635
    17  C   -0.154447
    18  C    0.151132
    19  C   -0.069996
    20  C   -0.061436
    21  C    0.100207
    22  C    0.146327
    23  C   -0.049626
    24  C    0.007600
    25  C    0.112214
    26  C   -0.123034
    27  C   -0.145706
    28  C    0.180698
    29  C    0.140175
    30  C    0.095660
    31  C   -0.025023
    32  C   -0.037917
    33  C   -0.148371
    34  C    0.151704
    35  C    0.080534
    36  C   -0.032121
    37  C    0.164009
    38  C    0.107946
    39  C   -0.260121
    40  C    0.165358
    41  C   -0.114984
    42  C    0.212309
    43  C   -0.009775
    44  H    0.056849
    45  H    0.024595
    46  H    0.014942
    47  H    0.179571
    48  H    0.091771
    49  H    0.012805
    50  H   -0.018440
    51  H   -0.048640
    52  H    0.015653
    53  H    0.021011
    54  H    0.040472
    55  H    0.011414
    56  H    0.028674
    57  H   -0.012340
    58  H    0.109672
    59  H    0.027785
    60  H    0.147535
    61  H    0.015814
    62  H   -0.003222
    63  H   -0.049721
    64  H    0.055889
    65  H    0.051263
    66  H    0.061344
    67  H    0.060949
    68  H    0.041059
    69  H   -0.020504
    70  H    0.030291
    71  H    0.043975
    72  H    0.156091
    73  H    0.054467
    74  H   -0.041927
    75  H   -0.005233
    76  H    0.021592
    77  H    0.172969
    78  H   -0.023758
    79  H    0.062640
 Sum of Mulliken charges =   0.00000

 Dipole moment (field-independent basis, Debye):
    X=              1.0106    Y=              2.4758    Z=              3.8272  Tot=              4.6689
 Quadrupole moment (field-independent basis, Debye-Ang):
   XX=           -223.2776   YY=           -239.9947   ZZ=           -268.1154
   XY=             -9.8336   XZ=             38.4953   YZ=              3.4206

 Normal termination of Gaussian 09 at Wed Jul 10 05:08:44 2019.
