 Gaussian 09, Revision D.01,
 Gaussian 09:  ES64L-G09RevD.01 24-Apr-2013

 --------------------------
 # td=(NStates=1) B3LYP/SVP
 --------------------------

 --
 TD
 --
 Symbolic Z-matrix:
 Charge =  0 Multiplicity = 1

                         Standard orientation:
 ---------------------------------------------------------------------
 Center     Atomic      Atomic             Coordinates (Angstroms)
 Number     Number       Type             X           Y           Z
 ---------------------------------------------------------------------
      1          8           0        5.261451   -0.458925   -3.442376
      2          8           0       -2.895060   -2.940493    3.436077
      3          8           0       -3.298548   -0.823024    3.239043
      4          8           0       -1.659987    7.314971    1.303249
      5          8           0       -0.298896    6.805592   -0.423076
      6          8           0       -1.956276   -3.994069    0.147609
      7          7           0        2.390225    0.853683    0.495877
      8          7           0        4.398790   -0.688357   -1.310227
      9          7           0       -1.902445    0.738919   -0.359475
     10          7           0       -2.723950   -1.888500   -0.464605
     11          6           0        4.831279   -1.226108    0.032100
     12          6           0        4.474157   -0.298987    1.234643
     13          6           0        3.000415   -0.107176    1.262083
     14          6           0        2.053655   -0.676070    2.111798
     15          6           0        0.739554    0.024554    1.863839
     16          6           0        0.987106    0.992801    0.834744
     17          6           0        6.272036   -1.263769   -0.128446
     18          6           0       -0.551111   -0.195047    2.598803
     19          6           0        6.593784   -0.881762   -1.480774
     20          6           0        0.174689    1.958338    0.187017
     21          6           0       -1.106162    1.888864   -0.281362
     22          6           0        5.408413   -0.634529   -2.232207
     23          6           0       -1.960068    2.965152   -0.853693
     24          6           0        2.360933   -1.651105    3.280353
     25          6           0        7.269080   -1.857353    0.853189
     26          6           0       -3.209683    2.369069   -1.317338
     27          6           0       -1.030095   -1.683077    2.655862
     28          6           0       -3.099480    0.931372   -0.968172
     29          6           0       -1.564293    4.324616   -0.948594
     30          6           0        7.862247   -0.869913   -2.180090
     31          6           0       -1.728823    5.115022    0.448209
     32          6           0       -4.455610    3.019236   -1.910178
     33          6           0       -4.009744   -0.048363   -1.344405
     34          6           0       -2.468410   -1.712954    3.175315
     35          6           0       -3.731387   -1.505179   -1.173624
     36          6           0        9.053476   -0.636386   -1.549539
     37          6           0       -1.156571    6.469571    0.326308
     38          6           0       -4.651833   -2.560226   -1.531885
     39          6           0       -3.984399   -3.667577   -1.174690
     40          6           0       -2.732479   -3.300516   -0.375070
     41          6           0       -5.928026   -2.332527   -2.165580
     42          6           0       -4.427946   -5.190034   -1.242863
     43          6           0       -6.771329   -3.278207   -2.683711
     44          1           0        4.421753   -2.151860    0.195621
     45          1           0        5.046804    0.633413    1.029272
     46          1           0        4.753901   -0.663388    2.216453
     47          1           0        2.928909    1.418847   -0.000276
     48          1           0        3.465781   -0.558149   -1.683425
     49          1           0       -0.406221    0.025924    3.692857
     50          1           0       -1.369069    0.394120    2.075479
     51          1           0        0.650343    3.044004    0.120317
     52          1           0        3.622624   -1.647526    3.320916
     53          1           0        1.774928   -1.447146    4.251609
     54          1           0        2.166140   -2.551763    3.163770
     55          1           0        6.824271   -2.604625    1.603538
     56          1           0        7.721363   -1.169725    1.554339
     57          1           0        8.226894   -2.382632    0.392239
     58          1           0       -0.910579   -2.135017    1.673976
     59          1           0       -0.478209   -2.391701    3.427408
     60          1           0       -1.401595   -0.157457   -0.150070
     61          1           0       -2.113028    5.065073   -1.796943
     62          1           0       -0.505751    4.494243   -1.217660
     63          1           0        7.896419   -0.910343   -3.205119
     64          1           0       -1.261010    4.470159    1.179137
     65          1           0       -2.767178    5.330057    0.693922
     66          1           0       -4.343044    4.003363   -2.189737
     67          1           0       -5.194428    3.004336   -0.885043
     68          1           0       -4.924362    2.419102   -2.643027
     69          1           0       -4.883744    0.176871   -2.012640
     70          1           0        8.961992   -0.303245   -0.507204
     71          1           0        9.910618   -0.285389   -2.112877
     72          1           0       -3.842136   -2.973647    3.785972
     73          1           0       -6.288345   -1.410063   -2.169112
     74          1           0       -4.610068   -5.364109   -2.395927
     75          1           0       -3.564350   -5.922785   -1.110726
     76          1           0       -5.318209   -5.278371   -0.369836
     77          1           0       -1.364239    8.112224    1.280807
     78          1           0       -7.777060   -3.068551   -3.067740
     79          1           0       -6.490160   -4.447267   -2.687713
 ---------------------------------------------------------------------

 SCF Done:  E(RB3LYP) =  -1947.85679990     A.U. after   16 cycles

 Excitation energies and oscillator strengths:

 Excited State   1:      Singlet-A      2.1231 eV  583.98 nm  f=0.4186  <S**2>=0.000
     155 ->156         0.69555
 This state for optimization and/or second-order correction.
 Total Energy, E(TD-HF/TD-KS) =  -1947.77877736
 Copying the excited state density for this state as the 1-particle RhoCI density.

 The electronic state is 1-A.
 Alpha  occ. eigenvalues --  -19.17080 -19.16442 -19.13801 -19.12103 -19.10450
 Alpha  occ. eigenvalues --  -19.09236 -14.37229 -14.36831 -14.35050 -14.28290
 Alpha  occ. eigenvalues --  -10.32766 -10.30413 -10.27407 -10.26976 -10.25201
 Alpha  occ. eigenvalues --  -10.25093 -10.24648 -10.23612 -10.23194 -10.23062
 Alpha  occ. eigenvalues --  -10.22871 -10.22409 -10.22280 -10.22150 -10.22089
 Alpha  occ. eigenvalues --  -10.22000 -10.21875 -10.21552 -10.21440 -10.21245
 Alpha  occ. eigenvalues --  -10.20717 -10.20404 -10.20352 -10.20294 -10.20163
 Alpha  occ. eigenvalues --  -10.20006 -10.19824 -10.19795 -10.19753 -10.19598
 Alpha  occ. eigenvalues --  -10.19584 -10.19524 -10.19210  -1.10906  -1.08326
 Alpha  occ. eigenvalues --   -1.05298  -1.03018  -1.01548  -0.97776  -0.97549
 Alpha  occ. eigenvalues --   -0.97270  -0.93565  -0.93441  -0.82588  -0.81970
 Alpha  occ. eigenvalues --   -0.81628  -0.80574  -0.80466  -0.79880  -0.77967
 Alpha  occ. eigenvalues --   -0.76995  -0.76036  -0.75046  -0.74082  -0.72743
 Alpha  occ. eigenvalues --   -0.71606  -0.71411  -0.69779  -0.69021  -0.68596
 Alpha  occ. eigenvalues --   -0.67277  -0.66500  -0.63875  -0.61947  -0.60756
 Alpha  occ. eigenvalues --   -0.60298  -0.59306  -0.58665  -0.57941  -0.57195
 Alpha  occ. eigenvalues --   -0.56480  -0.55405  -0.54790  -0.54294  -0.53665
 Alpha  occ. eigenvalues --   -0.52428  -0.52200  -0.51633  -0.51037  -0.49850
 Alpha  occ. eigenvalues --   -0.49041  -0.48611  -0.48247  -0.48114  -0.47683
 Alpha  occ. eigenvalues --   -0.47488  -0.46617  -0.46390  -0.45832  -0.45390
 Alpha  occ. eigenvalues --   -0.44922  -0.44823  -0.44371  -0.43967  -0.43659
 Alpha  occ. eigenvalues --   -0.43125  -0.43054  -0.42676  -0.42463  -0.42208
 Alpha  occ. eigenvalues --   -0.41667  -0.41645  -0.41534  -0.41090  -0.41020
 Alpha  occ. eigenvalues --   -0.40702  -0.40538  -0.40506  -0.40175  -0.39818
 Alpha  occ. eigenvalues --   -0.39793  -0.39418  -0.39007  -0.38734  -0.38615
 Alpha  occ. eigenvalues --   -0.38344  -0.38172  -0.38073  -0.37256  -0.37190
 Alpha  occ. eigenvalues --   -0.36340  -0.35949  -0.35484  -0.35275  -0.34757
 Alpha  occ. eigenvalues --   -0.34179  -0.33734  -0.33547  -0.33106  -0.31122
 Alpha  occ. eigenvalues --   -0.30985  -0.30206  -0.29341  -0.29083  -0.28366
 Alpha  occ. eigenvalues --   -0.26307  -0.26108  -0.25126  -0.24819  -0.24308
 Alpha  occ. eigenvalues --   -0.23732  -0.23553  -0.23265  -0.22484  -0.19249
 Alpha virt. eigenvalues --   -0.10735  -0.06972  -0.06561  -0.01099  -0.00874
 Alpha virt. eigenvalues --    0.00364   0.00656   0.01527   0.02674   0.02771
 Alpha virt. eigenvalues --    0.03564   0.04844   0.04947   0.05131   0.05723

 Mulliken charges:
               1
     1  O   -0.240407
     2  O   -0.190795
     3  O   -0.247885
     4  O   -0.146057
     5  O   -0.189722
     6  O   -0.122173
     7  N   -0.045993
     8  N   -0.222620
     9  N   -0.087141
    10  N   -0.245703
    11  C    0.194879
    12  C    0.184420
    13  C   -0.101424
    14  C   -0.128458
    15  C   -0.098437
    16  C    0.073992
    17  C   -0.142836
    18  C    0.062741
    19  C   -0.036108
    20  C   -0.113738
    21  C    0.075036
    22  C    0.129645
    23  C   -0.017069
    24  C    0.141982
    25  C    0.025744
    26  C   -0.148360
    27  C   -0.050570
    28  C    0.170365
    29  C   -0.058971
    30  C    0.000161
    31  C    0.020791
    32  C    0.124729
    33  C   -0.131720
    34  C    0.130585
    35  C    0.016588
    36  C   -0.029015
    37  C    0.120780
    38  C    0.087663
    39  C   -0.247776
    40  C    0.145149
    41  C    0.030550
    42  C   -0.002208
    43  C   -0.062664
    44  H   -0.002325
    45  H   -0.003218
    46  H    0.005696
    47  H    0.057991
    48  H    0.122367
    49  H    0.016697
    50  H    0.045332
    51  H    0.027394
    52  H    0.004059
    53  H    0.027443
    54  H   -0.046823
    55  H    0.020157
    56  H    0.027352
    57  H    0.060035
    58  H    0.067812
    59  H    0.036885
    60  H    0.162943
    61  H    0.037918
    62  H    0.034821
    63  H   -0.015497
    64  H    0.051643
    65  H    0.031758
    66  H   -0.000067
    67  H    0.055762
    68  H    0.024326
    69  H   -0.004516
    70  H    0.017569
    71  H    0.028014
    72  H    0.199891
    73  H   -0.063962
    74  H    0.047124
    75  H    0.036655
    76  H    0.076267
    77  H    0.111677
    78  H    0.027400
    79  H    0.045468
 Sum of Mulliken charges =   0.00000

 Dipole moment (field-independent basis, Debye):
    X=             -0.5987    Y=              2.0897    Z=              3.3058  Tot=              3.9565
 Quadrupole moment (field-independent basis, Debye-Ang):
   XX=           -221.9704   YY=           -241.3475   ZZ=           -263.0283
   XY=             -6.0068   XZ=             35.3444   YZ=             -2.0767

 Normal termination of Gaussian 09 at Wed Jul 10 07:59:11 2019.
