 Gaussian 09, Revision D.01,
 Gaussian 09:  ES64L-G09RevD.01 24-Apr-2013

 --------------------------
 # td=(NStates=1) B3LYP/SVP
 --------------------------

 --
 TD
 --
 Symbolic Z-matrix:
 Charge =  0 Multiplicity = 1

                         Standard orientation:
 ---------------------------------------------------------------------
 Center     Atomic      Atomic             Coordinates (Angstroms)
 Number     Number       Type             X           Y           Z
 ---------------------------------------------------------------------
      1          8           0        5.434581   -0.174639   -3.429691
      2          8           0       -2.752969   -2.992196    3.434370
      3          8           0       -3.314053   -0.875556    2.955864
      4          8           0       -1.823326    7.375668    1.265647
      5          8           0       -0.490152    6.968755   -0.543120
      6          8           0       -1.834468   -4.164809    0.124565
      7          7           0        2.330037    1.031603    0.601091
      8          7           0        4.413765   -0.642885   -1.316913
      9          7           0       -1.809653    0.588387   -0.493383
     10          7           0       -2.595264   -2.022762   -0.505493
     11          6           0        4.701811   -1.103879    0.072914
     12          6           0        4.453812   -0.072052    1.114792
     13          6           0        2.942482    0.189491    1.374984
     14          6           0        2.060481   -0.463205    2.198599
     15          6           0        0.655167    0.050266    1.841268
     16          6           0        1.013613    1.043149    0.860893
     17          6           0        6.220691   -1.260177   -0.114268
     18          6           0       -0.515752   -0.189820    2.625255
     19          6           0        6.662518   -0.920028   -1.380792
     20          6           0        0.130717    2.097130    0.277298
     21          6           0       -1.173289    1.889271   -0.130754
     22          6           0        5.389582   -0.459866   -2.232559
     23          6           0       -2.010107    2.932605   -0.755467
     24          6           0        2.354471   -1.539497    3.194524
     25          6           0        7.060489   -1.827569    1.028674
     26          6           0       -3.179066    2.311019   -1.289780
     27          6           0       -0.995476   -1.639990    2.695322
     28          6           0       -3.065756    0.817078   -1.106976
     29          6           0       -1.592283    4.317442   -0.964439
     30          6           0        7.928334   -0.894334   -2.099284
     31          6           0       -2.020247    5.164684    0.297312
     32          6           0       -4.356214    2.869305   -1.889326
     33          6           0       -3.957896   -0.202655   -1.378809
     34          6           0       -2.415538   -1.738933    3.074606
     35          6           0       -3.720565   -1.512980   -1.055328
     36          6           0        9.250050   -1.101870   -1.653751
     37          6           0       -1.342210    6.582610    0.331206
     38          6           0       -4.653614   -2.640988   -1.398594
     39          6           0       -3.976833   -3.821129   -1.074144
     40          6           0       -2.698392   -3.360933   -0.361209
     41          6           0       -5.939888   -2.536132   -2.099937
     42          6           0       -4.308189   -5.265945   -1.096205
     43          6           0       -6.611790   -3.450244   -2.811790
     44          1           0        4.195160   -2.062202    0.286736
     45          1           0        4.852097    1.081269    1.101895
     46          1           0        4.794012   -0.564042    2.192020
     47          1           0        2.866990    1.389484   -0.274862
     48          1           0        3.415834   -0.336641   -1.428364
     49          1           0       -0.369938    0.150992    3.677308
     50          1           0       -1.375705    0.390045    2.332666
     51          1           0        0.450249    3.131678    0.095680
     52          1           0        3.421432   -1.718268    3.403419
     53          1           0        1.969386   -0.932827    4.151370
     54          1           0        1.713359   -2.254278    2.820434
     55          1           0        6.518687   -2.510691    1.627655
     56          1           0        7.611876   -1.073781    1.625872
     57          1           0        7.967480   -2.487994    0.532219
     58          1           0       -0.971125   -2.130238    1.856945
     59          1           0       -0.456677   -2.411194    3.293754
     60          1           0       -1.356185   -0.248985   -0.108052
     61          1           0       -1.973097    4.671259   -1.768247
     62          1           0       -0.457289    4.370240   -0.959948
     63          1           0        7.980730   -0.516309   -3.257532
     64          1           0       -1.541214    4.649690    1.048880
     65          1           0       -3.074812    5.535860    0.356268
     66          1           0       -4.232494    3.941061   -2.138951
     67          1           0       -5.256205    2.759193   -1.328156
     68          1           0       -4.576538    2.337021   -2.766592
     69          1           0       -4.976012    0.041394   -1.644481
     70          1           0        9.529216   -1.006803   -0.611117
     71          1           0       10.058069   -1.062743   -2.357300
     72          1           0       -3.564751   -3.055292    3.847751
     73          1           0       -6.181300   -1.560867   -2.094403
     74          1           0       -4.545756   -5.652330   -2.072209
     75          1           0       -3.718285   -5.783349   -0.345001
     76          1           0       -5.314610   -5.297038   -0.702789
     77          1           0       -1.468503    8.343841    0.985913
     78          1           0       -7.658712   -3.143906   -3.643119
     79          1           0       -6.151126   -4.332390   -2.759273
 ---------------------------------------------------------------------

 SCF Done:  E(RB3LYP) =  -1947.80140358     A.U. after   19 cycles

 Excitation energies and oscillator strengths:

 Excited State   1:      Singlet-A      2.0439 eV  606.60 nm  f=0.0883  <S**2>=0.000
     153 ->156        -0.18579
     154 ->156         0.49619
     155 ->156         0.45781
 This state for optimization and/or second-order correction.
 Total Energy, E(TD-HF/TD-KS) =  -1947.72629136
 Copying the excited state density for this state as the 1-particle RhoCI density.

 The electronic state is 1-A.
 Alpha  occ. eigenvalues --  -19.21421 -19.16433 -19.13147 -19.11044 -19.10924
 Alpha  occ. eigenvalues --  -19.09472 -14.39586 -14.37233 -14.37145 -14.28131
 Alpha  occ. eigenvalues --  -10.33473 -10.31098 -10.29680 -10.26556 -10.26319
 Alpha  occ. eigenvalues --  -10.25527 -10.25067 -10.24686 -10.24286 -10.23343
 Alpha  occ. eigenvalues --  -10.23045 -10.22500 -10.22421 -10.22329 -10.22224
 Alpha  occ. eigenvalues --  -10.22070 -10.21531 -10.21421 -10.20885 -10.20829
 Alpha  occ. eigenvalues --  -10.20757 -10.20253 -10.19959 -10.19803 -10.19745
 Alpha  occ. eigenvalues --  -10.19710 -10.19431 -10.19295 -10.19185 -10.19122
 Alpha  occ. eigenvalues --  -10.18746 -10.18502 -10.17729  -1.10778  -1.08542
 Alpha  occ. eigenvalues --   -1.01977  -1.01511  -0.98479  -0.97909  -0.97685
 Alpha  occ. eigenvalues --   -0.94997  -0.94745  -0.90878  -0.83790  -0.82719
 Alpha  occ. eigenvalues --   -0.81831  -0.81094  -0.79988  -0.79810  -0.78499
 Alpha  occ. eigenvalues --   -0.78228  -0.77244  -0.75251  -0.74506  -0.73638
 Alpha  occ. eigenvalues --   -0.72515  -0.70453  -0.70024  -0.69358  -0.69248
 Alpha  occ. eigenvalues --   -0.68979  -0.66042  -0.64227  -0.61782  -0.61373
 Alpha  occ. eigenvalues --   -0.60680  -0.60006  -0.58919  -0.57882  -0.57305
 Alpha  occ. eigenvalues --   -0.56884  -0.55686  -0.55288  -0.53949  -0.52959
 Alpha  occ. eigenvalues --   -0.52412  -0.52232  -0.51966  -0.50924  -0.50196
 Alpha  occ. eigenvalues --   -0.49621  -0.49067  -0.48844  -0.48325  -0.47548
 Alpha  occ. eigenvalues --   -0.47313  -0.47087  -0.46603  -0.46571  -0.46048
 Alpha  occ. eigenvalues --   -0.45384  -0.45036  -0.44645  -0.44526  -0.43853
 Alpha  occ. eigenvalues --   -0.43410  -0.43115  -0.43056  -0.42783  -0.42638
 Alpha  occ. eigenvalues --   -0.42477  -0.42035  -0.41938  -0.41620  -0.41413
 Alpha  occ. eigenvalues --   -0.41227  -0.40755  -0.40630  -0.40609  -0.40000
 Alpha  occ. eigenvalues --   -0.39856  -0.39141  -0.38847  -0.38781  -0.38332
 Alpha  occ. eigenvalues --   -0.37976  -0.37702  -0.37422  -0.37341  -0.37080
 Alpha  occ. eigenvalues --   -0.36729  -0.36537  -0.35872  -0.35411  -0.34426
 Alpha  occ. eigenvalues --   -0.33766  -0.33335  -0.32908  -0.32457  -0.31050
 Alpha  occ. eigenvalues --   -0.30623  -0.30513  -0.28334  -0.28155  -0.27669
 Alpha  occ. eigenvalues --   -0.26517  -0.25746  -0.25647  -0.25421  -0.24465
 Alpha  occ. eigenvalues --   -0.23602  -0.23136  -0.23029  -0.21313  -0.19957
 Alpha virt. eigenvalues --   -0.11184  -0.06454  -0.06344  -0.01820  -0.00840
 Alpha virt. eigenvalues --    0.00074   0.00626   0.01017   0.01408   0.01805
 Alpha virt. eigenvalues --    0.02205   0.03525   0.03663   0.04315   0.04492

 Mulliken charges:
               1
     1  O   -0.226657
     2  O   -0.143944
     3  O   -0.269289
     4  O   -0.190678
     5  O   -0.302550
     6  O   -0.274828
     7  N   -0.008209
     8  N   -0.225420
     9  N   -0.170502
    10  N   -0.234955
    11  C    0.184094
    12  C    0.017684
    13  C   -0.129560
    14  C   -0.208169
    15  C   -0.067698
    16  C    0.014455
    17  C   -0.185317
    18  C    0.104377
    19  C   -0.022839
    20  C   -0.077311
    21  C    0.107922
    22  C    0.187111
    23  C   -0.113173
    24  C    0.108657
    25  C    0.045871
    26  C   -0.131458
    27  C    0.111389
    28  C    0.178756
    29  C    0.176787
    30  C   -0.089327
    31  C    0.045924
    32  C    0.154544
    33  C   -0.133561
    34  C    0.101131
    35  C    0.133499
    36  C   -0.035921
    37  C    0.123498
    38  C    0.000990
    39  C   -0.251963
    40  C    0.158838
    41  C    0.043865
    42  C    0.163152
    43  C    0.007482
    44  H    0.045025
    45  H    0.053380
    46  H    0.038236
    47  H    0.149624
    48  H    0.120463
    49  H    0.015830
    50  H    0.007847
    51  H    0.000040
    52  H    0.008177
    53  H    0.037705
    54  H    0.044623
    55  H    0.010340
    56  H    0.046010
    57  H    0.046358
    58  H   -0.027566
    59  H    0.022023
    60  H    0.158003
    61  H   -0.051221
    62  H    0.033340
    63  H    0.062808
    64  H    0.015006
    65  H    0.057338
    66  H    0.009287
    67  H    0.022174
    68  H    0.005735
    69  H   -0.020767
    70  H    0.017850
    71  H    0.024434
    72  H    0.151278
    73  H   -0.084312
    74  H    0.028682
    75  H    0.031439
    76  H   -0.003275
    77  H    0.233202
    78  H    0.067136
    79  H   -0.052948
 Sum of Mulliken charges =   0.00000

 Dipole moment (field-independent basis, Debye):
    X=             -0.3084    Y=              5.0929    Z=              4.3330  Tot=              6.6939
 Quadrupole moment (field-independent basis, Debye-Ang):
   XX=           -232.1253   YY=           -243.1353   ZZ=           -260.8511
   XY=            -14.7760   XZ=             33.0376   YZ=             -1.7861

 Normal termination of Gaussian 09 at Wed Jul 10 15:47:45 2019.
