 Gaussian 09, Revision D.01,
 Gaussian 09:  ES64L-G09RevD.01 24-Apr-2013

 --------------------------
 # td=(NStates=1) B3LYP/SVP
 --------------------------

 --
 TD
 --
 Symbolic Z-matrix:
 Charge =  0 Multiplicity = 1

                         Standard orientation:
 ---------------------------------------------------------------------
 Center     Atomic      Atomic             Coordinates (Angstroms)
 Number     Number       Type             X           Y           Z
 ---------------------------------------------------------------------
      1          8           0        5.352313   -0.226345   -3.286630
      2          8           0       -2.875965   -3.048582    3.370899
      3          8           0       -3.311181   -0.737604    3.113922
      4          8           0       -1.924423    7.237995    1.294544
      5          8           0       -0.614440    6.993379   -0.580555
      6          8           0       -1.698422   -4.069981   -0.193296
      7          7           0        2.365329    0.921841    0.628594
      8          7           0        4.415016   -0.494190   -1.169446
      9          7           0       -1.956060    0.606469   -0.532676
     10          7           0       -2.541757   -1.906241   -0.602889
     11          6           0        4.784298   -0.963336    0.036132
     12          6           0        4.484981   -0.095706    1.247571
     13          6           0        3.009976    0.098061    1.442048
     14          6           0        2.038285   -0.523143    2.229230
     15          6           0        0.757739    0.069175    1.855575
     16          6           0        1.022088    0.954929    0.794708
     17          6           0        6.362523   -1.166090   -0.130617
     18          6           0       -0.602344   -0.138513    2.539092
     19          6           0        6.658000   -0.833550   -1.379175
     20          6           0        0.184421    1.925236    0.109767
     21          6           0       -1.148056    1.839683   -0.362239
     22          6           0        5.471325   -0.465171   -2.107519
     23          6           0       -1.949850    2.760671   -1.027007
     24          6           0        2.208132   -1.581523    3.225197
     25          6           0        7.160308   -1.699841    0.962046
     26          6           0       -3.193024    2.287872   -1.262668
     27          6           0       -1.099794   -1.662848    2.627169
     28          6           0       -3.140694    0.828103   -0.961665
     29          6           0       -1.604723    4.317466   -1.050929
     30          6           0        8.068041   -0.931047   -2.060166
     31          6           0       -1.888203    5.064099    0.358764
     32          6           0       -4.427845    2.899249   -1.823281
     33          6           0       -4.036411   -0.150767   -1.110079
     34          6           0       -2.517335   -1.761484    3.061968
     35          6           0       -3.668132   -1.480196   -1.041380
     36          6           0        9.257246   -0.900376   -1.595394
     37          6           0       -1.374839    6.522502    0.255673
     38          6           0       -4.614064   -2.643085   -1.447776
     39          6           0       -3.829680   -3.788267   -1.136934
     40          6           0       -2.528706   -3.276755   -0.606522
     41          6           0       -5.994748   -2.497561   -1.994559
     42          6           0       -4.283693   -5.265962   -1.157354
     43          6           0       -6.670084   -3.539187   -2.536468
     44          1           0        4.511994   -2.066286    0.256876
     45          1           0        5.134833    0.849358    1.066793
     46          1           0        4.836240   -0.268464    2.296434
     47          1           0        2.729665    1.710120    0.076824
     48          1           0        3.480402   -0.572869   -1.509511
     49          1           0       -0.508118    0.166530    3.756367
     50          1           0       -1.301874    0.597419    1.891803
     51          1           0        0.713482    2.859767   -0.153487
     52          1           0        3.340068   -1.674337    3.390651
     53          1           0        1.526010   -1.326242    4.191907
     54          1           0        2.065246   -2.594879    3.045217
     55          1           0        6.642391   -2.658638    1.432760
     56          1           0        7.477670   -0.922119    1.671719
     57          1           0        8.104887   -2.062879    0.652903
     58          1           0       -1.132949   -2.042132    1.636103
     59          1           0       -0.595843   -2.236390    3.482026
     60          1           0       -1.553633   -0.211807   -0.256050
     61          1           0       -2.160346    4.920279   -1.914802
     62          1           0       -0.506084    4.499966   -1.407595
     63          1           0        7.938665   -1.024250   -3.131455
     64          1           0       -1.438623    4.610269    1.178754
     65          1           0       -2.870138    5.013328    0.429743
     66          1           0       -4.485930    4.031391   -1.863048
     67          1           0       -5.207163    2.626774   -1.242558
     68          1           0       -4.931371    2.425858   -2.902728
     69          1           0       -5.050790   -0.001330   -1.380313
     70          1           0        9.428810   -0.850159   -0.624255
     71          1           0       10.162660   -1.173974   -2.177881
     72          1           0       -3.755383   -3.039993    3.633780
     73          1           0       -6.531231   -1.427289   -1.707879
     74          1           0       -4.610205   -5.484483   -2.173848
     75          1           0       -3.258378   -5.900648   -0.763417
     76          1           0       -5.188740   -5.367894   -0.678618
     77          1           0       -1.588019    8.153577    1.422128
     78          1           0       -7.920023   -3.459707   -2.682640
     79          1           0       -6.269762   -4.399747   -2.678111
 ---------------------------------------------------------------------

 SCF Done:  E(RB3LYP) =  -1947.81657713     A.U. after   17 cycles

 Excitation energies and oscillator strengths:

 Excited State   1:      Singlet-A      2.2727 eV  545.54 nm  f=0.4486  <S**2>=0.000
     154 ->156         0.18924
     155 ->156         0.67455
 This state for optimization and/or second-order correction.
 Total Energy, E(TD-HF/TD-KS) =  -1947.73305787
 Copying the excited state density for this state as the 1-particle RhoCI density.

 The electronic state is 1-A.
 Alpha  occ. eigenvalues --  -19.18819 -19.17955 -19.14047 -19.11261 -19.10631
 Alpha  occ. eigenvalues --  -19.10261 -14.38543 -14.36141 -14.35178 -14.28527
 Alpha  occ. eigenvalues --  -10.33604 -10.31570 -10.28808 -10.26249 -10.25090
 Alpha  occ. eigenvalues --  -10.25042 -10.24212 -10.23570 -10.23091 -10.22976
 Alpha  occ. eigenvalues --  -10.22857 -10.22805 -10.22402 -10.22169 -10.22082
 Alpha  occ. eigenvalues --  -10.21908 -10.21429 -10.21368 -10.21320 -10.21293
 Alpha  occ. eigenvalues --  -10.20904 -10.20418 -10.20215 -10.20036 -10.19943
 Alpha  occ. eigenvalues --  -10.19930 -10.19774 -10.19571 -10.19568 -10.19214
 Alpha  occ. eigenvalues --  -10.19167 -10.18042 -10.17445  -1.08782  -1.08106
 Alpha  occ. eigenvalues --   -1.03582  -1.01422  -1.00858  -1.00652  -0.99938
 Alpha  occ. eigenvalues --   -0.96345  -0.96274  -0.93151  -0.83309  -0.82881
 Alpha  occ. eigenvalues --   -0.81705  -0.80731  -0.79879  -0.79286  -0.78120
 Alpha  occ. eigenvalues --   -0.77732  -0.76517  -0.76384  -0.74222  -0.73596
 Alpha  occ. eigenvalues --   -0.72917  -0.71604  -0.70064  -0.68551  -0.68122
 Alpha  occ. eigenvalues --   -0.67176  -0.66347  -0.64409  -0.61396  -0.61211
 Alpha  occ. eigenvalues --   -0.60901  -0.59498  -0.58985  -0.58795  -0.58530
 Alpha  occ. eigenvalues --   -0.57245  -0.55721  -0.55056  -0.54733  -0.53562
 Alpha  occ. eigenvalues --   -0.53105  -0.52405  -0.51846  -0.50844  -0.49446
 Alpha  occ. eigenvalues --   -0.48915  -0.48528  -0.48101  -0.48047  -0.47859
 Alpha  occ. eigenvalues --   -0.47419  -0.47203  -0.46905  -0.46435  -0.45698
 Alpha  occ. eigenvalues --   -0.45473  -0.45201  -0.44965  -0.44170  -0.43765
 Alpha  occ. eigenvalues --   -0.43687  -0.43608  -0.43150  -0.42963  -0.42552
 Alpha  occ. eigenvalues --   -0.42286  -0.41843  -0.41725  -0.41666  -0.40751
 Alpha  occ. eigenvalues --   -0.40472  -0.40056  -0.39687  -0.39636  -0.39449
 Alpha  occ. eigenvalues --   -0.39262  -0.38952  -0.38763  -0.38573  -0.38472
 Alpha  occ. eigenvalues --   -0.38356  -0.37765  -0.37651  -0.37001  -0.36249
 Alpha  occ. eigenvalues --   -0.35912  -0.35544  -0.35060  -0.34668  -0.34175
 Alpha  occ. eigenvalues --   -0.33596  -0.33209  -0.33173  -0.32284  -0.31819
 Alpha  occ. eigenvalues --   -0.31312  -0.30327  -0.29435  -0.29205  -0.27108
 Alpha  occ. eigenvalues --   -0.27061  -0.26502  -0.26450  -0.25973  -0.25906
 Alpha  occ. eigenvalues --   -0.24257  -0.23782  -0.23594  -0.22034  -0.19675
 Alpha virt. eigenvalues --   -0.10630  -0.06668  -0.05031  -0.01055  -0.00799
 Alpha virt. eigenvalues --   -0.00108   0.00981   0.01140   0.02708   0.03063
 Alpha virt. eigenvalues --    0.03320   0.03806   0.04327   0.04533   0.04995

 Mulliken charges:
               1
     1  O   -0.195402
     2  O   -0.154603
     3  O   -0.308625
     4  O   -0.221757
     5  O   -0.222498
     6  O   -0.209381
     7  N   -0.008168
     8  N   -0.137293
     9  N   -0.012717
    10  N   -0.219002
    11  C    0.062059
    12  C    0.125941
    13  C   -0.086840
    14  C   -0.108428
    15  C   -0.065283
    16  C    0.002427
    17  C   -0.218316
    18  C   -0.038057
    19  C   -0.029690
    20  C   -0.055081
    21  C    0.064857
    22  C    0.128398
    23  C   -0.062626
    24  C    0.063514
    25  C    0.104601
    26  C   -0.072901
    27  C    0.056066
    28  C    0.156910
    29  C   -0.052477
    30  C    0.021845
    31  C    0.118823
    32  C    0.078667
    33  C   -0.119841
    34  C    0.142961
    35  C    0.038979
    36  C    0.027336
    37  C    0.154383
    38  C   -0.003531
    39  C   -0.221805
    40  C    0.149484
    41  C   -0.034837
    42  C    0.080260
    43  C    0.005270
    44  H    0.022495
    45  H   -0.001261
    46  H    0.019174
    47  H    0.120554
    48  H    0.122410
    49  H    0.034927
    50  H    0.053749
    51  H    0.000763
    52  H   -0.011531
    53  H    0.035326
    54  H    0.016504
    55  H    0.045001
    56  H    0.036734
    57  H    0.001098
    58  H    0.059848
    59  H    0.047054
    60  H    0.096430
    61  H    0.037779
    62  H    0.038456
    63  H    0.003348
    64  H    0.028451
    65  H   -0.006831
    66  H    0.026609
    67  H   -0.006239
    68  H    0.046145
    69  H   -0.064787
    70  H   -0.045238
    71  H    0.031820
    72  H    0.154931
    73  H    0.043699
    74  H    0.026435
    75  H    0.075514
    76  H    0.001413
    77  H    0.193677
    78  H    0.050507
    79  H   -0.058585
 Sum of Mulliken charges =   0.00000

 Dipole moment (field-independent basis, Debye):
    X=              0.8944    Y=              2.8554    Z=              4.2866  Tot=              5.2277
 Quadrupole moment (field-independent basis, Debye-Ang):
   XX=           -215.7707   YY=           -243.8117   ZZ=           -265.5129
   XY=            -11.6418   XZ=             29.5742   YZ=              4.1191

 Normal termination of Gaussian 09 at Tue Jul  9 05:46:54 2019.
