 Gaussian 09, Revision D.01,
 Gaussian 09:  ES64L-G09RevD.01 24-Apr-2013

 --------------------------
 # td=(NStates=1) B3LYP/SVP
 --------------------------

 --
 TD
 --
 Symbolic Z-matrix:
 Charge =  0 Multiplicity = 1

                         Standard orientation:
 ---------------------------------------------------------------------
 Center     Atomic      Atomic             Coordinates (Angstroms)
 Number     Number       Type             X           Y           Z
 ---------------------------------------------------------------------
      1          8           0        5.263643   -0.155157   -3.346913
      2          8           0       -2.598056   -3.205200    3.406599
      3          8           0       -3.078895   -1.049069    3.337077
      4          8           0       -1.821817    7.224669    1.407274
      5          8           0       -0.521402    7.016974   -0.466116
      6          8           0       -2.150824   -4.076277    0.123224
      7          7           0        2.398188    0.980341    0.557350
      8          7           0        4.393902   -0.617934   -1.243712
      9          7           0       -1.860671    0.691162   -0.314385
     10          7           0       -2.754604   -1.910078   -0.455952
     11          6           0        4.854058   -1.236887   -0.056022
     12          6           0        4.517468   -0.285781    1.168063
     13          6           0        3.029515   -0.000354    1.366025
     14          6           0        2.085547   -0.583510    2.212996
     15          6           0        0.881628   -0.073223    1.809934
     16          6           0        1.061589    0.873176    0.823270
     17          6           0        6.352998   -1.250432   -0.255465
     18          6           0       -0.455557   -0.279923    2.622238
     19          6           0        6.611643   -0.894639   -1.551454
     20          6           0        0.219132    1.896010    0.080307
     21          6           0       -1.046928    1.792305   -0.302000
     22          6           0        5.355960   -0.590736   -2.199090
     23          6           0       -1.967817    2.895453   -0.778184
     24          6           0        2.414067   -1.632631    3.218482
     25          6           0        7.284721   -1.872518    0.837344
     26          6           0       -3.163675    2.403679   -1.169804
     27          6           0       -0.970215   -1.744662    2.499319
     28          6           0       -3.105990    0.976283   -0.831054
     29          6           0       -1.501635    4.334156   -0.814353
     30          6           0        7.820448   -0.820972   -2.237925
     31          6           0       -1.771772    5.058528    0.446313
     32          6           0       -4.267907    3.142835   -1.842815
     33          6           0       -4.148415    0.028609   -1.151356
     34          6           0       -2.290646   -1.871209    3.143325
     35          6           0       -3.896863   -1.370946   -1.016347
     36          6           0        9.151100   -0.901282   -1.732104
     37          6           0       -1.153371    6.558129    0.387881
     38          6           0       -4.777587   -2.505560   -1.557877
     39          6           0       -4.178174   -3.696962   -1.159244
     40          6           0       -2.910206   -3.273300   -0.535036
     41          6           0       -6.051030   -2.229727   -2.142279
     42          6           0       -4.689160   -5.106950   -1.343787
     43          6           0       -6.861308   -3.105837   -2.826625
     44          1           0        4.304386   -2.201075    0.194809
     45          1           0        5.045579    0.595448    0.969244
     46          1           0        4.953512   -0.676857    2.073370
     47          1           0        2.934519    1.687492   -0.141957
     48          1           0        3.315713   -0.616777   -1.564805
     49          1           0       -0.153529    0.031006    3.659243
     50          1           0       -1.180572    0.269548    2.240184
     51          1           0        0.723384    2.853570    0.041019
     52          1           0        3.505694   -1.625207    3.453945
     53          1           0        1.903758   -1.389294    4.154585
     54          1           0        2.112886   -2.614343    2.995384
     55          1           0        6.678275   -2.831215    1.205719
     56          1           0        7.565893   -1.032927    1.608041
     57          1           0        8.215283   -2.375776    0.376078
     58          1           0       -0.948924   -2.018922    1.506339
     59          1           0       -0.213436   -2.431105    3.038378
     60          1           0       -1.625450   -0.408370   -0.440711
     61          1           0       -1.831930    4.894325   -1.714950
     62          1           0       -0.451399    4.408054   -0.928865
     63          1           0        7.748512   -0.661023   -3.362681
     64          1           0       -1.020355    4.516200    1.170179
     65          1           0       -2.904974    4.921635    0.780649
     66          1           0       -3.893768    4.074503   -1.930995
     67          1           0       -4.968310    2.968666   -0.850005
     68          1           0       -4.714741    2.451724   -2.522114
     69          1           0       -5.223040    0.320535   -1.647970
     70          1           0        9.408189   -0.738546   -0.827006
     71          1           0       10.032111   -0.648237   -2.381390
     72          1           0       -3.514084   -3.411704    3.699336
     73          1           0       -6.270471   -1.133073   -2.097584
     74          1           0       -4.346121   -5.478939   -2.301308
     75          1           0       -3.992862   -5.632242   -0.587739
     76          1           0       -5.844358   -5.229962   -1.126207
     77          1           0       -1.472747    8.185368    1.533962
     78          1           0       -7.850093   -2.707951   -3.330796
     79          1           0       -6.595145   -4.153214   -3.111707
 ---------------------------------------------------------------------

 SCF Done:  E(RB3LYP) =  -1947.86767747     A.U. after   19 cycles

 Excitation energies and oscillator strengths:

 Excited State   1:      Singlet-A      2.1140 eV  586.48 nm  f=0.3901  <S**2>=0.000
     154 ->156         0.12986
     155 ->156         0.68505
 This state for optimization and/or second-order correction.
 Total Energy, E(TD-HF/TD-KS) =  -1947.78998858
 Copying the excited state density for this state as the 1-particle RhoCI density.

 The electronic state is 1-A.
 Alpha  occ. eigenvalues --  -19.18878 -19.15624 -19.13682 -19.10777 -19.09547
 Alpha  occ. eigenvalues --  -19.09420 -14.38895 -14.37453 -14.36268 -14.29999
 Alpha  occ. eigenvalues --  -10.33683 -10.29275 -10.27804 -10.26277 -10.26274
 Alpha  occ. eigenvalues --  -10.25125 -10.24502 -10.24399 -10.23342 -10.22859
 Alpha  occ. eigenvalues --  -10.22786 -10.22646 -10.22638 -10.22092 -10.21680
 Alpha  occ. eigenvalues --  -10.21350 -10.21343 -10.21264 -10.21114 -10.20949
 Alpha  occ. eigenvalues --  -10.20854 -10.20816 -10.20305 -10.20256 -10.20104
 Alpha  occ. eigenvalues --  -10.19850 -10.19807 -10.19165 -10.19080 -10.18545
 Alpha  occ. eigenvalues --  -10.18432 -10.18055 -10.17793  -1.11051  -1.07538
 Alpha  occ. eigenvalues --   -1.02612  -1.02209  -0.98621  -0.98063  -0.97932
 Alpha  occ. eigenvalues --   -0.97586  -0.94938  -0.90639  -0.83589  -0.82086
 Alpha  occ. eigenvalues --   -0.81879  -0.81192  -0.80232  -0.79464  -0.78122
 Alpha  occ. eigenvalues --   -0.76803  -0.76098  -0.74776  -0.74015  -0.72401
 Alpha  occ. eigenvalues --   -0.71822  -0.70871  -0.69438  -0.68567  -0.67372
 Alpha  occ. eigenvalues --   -0.66173  -0.65677  -0.63886  -0.62676  -0.60880
 Alpha  occ. eigenvalues --   -0.59873  -0.58498  -0.57712  -0.57131  -0.56474
 Alpha  occ. eigenvalues --   -0.55949  -0.55631  -0.54988  -0.54030  -0.53160
 Alpha  occ. eigenvalues --   -0.51749  -0.51633  -0.50942  -0.50806  -0.50420
 Alpha  occ. eigenvalues --   -0.49495  -0.49174  -0.48322  -0.48043  -0.47605
 Alpha  occ. eigenvalues --   -0.47048  -0.46574  -0.46352  -0.45674  -0.45405
 Alpha  occ. eigenvalues --   -0.45127  -0.45003  -0.44707  -0.44065  -0.43793
 Alpha  occ. eigenvalues --   -0.43697  -0.43180  -0.43003  -0.42411  -0.42115
 Alpha  occ. eigenvalues --   -0.41994  -0.41538  -0.41405  -0.40810  -0.40686
 Alpha  occ. eigenvalues --   -0.40376  -0.40265  -0.39953  -0.39854  -0.39561
 Alpha  occ. eigenvalues --   -0.39269  -0.38955  -0.38720  -0.38428  -0.38362
 Alpha  occ. eigenvalues --   -0.38111  -0.37747  -0.37407  -0.36937  -0.36662
 Alpha  occ. eigenvalues --   -0.35973  -0.35875  -0.34837  -0.34785  -0.34139
 Alpha  occ. eigenvalues --   -0.34034  -0.33756  -0.33655  -0.33292  -0.32033
 Alpha  occ. eigenvalues --   -0.31415  -0.30120  -0.29858  -0.28328  -0.27429
 Alpha  occ. eigenvalues --   -0.26487  -0.26352  -0.26095  -0.25477  -0.25036
 Alpha  occ. eigenvalues --   -0.23826  -0.23609  -0.23168  -0.22191  -0.19710
 Alpha virt. eigenvalues --   -0.11132  -0.07276  -0.06542  -0.01253  -0.00881
 Alpha virt. eigenvalues --   -0.00028   0.00832   0.02356   0.02504   0.03101
 Alpha virt. eigenvalues --    0.03144   0.03262   0.04057   0.04337   0.04531

 Mulliken charges:
               1
     1  O   -0.242085
     2  O   -0.246792
     3  O   -0.164097
     4  O   -0.249338
     5  O   -0.141586
     6  O   -0.270769
     7  N   -0.165074
     8  N   -0.210175
     9  N   -0.120229
    10  N   -0.280770
    11  C    0.043464
    12  C    0.229731
    13  C   -0.102931
    14  C   -0.108745
    15  C   -0.170187
    16  C    0.071763
    17  C   -0.150505
    18  C    0.168784
    19  C    0.026078
    20  C   -0.116970
    21  C    0.159345
    22  C    0.134261
    23  C   -0.091514
    24  C    0.138771
    25  C    0.007314
    26  C   -0.183756
    27  C    0.010154
    28  C    0.113631
    29  C    0.102554
    30  C   -0.081709
    31  C   -0.088161
    32  C    0.186476
    33  C   -0.151035
    34  C    0.135994
    35  C    0.056655
    36  C    0.014458
    37  C    0.159671
    38  C    0.039919
    39  C   -0.184611
    40  C    0.161478
    41  C   -0.024110
    42  C    0.052262
    43  C   -0.070764
    44  H    0.034937
    45  H   -0.046048
    46  H   -0.013003
    47  H    0.178263
    48  H    0.172279
    49  H    0.018000
    50  H   -0.045947
    51  H   -0.007764
    52  H   -0.001948
    53  H    0.005221
    54  H    0.029232
    55  H    0.048166
    56  H    0.069453
    57  H    0.049679
    58  H    0.034749
    59  H    0.023331
    60  H    0.207624
    61  H    0.017825
    62  H   -0.019609
    63  H    0.033858
    64  H    0.045144
    65  H    0.068501
    66  H   -0.000665
    67  H    0.052621
    68  H    0.028878
    69  H    0.038343
    70  H   -0.039701
    71  H    0.029971
    72  H    0.180051
    73  H   -0.008740
    74  H    0.033572
    75  H    0.042561
    76  H    0.056927
    77  H    0.201480
    78  H    0.042827
    79  H    0.043080
 Sum of Mulliken charges =   0.00000

 Dipole moment (field-independent basis, Debye):
    X=              0.3223    Y=              4.0911    Z=              2.0128  Tot=              4.5708
 Quadrupole moment (field-independent basis, Debye-Ang):
   XX=           -225.4243   YY=           -240.5848   ZZ=           -265.4872
   XY=             -8.2229   XZ=             38.0765   YZ=              8.0167

 Normal termination of Gaussian 09 at Sun Jul  7 17:37:53 2019.
