 Gaussian 09, Revision D.01,
 Gaussian 09:  ES64L-G09RevD.01 24-Apr-2013

 --------------------------
 # td=(NStates=1) B3LYP/SVP
 --------------------------

 --
 TD
 --
 Symbolic Z-matrix:
 Charge =  0 Multiplicity = 1

                         Standard orientation:
 ---------------------------------------------------------------------
 Center     Atomic      Atomic             Coordinates (Angstroms)
 Number     Number       Type             X           Y           Z
 ---------------------------------------------------------------------
      1          8           0        5.269260   -0.156606   -3.372866
      2          8           0       -2.794312   -3.096984    3.504874
      3          8           0       -3.212745   -0.864064    3.219818
      4          8           0       -1.693473    7.155531    1.578437
      5          8           0       -0.832919    6.954372   -0.424569
      6          8           0       -1.983463   -4.035468   -0.013005
      7          7           0        2.408782    0.821344    0.453291
      8          7           0        4.615427   -0.487811   -1.244971
      9          7           0       -1.894693    0.530841   -0.404755
     10          7           0       -2.614612   -1.837299   -0.641117
     11          6           0        4.925464   -1.132873   -0.038560
     12          6           0        4.495777   -0.356017    1.245650
     13          6           0        3.012849   -0.065179    1.315383
     14          6           0        1.968946   -0.735494    2.095470
     15          6           0        0.797784   -0.070398    1.716754
     16          6           0        1.029905    0.876815    0.748062
     17          6           0        6.415643   -1.288380   -0.193982
     18          6           0       -0.505062   -0.352185    2.423624
     19          6           0        6.776642   -0.946753   -1.468825
     20          6           0        0.171917    1.828528    0.097537
     21          6           0       -1.122009    1.738467   -0.270752
     22          6           0        5.558025   -0.561753   -2.200871
     23          6           0       -1.935270    2.863896   -0.786977
     24          6           0        2.275694   -1.810560    3.209741
     25          6           0        7.226368   -1.735940    0.900042
     26          6           0       -3.126081    2.393436   -1.258342
     27          6           0       -1.029721   -1.763944    2.572629
     28          6           0       -3.113294    0.941853   -1.026284
     29          6           0       -1.572325    4.302359   -0.790906
     30          6           0        8.087632   -0.607753   -2.057344
     31          6           0       -1.900000    5.053743    0.638434
     32          6           0       -4.307706    3.065561   -1.825541
     33          6           0       -3.992954    0.007887   -1.479547
     34          6           0       -2.440549   -1.835659    3.053810
     35          6           0       -3.757666   -1.370362   -1.186275
     36          6           0        9.325699   -0.566817   -1.531788
     37          6           0       -1.320242    6.413104    0.545414
     38          6           0       -4.790180   -2.516651   -1.476770
     39          6           0       -4.135961   -3.596464   -1.097356
     40          6           0       -2.813659   -3.181059   -0.435388
     41          6           0       -6.062752   -2.261298   -2.117958
     42          6           0       -4.495104   -5.121800   -1.244842
     43          6           0       -6.856094   -3.141532   -2.744461
     44          1           0        4.410419   -2.246209   -0.080273
     45          1           0        4.909441    0.740854    1.193916
     46          1           0        4.606636   -0.871666    2.250293
     47          1           0        2.738242    1.213569   -0.197734
     48          1           0        3.575726   -0.427802   -1.569766
     49          1           0       -0.508335   -0.100711    3.557629
     50          1           0       -1.269725    0.145602    1.917657
     51          1           0        0.443979    2.877344   -0.088266
     52          1           0        3.233103   -1.805802    3.338483
     53          1           0        1.801377   -1.482459    4.130644
     54          1           0        1.844410   -2.778839    2.813994
     55          1           0        6.696586   -2.258422    1.648254
     56          1           0        7.642497   -0.757349    1.409697
     57          1           0        8.074884   -2.437344    0.609737
     58          1           0       -0.762896   -2.286437    1.575552
     59          1           0       -0.495172   -2.108814    3.558188
     60          1           0       -1.524915   -0.379637   -0.499697
     61          1           0       -1.880079    4.854409   -1.751128
     62          1           0       -0.312663    4.436920   -0.738129
     63          1           0        8.013626   -0.102787   -3.172241
     64          1           0       -1.438846    4.262503    1.405351
     65          1           0       -3.081845    5.085799    0.733439
     66          1           0       -4.132482    4.049668   -2.306775
     67          1           0       -5.196130    3.215990   -1.070891
     68          1           0       -4.571279    2.346568   -2.857112
     69          1           0       -4.761517    0.192033   -1.914662
     70          1           0        9.555118   -0.942823   -0.491714
     71          1           0       10.107219   -0.333166   -2.134676
     72          1           0       -3.714588   -3.065487    3.928548
     73          1           0       -6.597092   -1.269201   -2.291903
     74          1           0       -4.466620   -5.464173   -2.196946
     75          1           0       -3.859858   -5.604643   -0.569475
     76          1           0       -5.518914   -5.332998   -0.794488
     77          1           0       -1.508289    8.127887    1.365860
     78          1           0       -7.825992   -3.012648   -3.057287
     79          1           0       -6.599444   -4.124175   -2.711412
 ---------------------------------------------------------------------

 SCF Done:  E(RB3LYP) =  -1947.79492783     A.U. after   16 cycles

 Excitation energies and oscillator strengths:

 Excited State   1:      Singlet-A      2.2454 eV  552.17 nm  f=0.4490  <S**2>=0.000
     155 ->156         0.70086
 This state for optimization and/or second-order correction.
 Total Energy, E(TD-HF/TD-KS) =  -1947.71241030
 Copying the excited state density for this state as the 1-particle RhoCI density.

 The electronic state is 1-A.
 Alpha  occ. eigenvalues --  -19.19008 -19.16822 -19.13374 -19.11385 -19.10468
 Alpha  occ. eigenvalues --  -19.09299 -14.37272 -14.35879 -14.35763 -14.29852
 Alpha  occ. eigenvalues --  -10.32996 -10.31282 -10.28285 -10.26882 -10.26243
 Alpha  occ. eigenvalues --  -10.25002 -10.24281 -10.24208 -10.24166 -10.23671
 Alpha  occ. eigenvalues --  -10.23501 -10.23319 -10.22992 -10.22955 -10.22574
 Alpha  occ. eigenvalues --  -10.21892 -10.21623 -10.21408 -10.21343 -10.21300
 Alpha  occ. eigenvalues --  -10.21022 -10.20617 -10.20211 -10.20049 -10.19679
 Alpha  occ. eigenvalues --  -10.19658 -10.19627 -10.19195 -10.19084 -10.18094
 Alpha  occ. eigenvalues --  -10.17854 -10.17696 -10.17347  -1.11169  -1.05938
 Alpha  occ. eigenvalues --   -1.01471  -1.00837  -0.99571  -0.99387  -0.97059
 Alpha  occ. eigenvalues --   -0.96206  -0.94132  -0.91782  -0.82980  -0.82901
 Alpha  occ. eigenvalues --   -0.82600  -0.81709  -0.80623  -0.79963  -0.77748
 Alpha  occ. eigenvalues --   -0.77560  -0.77328  -0.75933  -0.75106  -0.73497
 Alpha  occ. eigenvalues --   -0.72401  -0.71980  -0.69792  -0.69537  -0.68560
 Alpha  occ. eigenvalues --   -0.67244  -0.66108  -0.64176  -0.61413  -0.60863
 Alpha  occ. eigenvalues --   -0.60555  -0.60139  -0.59187  -0.58022  -0.57258
 Alpha  occ. eigenvalues --   -0.56893  -0.55023  -0.54315  -0.53748  -0.53329
 Alpha  occ. eigenvalues --   -0.52237  -0.52056  -0.51002  -0.50858  -0.50063
 Alpha  occ. eigenvalues --   -0.49238  -0.48771  -0.48710  -0.48257  -0.48053
 Alpha  occ. eigenvalues --   -0.47430  -0.47381  -0.46627  -0.46170  -0.45575
 Alpha  occ. eigenvalues --   -0.45226  -0.45019  -0.44576  -0.44475  -0.44177
 Alpha  occ. eigenvalues --   -0.43628  -0.43383  -0.43184  -0.42937  -0.42269
 Alpha  occ. eigenvalues --   -0.42136  -0.41927  -0.41524  -0.41459  -0.41143
 Alpha  occ. eigenvalues --   -0.40702  -0.40646  -0.40465  -0.39925  -0.39720
 Alpha  occ. eigenvalues --   -0.39509  -0.39106  -0.38858  -0.38498  -0.38024
 Alpha  occ. eigenvalues --   -0.37814  -0.37768  -0.37563  -0.37174  -0.36442
 Alpha  occ. eigenvalues --   -0.35873  -0.35404  -0.34698  -0.34273  -0.34001
 Alpha  occ. eigenvalues --   -0.33695  -0.33478  -0.32824  -0.31991  -0.31800
 Alpha  occ. eigenvalues --   -0.31417  -0.30339  -0.29241  -0.28649  -0.27767
 Alpha  occ. eigenvalues --   -0.26528  -0.26258  -0.25902  -0.25552  -0.24952
 Alpha  occ. eigenvalues --   -0.24501  -0.24190  -0.23818  -0.22961  -0.19535
 Alpha virt. eigenvalues --   -0.10589  -0.06770  -0.06033  -0.02231  -0.01293
 Alpha virt. eigenvalues --    0.00153   0.00444   0.00563   0.02363   0.02803
 Alpha virt. eigenvalues --    0.03597   0.04012   0.04479   0.04515   0.04891

 Mulliken charges:
               1
     1  O   -0.281534
     2  O   -0.232727
     3  O   -0.267369
     4  O   -0.185776
     5  O   -0.234288
     6  O   -0.250175
     7  N    0.053457
     8  N   -0.181497
     9  N   -0.125380
    10  N   -0.260475
    11  C    0.079736
    12  C    0.172654
    13  C   -0.150342
    14  C   -0.171043
    15  C   -0.089773
    16  C    0.098438
    17  C   -0.190805
    18  C    0.078762
    19  C   -0.014269
    20  C   -0.071149
    21  C    0.073141
    22  C    0.146590
    23  C   -0.013205
    24  C    0.212974
    25  C    0.082673
    26  C   -0.086472
    27  C   -0.053257
    28  C    0.193684
    29  C   -0.081533
    30  C   -0.067576
    31  C   -0.077113
    32  C    0.002456
    33  C    0.040734
    34  C    0.175106
    35  C    0.044459
    36  C   -0.008581
    37  C    0.167637
    38  C    0.152572
    39  C   -0.253169
    40  C    0.177869
    41  C   -0.093150
    42  C    0.159967
    43  C    0.023321
    44  H    0.050614
    45  H    0.025361
    46  H    0.020332
    47  H   -0.017718
    48  H    0.150613
    49  H    0.006883
    50  H   -0.005361
    51  H   -0.029352
    52  H   -0.071559
    53  H    0.020175
    54  H    0.056928
    55  H    0.001221
    56  H    0.055456
    57  H    0.053660
    58  H    0.096486
    59  H    0.039185
    60  H    0.136586
    61  H    0.060538
    62  H    0.048734
    63  H    0.052754
    64  H    0.085848
    65  H    0.079356
    66  H    0.022457
    67  H    0.068957
    68  H    0.054604
    69  H   -0.204065
    70  H    0.016414
    71  H    0.003717
    72  H    0.201983
    73  H    0.014112
    74  H    0.015945
    75  H    0.004261
    76  H    0.015653
    77  H    0.202447
    78  H    0.000502
    79  H   -0.029295
 Sum of Mulliken charges =   0.00000

 Dipole moment (field-independent basis, Debye):
    X=             -0.1694    Y=              2.9122    Z=              3.8251  Tot=              4.8105
 Quadrupole moment (field-independent basis, Debye-Ang):
   XX=           -216.2847   YY=           -244.3678   ZZ=           -263.8573
   XY=            -14.7023   XZ=             36.4609   YZ=              0.8404

 Normal termination of Gaussian 09 at Sun Jul  7 16:02:25 2019.
