 Gaussian 09, Revision D.01,
 Gaussian 09:  ES64L-G09RevD.01 24-Apr-2013

 --------------------------
 # td=(NStates=1) B3LYP/SVP
 --------------------------

 --
 TD
 --
 Symbolic Z-matrix:
 Charge =  0 Multiplicity = 1

                         Standard orientation:
 ---------------------------------------------------------------------
 Center     Atomic      Atomic             Coordinates (Angstroms)
 Number     Number       Type             X           Y           Z
 ---------------------------------------------------------------------
      1          8           0        5.298518   -0.312429   -3.340282
      2          8           0       -2.993475   -3.027124    3.296912
      3          8           0       -3.269184   -0.851554    3.336749
      4          8           0       -1.406004    7.154953    1.513574
      5          8           0       -0.079679    6.872640   -0.243450
      6          8           0       -1.986635   -3.983234   -0.293915
      7          7           0        2.382168    0.847068    0.609167
      8          7           0        4.419324   -0.793645   -1.197219
      9          7           0       -1.978263    0.736712   -0.345647
     10          7           0       -2.802441   -1.686179   -0.479011
     11          6           0        4.880420   -1.306529   -0.011104
     12          6           0        4.568457   -0.327830    1.180941
     13          6           0        3.035573   -0.113010    1.278788
     14          6           0        2.016750   -0.718589    2.149683
     15          6           0        0.743203   -0.079639    1.789129
     16          6           0        0.994325    0.873367    0.761829
     17          6           0        6.376372   -1.350897   -0.123328
     18          6           0       -0.611832   -0.381048    2.433369
     19          6           0        6.660624   -0.969197   -1.412440
     20          6           0        0.203923    1.835400    0.094145
     21          6           0       -1.130878    1.779023   -0.266582
     22          6           0        5.394163   -0.618492   -2.178584
     23          6           0       -1.850858    2.985257   -0.903498
     24          6           0        2.258426   -1.743101    3.152230
     25          6           0        7.205067   -1.954432    1.013393
     26          6           0       -3.120709    2.519694   -1.265496
     27          6           0       -1.134644   -1.777208    2.481378
     28          6           0       -3.049782    1.118796   -0.923007
     29          6           0       -1.407568    4.396131   -0.929401
     30          6           0        7.991906   -0.803967   -2.115984
     31          6           0       -1.609296    5.072257    0.358092
     32          6           0       -4.253721    3.157847   -1.903648
     33          6           0       -3.991497    0.058081   -1.282068
     34          6           0       -2.603070   -1.825966    3.085000
     35          6           0       -3.851124   -1.243521   -1.041819
     36          6           0        9.173723   -0.912873   -1.669161
     37          6           0       -1.028902    6.446264    0.498494
     38          6           0       -4.842596   -2.449897   -1.440155
     39          6           0       -4.160323   -3.577967   -1.145397
     40          6           0       -2.866418   -3.150274   -0.592650
     41          6           0       -6.080794   -2.147031   -2.111712
     42          6           0       -4.598475   -4.970752   -1.278799
     43          6           0       -6.911777   -3.026558   -2.535501
     44          1           0        4.513700   -2.275979    0.379812
     45          1           0        5.100566    0.775665    0.941844
     46          1           0        5.031686   -0.728051    2.065845
     47          1           0        2.668251    1.272432   -0.176136
     48          1           0        3.395134   -0.782059   -1.468295
     49          1           0       -0.568108    0.008393    3.320114
     50          1           0       -1.256160    0.207325    1.896523
     51          1           0        0.639090    2.747197   -0.079538
     52          1           0        3.296767   -1.860173    3.609186
     53          1           0        1.465398   -1.711959    3.905730
     54          1           0        1.953236   -2.822048    2.807451
     55          1           0        6.502269   -2.605098    1.714951
     56          1           0        7.766301   -1.221469    1.711500
     57          1           0        7.931608   -2.563643    0.494256
     58          1           0       -1.234766   -2.331368    1.498635
     59          1           0       -0.680512   -2.556872    3.200262
     60          1           0       -1.918534   -0.423596   -0.094355
     61          1           0       -2.013977    4.805666   -1.943687
     62          1           0       -0.184610    4.488739   -1.240019
     63          1           0        7.771772   -1.015253   -3.116086
     64          1           0       -1.100752    4.483318    1.212807
     65          1           0       -2.663136    5.104386    0.811478
     66          1           0       -4.131986    4.271888   -2.126948
     67          1           0       -5.050916    2.802035   -1.200453
     68          1           0       -4.835892    2.658338   -2.728882
     69          1           0       -4.920070    0.175695   -1.955975
     70          1           0        9.469883   -0.552798   -0.557661
     71          1           0       10.116194   -0.686439   -2.101645
     72          1           0       -3.952308   -3.066113    3.710863
     73          1           0       -6.289631   -1.048045   -2.120597
     74          1           0       -4.532172   -5.135575   -2.355565
     75          1           0       -4.048136   -5.633747   -0.673236
     76          1           0       -5.662748   -5.101146   -0.732676
     77          1           0       -0.892632    8.103716    1.471297
     78          1           0       -7.867276   -2.857182   -2.900172
     79          1           0       -6.863380   -4.239913   -2.325189
 ---------------------------------------------------------------------

 SCF Done:  E(RB3LYP) =  -1947.82718750     A.U. after   17 cycles

 Excitation energies and oscillator strengths:

 Excited State   1:      Singlet-A      2.2376 eV  554.11 nm  f=0.5417  <S**2>=0.000
     155 ->156         0.70281
     155 <-156        -0.10347
 This state for optimization and/or second-order correction.
 Total Energy, E(TD-HF/TD-KS) =  -1947.74495883
 Copying the excited state density for this state as the 1-particle RhoCI density.

 The electronic state is 1-A.
 Alpha  occ. eigenvalues --  -19.20499 -19.18280 -19.11594 -19.11063 -19.10281
 Alpha  occ. eigenvalues --  -19.10047 -14.38010 -14.36242 -14.35992 -14.29631
 Alpha  occ. eigenvalues --  -10.32592 -10.30168 -10.29258 -10.26839 -10.24674
 Alpha  occ. eigenvalues --  -10.24370 -10.24230 -10.23981 -10.23422 -10.23309
 Alpha  occ. eigenvalues --  -10.22867 -10.22779 -10.22572 -10.22413 -10.21624
 Alpha  occ. eigenvalues --  -10.21612 -10.21368 -10.21171 -10.21005 -10.20582
 Alpha  occ. eigenvalues --  -10.20043 -10.19968 -10.19894 -10.19880 -10.19776
 Alpha  occ. eigenvalues --  -10.19530 -10.19392 -10.19380 -10.19124 -10.18992
 Alpha  occ. eigenvalues --  -10.18972 -10.17925 -10.17135  -1.10781  -1.10097
 Alpha  occ. eigenvalues --   -1.03604  -1.00706  -0.99626  -0.99368  -0.98991
 Alpha  occ. eigenvalues --   -0.97290  -0.96173  -0.92656  -0.83419  -0.82022
 Alpha  occ. eigenvalues --   -0.81796  -0.81550  -0.80909  -0.79580  -0.78690
 Alpha  occ. eigenvalues --   -0.77626  -0.76812  -0.75962  -0.74825  -0.72620
 Alpha  occ. eigenvalues --   -0.71567  -0.71183  -0.69872  -0.69391  -0.68173
 Alpha  occ. eigenvalues --   -0.67591  -0.66417  -0.63901  -0.61376  -0.61224
 Alpha  occ. eigenvalues --   -0.60784  -0.59741  -0.57926  -0.57427  -0.57291
 Alpha  occ. eigenvalues --   -0.55938  -0.55691  -0.55108  -0.54843  -0.53445
 Alpha  occ. eigenvalues --   -0.52175  -0.51823  -0.51218  -0.50585  -0.49548
 Alpha  occ. eigenvalues --   -0.48859  -0.48473  -0.48160  -0.47954  -0.47362
 Alpha  occ. eigenvalues --   -0.47190  -0.46939  -0.46474  -0.46105  -0.45827
 Alpha  occ. eigenvalues --   -0.45461  -0.45375  -0.45025  -0.44580  -0.44203
 Alpha  occ. eigenvalues --   -0.43998  -0.43829  -0.43709  -0.43311  -0.42973
 Alpha  occ. eigenvalues --   -0.42363  -0.41954  -0.41838  -0.41555  -0.40657
 Alpha  occ. eigenvalues --   -0.40593  -0.40443  -0.40370  -0.40111  -0.39877
 Alpha  occ. eigenvalues --   -0.39660  -0.39031  -0.38727  -0.38546  -0.38307
 Alpha  occ. eigenvalues --   -0.38103  -0.37736  -0.37410  -0.37344  -0.36723
 Alpha  occ. eigenvalues --   -0.35895  -0.35733  -0.34770  -0.33975  -0.33461
 Alpha  occ. eigenvalues --   -0.32988  -0.32666  -0.32294  -0.32211  -0.31519
 Alpha  occ. eigenvalues --   -0.31083  -0.31005  -0.29531  -0.27964  -0.27363
 Alpha  occ. eigenvalues --   -0.27134  -0.26385  -0.25933  -0.25242  -0.25044
 Alpha  occ. eigenvalues --   -0.24235  -0.23916  -0.23496  -0.22396  -0.18693
 Alpha virt. eigenvalues --   -0.09896  -0.05891  -0.05539  -0.01137   0.00495
 Alpha virt. eigenvalues --    0.00818   0.00942   0.01467   0.02759   0.03207
 Alpha virt. eigenvalues --    0.03361   0.03525   0.03804   0.04526   0.04786

 Mulliken charges:
               1
     1  O   -0.194567
     2  O   -0.160617
     3  O   -0.245819
     4  O   -0.179172
     5  O   -0.311020
     6  O   -0.244650
     7  N    0.014747
     8  N   -0.186023
     9  N   -0.052397
    10  N   -0.317266
    11  C    0.057218
    12  C    0.111770
    13  C   -0.077666
    14  C   -0.120523
    15  C   -0.137924
    16  C    0.065602
    17  C   -0.129859
    18  C    0.313605
    19  C   -0.148814
    20  C   -0.070146
    21  C    0.074102
    22  C    0.168355
    23  C   -0.120270
    24  C    0.052480
    25  C    0.038509
    26  C   -0.072753
    27  C   -0.085333
    28  C    0.078634
    29  C   -0.025874
    30  C    0.103774
    31  C    0.015452
    32  C    0.082621
    33  C   -0.144637
    34  C    0.091367
    35  C    0.019156
    36  C   -0.062863
    37  C    0.131244
    38  C    0.071496
    39  C   -0.206715
    40  C    0.191172
    41  C    0.018018
    42  C    0.102478
    43  C   -0.055655
    44  H    0.024820
    45  H    0.029317
    46  H   -0.004417
    47  H    0.068825
    48  H    0.148147
    49  H   -0.052016
    50  H   -0.051662
    51  H   -0.046377
    52  H    0.024141
    53  H    0.002949
    54  H    0.028337
    55  H    0.036940
    56  H    0.058288
    57  H    0.046026
    58  H    0.075387
    59  H    0.026477
    60  H    0.241116
    61  H    0.053455
    62  H    0.066080
    63  H    0.001642
    64  H    0.059462
    65  H    0.040069
    66  H    0.041474
    67  H    0.021448
    68  H    0.025122
    69  H   -0.026964
    70  H    0.008263
    71  H    0.013220
    72  H    0.215789
    73  H    0.001230
    74  H    0.046183
    75  H    0.004605
    76  H    0.038336
    77  H    0.244174
    78  H   -0.004183
    79  H    0.043065
 Sum of Mulliken charges =   0.00000

 Dipole moment (field-independent basis, Debye):
    X=             -0.8536    Y=              1.8055    Z=              3.9158  Tot=              4.3957
 Quadrupole moment (field-independent basis, Debye-Ang):
   XX=           -218.4960   YY=           -242.1411   ZZ=           -261.8783
   XY=             -8.6485   XZ=             30.0313   YZ=             -0.7973

 Normal termination of Gaussian 09 at Wed Jul 10 05:49:07 2019.
