 Gaussian 09, Revision D.01,
 Gaussian 09:  ES64L-G09RevD.01 24-Apr-2013

 --------------------------
 # td=(NStates=1) B3LYP/SVP
 --------------------------

 --
 TD
 --
 Symbolic Z-matrix:
 Charge =  0 Multiplicity = 1

                         Standard orientation:
 ---------------------------------------------------------------------
 Center     Atomic      Atomic             Coordinates (Angstroms)
 Number     Number       Type             X           Y           Z
 ---------------------------------------------------------------------
      1          8           0        5.550689   -0.261500   -3.440455
      2          8           0       -2.819545   -3.192858    3.334883
      3          8           0       -3.195521   -1.017712    3.101464
      4          8           0       -1.483729    7.200288    1.686152
      5          8           0       -0.991524    7.075543   -0.635670
      6          8           0       -1.929900   -3.994975   -0.046985
      7          7           0        2.389974    0.937396    0.544852
      8          7           0        4.601543   -0.627291   -1.291805
      9          7           0       -2.006055    0.727889   -0.318247
     10          7           0       -2.726199   -1.831294   -0.456482
     11          6           0        4.984436   -1.142556   -0.015791
     12          6           0        4.555263   -0.138463    1.236854
     13          6           0        2.964442   -0.044390    1.278053
     14          6           0        2.005987   -0.670108    2.079802
     15          6           0        0.748374   -0.140578    1.711921
     16          6           0        0.924955    0.846879    0.764381
     17          6           0        6.482504   -1.217070   -0.212561
     18          6           0       -0.540767   -0.386639    2.445132
     19          6           0        6.782412   -0.779955   -1.403749
     20          6           0        0.158600    1.883034    0.155599
     21          6           0       -1.236661    1.818140   -0.252318
     22          6           0        5.605097   -0.603081   -2.259075
     23          6           0       -1.968518    2.906328   -0.841355
     24          6           0        2.366073   -1.771326    3.115276
     25          6           0        7.380188   -1.633004    0.992087
     26          6           0       -3.186294    2.461046   -1.178723
     27          6           0       -1.119741   -1.836161    2.391699
     28          6           0       -3.235760    0.998359   -0.894026
     29          6           0       -1.529849    4.345914   -0.802968
     30          6           0        8.128624   -0.732213   -1.988251
     31          6           0       -1.797426    5.109810    0.506252
     32          6           0       -4.374743    3.022838   -1.986006
     33          6           0       -4.155802   -0.041735   -1.226381
     34          6           0       -2.484956   -1.973420    3.064667
     35          6           0       -3.818374   -1.373019   -1.013239
     36          6           0        9.389053   -0.781187   -1.530355
     37          6           0       -1.377529    6.544182    0.434723
     38          6           0       -4.813641   -2.509619   -1.424103
     39          6           0       -4.139567   -3.652401   -1.123665
     40          6           0       -2.819095   -3.206248   -0.468329
     41          6           0       -6.110819   -2.358837   -2.079812
     42          6           0       -4.416114   -5.142112   -1.258894
     43          6           0       -6.962071   -3.256377   -2.618103
     44          1           0        4.648562   -2.190882    0.246853
     45          1           0        5.128920    0.798005    1.289720
     46          1           0        5.105940   -0.349131    2.218263
     47          1           0        2.870759    1.839179    0.157197
     48          1           0        3.526990   -0.764649   -1.697254
     49          1           0       -0.426492   -0.376015    3.498858
     50          1           0       -1.443395    0.348624    2.075099
     51          1           0        0.528408    2.842237    0.090243
     52          1           0        3.407336   -2.062232    3.203297
     53          1           0        1.784452   -1.394145    4.043237
     54          1           0        1.872304   -2.790286    2.905980
     55          1           0        6.773052   -2.260966    1.684164
     56          1           0        7.724641   -0.787568    1.529022
     57          1           0        8.304092   -2.158969    0.610700
     58          1           0       -1.155755   -2.289623    1.243143
     59          1           0       -0.533647   -2.516220    2.830452
     60          1           0       -1.779007   -0.218308   -0.111600
     61          1           0       -2.148020    4.912737   -1.653474
     62          1           0       -0.295476    4.312914   -0.691385
     63          1           0        8.214350   -0.529756   -3.037200
     64          1           0       -1.346132    4.544168    1.200160
     65          1           0       -2.801369    5.128927    0.841566
     66          1           0       -4.254651    4.185474   -2.040960
     67          1           0       -5.351106    2.743207   -1.531391
     68          1           0       -4.324760    2.589658   -3.028440
     69          1           0       -5.251859    0.375795   -1.613773
     70          1           0        9.722674   -1.000062   -0.492567
     71          1           0       10.223007   -0.986148   -2.130647
     72          1           0       -3.780232   -3.046034    3.678252
     73          1           0       -6.346160   -1.280363   -2.198811
     74          1           0       -4.443289   -5.427534   -2.363084
     75          1           0       -3.776749   -5.867066   -0.827307
     76          1           0       -5.576969   -5.227311   -0.858062
     77          1           0       -1.363180    8.185216    1.526721
     78          1           0       -7.957171   -3.051075   -2.844597
     79          1           0       -6.668355   -4.425153   -2.688157
 ---------------------------------------------------------------------

 SCF Done:  E(RB3LYP) =  -1947.86786119     A.U. after   16 cycles

 Excitation energies and oscillator strengths:

 Excited State   1:      Singlet-A      2.1731 eV  570.54 nm  f=0.5267  <S**2>=0.000
     154 ->156         0.11351
     155 ->156         0.69289
     155 <-156        -0.12161
 This state for optimization and/or second-order correction.
 Total Energy, E(TD-HF/TD-KS) =  -1947.78800091
 Copying the excited state density for this state as the 1-particle RhoCI density.

 The electronic state is 1-A.
 Alpha  occ. eigenvalues --  -19.19486 -19.18508 -19.14312 -19.10710 -19.10598
 Alpha  occ. eigenvalues --  -19.09958 -14.38864 -14.36810 -14.36391 -14.29504
 Alpha  occ. eigenvalues --  -10.33911 -10.29802 -10.28804 -10.26477 -10.26046
 Alpha  occ. eigenvalues --  -10.25226 -10.24718 -10.24441 -10.23865 -10.23712
 Alpha  occ. eigenvalues --  -10.23663 -10.23282 -10.22556 -10.21840 -10.21781
 Alpha  occ. eigenvalues --  -10.21412 -10.21218 -10.21083 -10.21065 -10.20725
 Alpha  occ. eigenvalues --  -10.20662 -10.20384 -10.20313 -10.20044 -10.20008
 Alpha  occ. eigenvalues --  -10.19960 -10.19890 -10.19833 -10.19655 -10.19646
 Alpha  occ. eigenvalues --  -10.19599 -10.18852 -10.17483  -1.10642  -1.07436
 Alpha  occ. eigenvalues --   -1.02042  -1.00297  -0.99969  -0.99801  -0.99199
 Alpha  occ. eigenvalues --   -0.97226  -0.94661  -0.92319  -0.83509  -0.81808
 Alpha  occ. eigenvalues --   -0.81591  -0.80638  -0.79980  -0.79123  -0.78249
 Alpha  occ. eigenvalues --   -0.76780  -0.75649  -0.74894  -0.74215  -0.72728
 Alpha  occ. eigenvalues --   -0.71595  -0.70885  -0.69111  -0.68572  -0.68051
 Alpha  occ. eigenvalues --   -0.66683  -0.66404  -0.64062  -0.61067  -0.60791
 Alpha  occ. eigenvalues --   -0.60394  -0.59090  -0.58032  -0.57857  -0.57325
 Alpha  occ. eigenvalues --   -0.56365  -0.55807  -0.54369  -0.53793  -0.52816
 Alpha  occ. eigenvalues --   -0.52220  -0.51891  -0.51400  -0.51243  -0.50203
 Alpha  occ. eigenvalues --   -0.49309  -0.48462  -0.48122  -0.47685  -0.47282
 Alpha  occ. eigenvalues --   -0.47106  -0.46698  -0.46455  -0.46159  -0.45679
 Alpha  occ. eigenvalues --   -0.45408  -0.44905  -0.44727  -0.43806  -0.43511
 Alpha  occ. eigenvalues --   -0.43487  -0.42871  -0.42599  -0.42514  -0.42363
 Alpha  occ. eigenvalues --   -0.42108  -0.41892  -0.41642  -0.41148  -0.40871
 Alpha  occ. eigenvalues --   -0.40757  -0.40308  -0.40106  -0.39625  -0.39474
 Alpha  occ. eigenvalues --   -0.39101  -0.38896  -0.38736  -0.38537  -0.38298
 Alpha  occ. eigenvalues --   -0.37879  -0.37724  -0.37462  -0.37082  -0.36368
 Alpha  occ. eigenvalues --   -0.36187  -0.35767  -0.35133  -0.34542  -0.34007
 Alpha  occ. eigenvalues --   -0.33279  -0.33161  -0.33068  -0.32411  -0.31957
 Alpha  occ. eigenvalues --   -0.31277  -0.30673  -0.29240  -0.28803  -0.27632
 Alpha  occ. eigenvalues --   -0.26895  -0.26609  -0.26414  -0.26072  -0.25400
 Alpha  occ. eigenvalues --   -0.24592  -0.24090  -0.23645  -0.22561  -0.19253
 Alpha virt. eigenvalues --   -0.10993  -0.06337  -0.05601  -0.02366  -0.01023
 Alpha virt. eigenvalues --    0.00359   0.00492   0.01729   0.02165   0.02919
 Alpha virt. eigenvalues --    0.03557   0.03634   0.04076   0.04221   0.04515

 Mulliken charges:
               1
     1  O   -0.224624
     2  O   -0.142062
     3  O   -0.235184
     4  O   -0.246074
     5  O   -0.250635
     6  O   -0.253305
     7  N   -0.168925
     8  N   -0.252591
     9  N   -0.020616
    10  N   -0.229066
    11  C    0.120941
    12  C    0.069171
    13  C   -0.008730
    14  C   -0.127490
    15  C   -0.016857
    16  C    0.126400
    17  C   -0.212118
    18  C    0.032480
    19  C   -0.004940
    20  C   -0.026269
    21  C    0.010714
    22  C    0.183267
    23  C   -0.073580
    24  C    0.062007
    25  C    0.095729
    26  C   -0.113104
    27  C   -0.042298
    28  C    0.050066
    29  C   -0.004248
    30  C    0.003500
    31  C    0.099009
    32  C    0.053588
    33  C   -0.174522
    34  C    0.097236
    35  C    0.130854
    36  C   -0.060035
    37  C    0.187765
    38  C    0.014582
    39  C   -0.180988
    40  C    0.151752
    41  C   -0.000897
    42  C    0.053157
    43  C   -0.046461
    44  H    0.036796
    45  H   -0.002811
    46  H    0.015142
    47  H    0.167173
    48  H    0.172484
    49  H   -0.010250
    50  H    0.059242
    51  H   -0.055778
    52  H    0.011324
    53  H    0.034159
    54  H    0.043972
    55  H    0.020725
    56  H    0.027226
    57  H    0.048876
    58  H    0.109697
    59  H   -0.041107
    60  H    0.130794
    61  H    0.052449
    62  H    0.040034
    63  H    0.003558
    64  H   -0.010900
    65  H    0.019318
    66  H    0.028204
    67  H    0.040242
    68  H    0.052463
    69  H    0.039552
    70  H   -0.006164
    71  H    0.011648
    72  H    0.192896
    73  H   -0.017881
    74  H    0.038712
    75  H    0.023681
    76  H    0.043606
    77  H    0.204735
    78  H    0.011422
    79  H    0.038163
 Sum of Mulliken charges =   0.00000

 Dipole moment (field-independent basis, Debye):
    X=              0.2158    Y=              2.7273    Z=              4.6864  Tot=              5.4265
 Quadrupole moment (field-independent basis, Debye-Ang):
   XX=           -222.8885   YY=           -245.5373   ZZ=           -265.2982
   XY=            -11.1074   XZ=             33.4277   YZ=              5.6202

 Normal termination of Gaussian 09 at Wed Jul 10 08:25:03 2019.
