 Gaussian 09, Revision D.01,
 Gaussian 09:  ES64L-G09RevD.01 24-Apr-2013

 --------------------------
 # td=(NStates=1) B3LYP/SVP
 --------------------------

 --
 TD
 --
 Symbolic Z-matrix:
 Charge =  0 Multiplicity = 1

                         Standard orientation:
 ---------------------------------------------------------------------
 Center     Atomic      Atomic             Coordinates (Angstroms)
 Number     Number       Type             X           Y           Z
 ---------------------------------------------------------------------
      1          8           0        5.516358   -0.046657   -3.314870
      2          8           0       -2.960344   -3.128720    3.337309
      3          8           0       -3.285664   -0.857203    3.163854
      4          8           0       -1.558588    7.323656    1.415058
      5          8           0       -0.438012    7.008499   -0.432360
      6          8           0       -1.924372   -4.080974   -0.229426
      7          7           0        2.407155    0.812771    0.643171
      8          7           0        4.459016   -0.428042   -1.251842
      9          7           0       -1.845215    0.646811   -0.335437
     10          7           0       -2.635045   -1.832909   -0.665882
     11          6           0        4.853509   -1.146300   -0.081800
     12          6           0        4.419257   -0.458163    1.222462
     13          6           0        2.980407   -0.144538    1.384390
     14          6           0        2.035869   -0.841966    2.147108
     15          6           0        0.732581   -0.253648    1.763663
     16          6           0        1.009358    0.774244    0.787210
     17          6           0        6.342498   -1.455050   -0.301841
     18          6           0       -0.588022   -0.372942    2.496324
     19          6           0        6.796105   -0.852011   -1.423415
     20          6           0        0.240038    1.867507    0.297722
     21          6           0       -1.119132    1.777476   -0.251449
     22          6           0        5.531886   -0.322773   -2.148277
     23          6           0       -1.945807    2.913343   -0.747730
     24          6           0        2.190197   -2.058080    3.006157
     25          6           0        7.194424   -2.091876    0.730046
     26          6           0       -3.152359    2.382297   -1.141184
     27          6           0       -1.208790   -1.732931    2.339456
     28          6           0       -3.096728    1.043397   -0.898710
     29          6           0       -1.363202    4.329934   -0.790035
     30          6           0        8.107022   -0.745313   -1.956015
     31          6           0       -1.563975    5.127778    0.582480
     32          6           0       -4.298840    3.119142   -1.578993
     33          6           0       -4.044421    0.058017   -1.333189
     34          6           0       -2.657079   -1.777487    2.935245
     35          6           0       -3.840218   -1.279229   -1.149642
     36          6           0        9.231683   -0.720319   -1.278309
     37          6           0       -1.151545    6.549634    0.474712
     38          6           0       -4.824527   -2.448066   -1.516871
     39          6           0       -4.171712   -3.597171   -1.116229
     40          6           0       -2.847305   -3.232701   -0.596481
     41          6           0       -6.104665   -2.142287   -2.142384
     42          6           0       -4.543222   -5.023723   -1.262539
     43          6           0       -7.020364   -3.010521   -2.583908
     44          1           0        4.382811   -2.043472   -0.025225
     45          1           0        4.965144    0.548767    1.305362
     46          1           0        4.786988   -1.258243    2.019398
     47          1           0        2.928389    1.468200   -0.004214
     48          1           0        3.445127   -0.383495   -1.525561
     49          1           0       -0.138105   -0.093566    3.549869
     50          1           0       -1.328651    0.497447    2.142623
     51          1           0        0.648064    2.814775    0.175522
     52          1           0        3.285186   -2.178804    3.251196
     53          1           0        1.525519   -1.950341    3.943959
     54          1           0        1.725053   -3.044123    2.479702
     55          1           0        6.577129   -3.001145    1.291406
     56          1           0        7.802178   -1.472724    1.417541
     57          1           0        8.067447   -2.510710    0.349906
     58          1           0       -1.193531   -2.103582    1.448522
     59          1           0       -0.706006   -2.563311    3.061091
     60          1           0       -1.565050   -0.482494   -0.336256
     61          1           0       -1.966201    5.040666   -1.657351
     62          1           0       -0.382771    4.487853   -1.257299
     63          1           0        8.308192   -0.485279   -3.012816
     64          1           0       -0.965481    4.531209    1.392510
     65          1           0       -2.611193    5.131600    0.800574
     66          1           0       -4.103562    4.309981   -1.674952
     67          1           0       -5.153632    2.823730   -0.989751
     68          1           0       -4.733249    2.876238   -2.608080
     69          1           0       -5.109864    0.269403   -1.668527
     70          1           0        9.362536   -0.638618   -0.126287
     71          1           0       10.150736   -0.830254   -1.896992
     72          1           0       -3.861419   -3.120181    3.599032
     73          1           0       -6.369509   -1.061958   -2.236352
     74          1           0       -4.465849   -5.287508   -2.365725
     75          1           0       -3.788712   -5.949587   -0.772609
     76          1           0       -5.613113   -5.418717   -0.914914
     77          1           0       -1.191274    8.267783    1.345288
     78          1           0       -7.959686   -2.529230   -3.217703
     79          1           0       -6.987575   -4.213573   -2.737311
 ---------------------------------------------------------------------

 SCF Done:  E(RB3LYP) =  -1947.85694215     A.U. after   19 cycles

 Excitation energies and oscillator strengths:

 Excited State   1:      Singlet-A      1.9400 eV  639.08 nm  f=0.3929  <S**2>=0.000
     154 ->156         0.21649
     155 ->156         0.66898
     155 <-156        -0.13365
 This state for optimization and/or second-order correction.
 Total Energy, E(TD-HF/TD-KS) =  -1947.78564717
 Copying the excited state density for this state as the 1-particle RhoCI density.

 The electronic state is 1-A.
 Alpha  occ. eigenvalues --  -19.20110 -19.15040 -19.13083 -19.11989 -19.10591
 Alpha  occ. eigenvalues --  -19.08811 -14.39467 -14.36584 -14.36039 -14.29564
 Alpha  occ. eigenvalues --  -10.32629 -10.30537 -10.29140 -10.25883 -10.24763
 Alpha  occ. eigenvalues --  -10.24666 -10.24244 -10.24068 -10.23940 -10.23163
 Alpha  occ. eigenvalues --  -10.23113 -10.22901 -10.22804 -10.22666 -10.22230
 Alpha  occ. eigenvalues --  -10.22122 -10.21566 -10.21517 -10.21293 -10.21120
 Alpha  occ. eigenvalues --  -10.20994 -10.20907 -10.20857 -10.20822 -10.20547
 Alpha  occ. eigenvalues --  -10.20483 -10.20460 -10.20452 -10.20087 -10.20079
 Alpha  occ. eigenvalues --  -10.20019 -10.19806 -10.18502  -1.12152  -1.09405
 Alpha  occ. eigenvalues --   -1.03492  -1.00293  -0.99374  -0.99344  -0.97761
 Alpha  occ. eigenvalues --   -0.95958  -0.94708  -0.88855  -0.83129  -0.83055
 Alpha  occ. eigenvalues --   -0.81666  -0.81184  -0.80152  -0.79534  -0.78054
 Alpha  occ. eigenvalues --   -0.77519  -0.76289  -0.75942  -0.74434  -0.72740
 Alpha  occ. eigenvalues --   -0.71748  -0.71034  -0.69560  -0.68629  -0.67966
 Alpha  occ. eigenvalues --   -0.66474  -0.65810  -0.63379  -0.61652  -0.61520
 Alpha  occ. eigenvalues --   -0.60152  -0.58094  -0.57936  -0.57280  -0.56663
 Alpha  occ. eigenvalues --   -0.55685  -0.55372  -0.54938  -0.54405  -0.53196
 Alpha  occ. eigenvalues --   -0.52245  -0.51837  -0.51002  -0.50529  -0.49847
 Alpha  occ. eigenvalues --   -0.49074  -0.48929  -0.48648  -0.48312  -0.47633
 Alpha  occ. eigenvalues --   -0.47352  -0.47143  -0.46632  -0.46359  -0.45836
 Alpha  occ. eigenvalues --   -0.45378  -0.45114  -0.44918  -0.43878  -0.43263
 Alpha  occ. eigenvalues --   -0.43191  -0.43002  -0.42750  -0.42612  -0.42162
 Alpha  occ. eigenvalues --   -0.41730  -0.41611  -0.41324  -0.41194  -0.41065
 Alpha  occ. eigenvalues --   -0.40441  -0.40101  -0.39827  -0.39723  -0.39371
 Alpha  occ. eigenvalues --   -0.39100  -0.39023  -0.38750  -0.38455  -0.38149
 Alpha  occ. eigenvalues --   -0.37832  -0.37786  -0.37348  -0.37103  -0.36993
 Alpha  occ. eigenvalues --   -0.36446  -0.35819  -0.35304  -0.34716  -0.33729
 Alpha  occ. eigenvalues --   -0.32761  -0.32547  -0.32324  -0.32216  -0.32141
 Alpha  occ. eigenvalues --   -0.31430  -0.31096  -0.28300  -0.27972  -0.27507
 Alpha  occ. eigenvalues --   -0.27052  -0.26913  -0.26165  -0.25743  -0.24633
 Alpha  occ. eigenvalues --   -0.24507  -0.23873  -0.23064  -0.22074  -0.19132
 Alpha virt. eigenvalues --   -0.11741  -0.06801  -0.05712  -0.00965  -0.00527
 Alpha virt. eigenvalues --    0.00702   0.00814   0.01722   0.02504   0.02714
 Alpha virt. eigenvalues --    0.03041   0.03163   0.03549   0.04508   0.04848

 Mulliken charges:
               1
     1  O   -0.191133
     2  O   -0.238131
     3  O   -0.129964
     4  O   -0.144967
     5  O   -0.275633
     6  O   -0.298777
     7  N   -0.094652
     8  N   -0.238504
     9  N   -0.155645
    10  N   -0.355470
    11  C    0.175935
    12  C    0.120075
    13  C   -0.066385
    14  C   -0.128472
    15  C   -0.095779
    16  C    0.107673
    17  C   -0.149922
    18  C    0.007229
    19  C   -0.015090
    20  C   -0.047536
    21  C    0.018868
    22  C    0.155988
    23  C   -0.031864
    24  C    0.030671
    25  C    0.055232
    26  C   -0.078041
    27  C    0.038375
    28  C    0.146034
    29  C   -0.054225
    30  C   -0.024993
    31  C    0.025762
    32  C    0.060871
    33  C   -0.125446
    34  C    0.135962
    35  C    0.070642
    36  C   -0.078704
    37  C    0.107451
    38  C    0.089889
    39  C   -0.116005
    40  C    0.199315
    41  C   -0.006746
    42  C   -0.063594
    43  C   -0.122655
    44  H   -0.026087
    45  H    0.003953
    46  H    0.021998
    47  H    0.142683
    48  H    0.147621
    49  H    0.041029
    50  H    0.059604
    51  H   -0.034350
    52  H    0.017452
    53  H    0.034063
    54  H    0.070929
    55  H    0.037606
    56  H    0.035609
    57  H   -0.002713
    58  H   -0.007015
    59  H    0.047868
    60  H    0.234542
    61  H    0.031863
    62  H    0.044372
    63  H    0.022411
    64  H    0.068168
    65  H    0.029900
    66  H    0.040548
    67  H    0.021584
    68  H    0.022840
    69  H   -0.009439
    70  H    0.032006
    71  H    0.032968
    72  H    0.151464
    73  H    0.005619
    74  H    0.041591
    75  H    0.062042
    76  H    0.043077
    77  H    0.216591
    78  H    0.038309
    79  H    0.061650
 Sum of Mulliken charges =   0.00000

 Dipole moment (field-independent basis, Debye):
    X=              1.0175    Y=              4.3394    Z=              3.5343  Tot=              5.6884
 Quadrupole moment (field-independent basis, Debye-Ang):
   XX=           -214.7042   YY=           -246.7893   ZZ=           -265.3038
   XY=            -14.9775   XZ=             30.2073   YZ=              8.0708

 Normal termination of Gaussian 09 at Tue Jul  9 21:08:54 2019.
