 Gaussian 09, Revision D.01,
 Gaussian 09:  ES64L-G09RevD.01 24-Apr-2013

 --------------------------
 # td=(NStates=1) B3LYP/SVP
 --------------------------

 --
 TD
 --
 Symbolic Z-matrix:
 Charge =  0 Multiplicity = 1

                         Standard orientation:
 ---------------------------------------------------------------------
 Center     Atomic      Atomic             Coordinates (Angstroms)
 Number     Number       Type             X           Y           Z
 ---------------------------------------------------------------------
      1          8           0        5.565133    0.206436   -3.226605
      2          8           0       -3.080906   -3.185620    2.988574
      3          8           0       -3.323558   -0.960957    3.295308
      4          8           0       -1.274679    7.133403    1.760809
      5          8           0       -0.003232    7.021086    0.017722
      6          8           0       -2.444816   -3.927383    0.134187
      7          7           0        2.393746    0.784205    0.745146
      8          7           0        4.445560   -0.488199   -1.253143
      9          7           0       -1.903782    0.771327   -0.369099
     10          7           0       -2.853935   -1.724862   -0.562394
     11          6           0        4.762163   -1.307649   -0.141976
     12          6           0        4.458827   -0.695090    1.286815
     13          6           0        2.923037   -0.356118    1.329781
     14          6           0        1.990697   -1.060504    2.035831
     15          6           0        0.731568   -0.403117    1.742709
     16          6           0        1.042723    0.747926    0.908817
     17          6           0        6.290238   -1.571207   -0.283560
     18          6           0       -0.599246   -0.632718    2.480977
     19          6           0        6.733020   -0.889202   -1.456313
     20          6           0        0.248890    1.786238    0.319372
     21          6           0       -1.037853    1.826511   -0.086043
     22          6           0        5.588771   -0.243897   -2.126358
     23          6           0       -1.656129    2.987869   -0.767884
     24          6           0        2.095823   -2.220545    2.983574
     25          6           0        7.252534   -2.277812    0.728197
     26          6           0       -2.909156    2.588624   -1.205248
     27          6           0       -1.145082   -2.017637    2.575809
     28          6           0       -3.006063    1.117688   -1.013504
     29          6           0       -1.194053    4.443031   -0.711548
     30          6           0        7.945360   -0.709279   -2.170975
     31          6           0       -1.452954    5.183344    0.640766
     32          6           0       -3.961097    3.497043   -1.835829
     33          6           0       -4.031470    0.204137   -1.410538
     34          6           0       -2.586184   -1.953065    2.894811
     35          6           0       -3.923367   -1.208177   -1.186001
     36          6           0        9.195313   -1.112125   -1.673478
     37          6           0       -0.914267    6.536635    0.647724
     38          6           0       -4.985714   -2.170852   -1.624685
     39          6           0       -4.366094   -3.422239   -1.171293
     40          6           0       -2.986010   -3.072036   -0.543850
     41          6           0       -6.170829   -1.781502   -2.352239
     42          6           0       -4.931810   -4.794409   -1.466011
     43          6           0       -7.041251   -2.743251   -2.854717
     44          1           0        4.151228   -2.517913   -0.193658
     45          1           0        5.034379    0.326405    1.450272
     46          1           0        4.966447   -1.442452    2.068707
     47          1           0        2.904731    1.300633    0.046617
     48          1           0        3.510113   -0.712050   -1.488050
     49          1           0       -0.333816   -0.447257    3.584250
     50          1           0       -1.424850    0.133242    1.929989
     51          1           0        0.644179    2.715731    0.087656
     52          1           0        3.135227   -2.440794    3.166355
     53          1           0        1.414206   -2.343464    3.842092
     54          1           0        1.716657   -3.229291    2.616443
     55          1           0        6.758773   -2.680226    1.644053
     56          1           0        7.857691   -1.346968    1.226313
     57          1           0        7.868844   -3.158897    0.174860
     58          1           0       -1.197805   -2.580315    1.676014
     59          1           0       -0.673984   -2.629504    3.506128
     60          1           0       -1.622302   -0.219993   -0.281141
     61          1           0       -1.677146    4.950898   -1.453464
     62          1           0        0.047171    4.561461   -0.727371
     63          1           0        7.621535   -0.386429   -3.201893
     64          1           0       -0.857348    4.453018    1.417450
     65          1           0       -2.626866    5.071243    0.686564
     66          1           0       -3.634492    4.378087   -2.041302
     67          1           0       -4.921357    3.661009   -1.346936
     68          1           0       -4.182306    3.090146   -2.874044
     69          1           0       -4.874432    0.699065   -1.968562
     70          1           0        9.346487   -1.688359   -0.639045
     71          1           0       10.165656   -0.944661   -2.210698
     72          1           0       -4.026395   -3.257805    3.177573
     73          1           0       -6.324197   -0.803792   -2.156985
     74          1           0       -4.997294   -5.084430   -2.467266
     75          1           0       -4.413652   -5.596129   -0.980130
     76          1           0       -5.871679   -4.681290   -0.867430
     77          1           0       -0.811829    7.908020    1.900483
     78          1           0       -8.042257   -2.543188   -3.304598
     79          1           0       -6.865980   -3.866474   -2.641585
 ---------------------------------------------------------------------

 SCF Done:  E(RB3LYP) =  -1947.81633013     A.U. after   16 cycles

 Excitation energies and oscillator strengths:

 Excited State   1:      Singlet-A      2.1569 eV  574.83 nm  f=0.3149  <S**2>=0.000
     154 ->156         0.40359
     155 ->156         0.57652
 This state for optimization and/or second-order correction.
 Total Energy, E(TD-HF/TD-KS) =  -1947.73706658
 Copying the excited state density for this state as the 1-particle RhoCI density.

 The electronic state is 1-A.
 Alpha  occ. eigenvalues --  -19.18087 -19.16159 -19.13108 -19.12537 -19.09873
 Alpha  occ. eigenvalues --  -19.09640 -14.39063 -14.36949 -14.35566 -14.28743
 Alpha  occ. eigenvalues --  -10.32678 -10.30362 -10.29991 -10.27308 -10.26186
 Alpha  occ. eigenvalues --  -10.25232 -10.24263 -10.24240 -10.24195 -10.23997
 Alpha  occ. eigenvalues --  -10.23941 -10.23778 -10.23586 -10.23248 -10.21892
 Alpha  occ. eigenvalues --  -10.21735 -10.21722 -10.21707 -10.21593 -10.20903
 Alpha  occ. eigenvalues --  -10.20689 -10.20674 -10.20417 -10.20271 -10.20239
 Alpha  occ. eigenvalues --  -10.20182 -10.19980 -10.19786 -10.19696 -10.19618
 Alpha  occ. eigenvalues --  -10.19537 -10.19442 -10.18011  -1.12567  -1.06925
 Alpha  occ. eigenvalues --   -1.05543  -1.01326  -1.01090  -0.99496  -0.99089
 Alpha  occ. eigenvalues --   -0.94790  -0.94188  -0.91692  -0.83205  -0.81896
 Alpha  occ. eigenvalues --   -0.81764  -0.81552  -0.79590  -0.78917  -0.78618
 Alpha  occ. eigenvalues --   -0.77206  -0.76157  -0.74763  -0.73798  -0.72775
 Alpha  occ. eigenvalues --   -0.71788  -0.70938  -0.69943  -0.69772  -0.68697
 Alpha  occ. eigenvalues --   -0.67475  -0.65464  -0.63641  -0.62218  -0.61579
 Alpha  occ. eigenvalues --   -0.60644  -0.59926  -0.59172  -0.58001  -0.57239
 Alpha  occ. eigenvalues --   -0.56741  -0.55560  -0.54643  -0.53385  -0.52461
 Alpha  occ. eigenvalues --   -0.51972  -0.51698  -0.51112  -0.50423  -0.50404
 Alpha  occ. eigenvalues --   -0.48958  -0.48562  -0.47915  -0.47783  -0.47501
 Alpha  occ. eigenvalues --   -0.46782  -0.46456  -0.45994  -0.45554  -0.45486
 Alpha  occ. eigenvalues --   -0.45091  -0.44826  -0.44588  -0.44017  -0.43635
 Alpha  occ. eigenvalues --   -0.43531  -0.43434  -0.43171  -0.42984  -0.42735
 Alpha  occ. eigenvalues --   -0.42361  -0.42112  -0.41491  -0.41262  -0.41131
 Alpha  occ. eigenvalues --   -0.40695  -0.40515  -0.40257  -0.39828  -0.39625
 Alpha  occ. eigenvalues --   -0.39423  -0.39028  -0.38775  -0.38577  -0.38365
 Alpha  occ. eigenvalues --   -0.38223  -0.37963  -0.37616  -0.36913  -0.36662
 Alpha  occ. eigenvalues --   -0.35835  -0.35258  -0.34637  -0.34541  -0.34398
 Alpha  occ. eigenvalues --   -0.33960  -0.33508  -0.33015  -0.32026  -0.31344
 Alpha  occ. eigenvalues --   -0.31046  -0.29014  -0.28855  -0.28378  -0.28255
 Alpha  occ. eigenvalues --   -0.27696  -0.27012  -0.26146  -0.25086  -0.24738
 Alpha  occ. eigenvalues --   -0.23836  -0.23347  -0.23025  -0.21029  -0.19285
 Alpha virt. eigenvalues --   -0.10642  -0.07692  -0.06488  -0.02423  -0.01495
 Alpha virt. eigenvalues --   -0.00806   0.00021   0.00789   0.01874   0.02915
 Alpha virt. eigenvalues --    0.03103   0.03318   0.04686   0.04916   0.05304

 Mulliken charges:
               1
     1  O   -0.176839
     2  O   -0.164778
     3  O   -0.320507
     4  O   -0.112108
     5  O   -0.226211
     6  O   -0.219138
     7  N   -0.039297
     8  N   -0.201328
     9  N   -0.041079
    10  N   -0.259739
    11  C   -0.045851
    12  C    0.091202
    13  C   -0.089243
    14  C   -0.074554
    15  C   -0.081974
    16  C    0.081557
    17  C   -0.123918
    18  C   -0.002880
    19  C   -0.101039
    20  C   -0.003290
    21  C    0.040397
    22  C    0.193835
    23  C   -0.060695
    24  C    0.112045
    25  C   -0.017967
    26  C   -0.142843
    27  C    0.013657
    28  C    0.060173
    29  C    0.019619
    30  C    0.004045
    31  C   -0.078738
    32  C    0.185712
    33  C   -0.126457
    34  C    0.145301
    35  C    0.096860
    36  C   -0.085832
    37  C    0.138487
    38  C   -0.010153
    39  C   -0.242656
    40  C    0.173644
    41  C    0.059429
    42  C    0.112958
    43  C   -0.058566
    44  H    0.054591
    45  H    0.021693
    46  H    0.040003
    47  H    0.119090
    48  H    0.125532
    49  H    0.029199
    50  H    0.073974
    51  H   -0.061982
    52  H   -0.008991
    53  H    0.006027
    54  H    0.018491
    55  H    0.024259
    56  H    0.069800
    57  H    0.086597
    58  H    0.034231
    59  H    0.059351
    60  H    0.148220
    61  H   -0.004300
    62  H    0.050325
    63  H    0.044608
    64  H    0.088556
    65  H    0.061536
    66  H   -0.069337
    67  H    0.030602
    68  H    0.024816
    69  H   -0.008892
    70  H    0.049245
    71  H    0.040419
    72  H    0.181825
    73  H   -0.035477
    74  H    0.033917
    75  H   -0.001886
    76  H    0.034938
    77  H    0.146932
    78  H    0.029855
    79  H    0.040995
 Sum of Mulliken charges =   0.00000

 Dipole moment (field-independent basis, Debye):
    X=              2.0000    Y=              1.1114    Z=              1.9888  Tot=              3.0316
 Quadrupole moment (field-independent basis, Debye-Ang):
   XX=           -225.7141   YY=           -242.5016   ZZ=           -264.8902
   XY=            -21.1220   XZ=             33.3231   YZ=              1.6231

 Normal termination of Gaussian 09 at Tue Jul  9 03:19:08 2019.
