 Gaussian 09, Revision D.01,
 Gaussian 09:  ES64L-G09RevD.01 24-Apr-2013

 --------------------------
 # td=(NStates=1) B3LYP/SVP
 --------------------------

 --
 TD
 --
 Symbolic Z-matrix:
 Charge =  0 Multiplicity = 1

                         Standard orientation:
 ---------------------------------------------------------------------
 Center     Atomic      Atomic             Coordinates (Angstroms)
 Number     Number       Type             X           Y           Z
 ---------------------------------------------------------------------
      1          8           0        5.655405   -0.152408   -3.310221
      2          8           0       -3.022576   -3.136900    3.371182
      3          8           0       -3.393363   -0.977955    3.055511
      4          8           0       -0.913787    7.162997    1.668995
      5          8           0       -0.259353    6.941607   -0.452318
      6          8           0       -2.133813   -4.034462   -0.273865
      7          7           0        2.348813    0.758109    0.610346
      8          7           0        4.506451   -0.680940   -1.370169
      9          7           0       -2.034991    0.822592   -0.134584
     10          7           0       -2.845914   -1.758102   -0.400751
     11          6           0        4.800987   -1.347819   -0.012152
     12          6           0        4.376407   -0.483597    1.174450
     13          6           0        2.937000   -0.225644    1.278752
     14          6           0        1.939509   -0.828741    2.009292
     15          6           0        0.705100   -0.282932    1.707546
     16          6           0        0.946264    0.741827    0.818157
     17          6           0        6.310210   -1.515808   -0.159653
     18          6           0       -0.554519   -0.485369    2.448982
     19          6           0        6.787791   -0.905800   -1.367005
     20          6           0        0.208476    1.800251    0.124106
     21          6           0       -1.119964    1.903716   -0.104213
     22          6           0        5.663223   -0.527868   -2.143166
     23          6           0       -1.866921    2.982835   -0.783398
     24          6           0        2.198802   -1.914469    3.057027
     25          6           0        7.153287   -2.082738    0.907132
     26          6           0       -3.108147    2.543153   -1.203623
     27          6           0       -1.192171   -1.853408    2.419975
     28          6           0       -3.187315    1.196709   -0.759031
     29          6           0       -1.355458    4.443054   -0.800263
     30          6           0        8.146490   -0.979746   -2.067320
     31          6           0       -1.374139    5.120615    0.458882
     32          6           0       -4.264610    3.383616   -1.681331
     33          6           0       -4.164427    0.156268   -1.186552
     34          6           0       -2.595430   -1.910313    2.950709
     35          6           0       -3.963260   -1.143963   -0.940478
     36          6           0        9.326365   -0.853902   -1.459387
     37          6           0       -0.826886    6.494086    0.487032
     38          6           0       -4.953938   -2.341269   -1.493047
     39          6           0       -4.293306   -3.496626   -1.176222
     40          6           0       -2.957044   -3.111034   -0.632143
     41          6           0       -6.203360   -1.990780   -2.156551
     42          6           0       -4.789748   -4.885863   -1.420110
     43          6           0       -6.923016   -2.920857   -2.820097
     44          1           0        4.383940   -2.173283    0.187076
     45          1           0        4.841647    0.530885    1.369597
     46          1           0        4.587832   -0.912507    2.134195
     47          1           0        2.840452    1.198018   -0.165512
     48          1           0        3.613267   -0.929523   -1.788612
     49          1           0       -0.400894   -0.467196    3.444489
     50          1           0       -1.309691    0.358615    2.174495
     51          1           0        0.625338    2.669259   -0.338957
     52          1           0        3.240927   -2.165418    3.298332
     53          1           0        1.805985   -1.567184    4.022615
     54          1           0        1.742168   -2.891002    2.749799
     55          1           0        6.719848   -2.858875    1.631573
     56          1           0        7.392945   -1.348068    1.703721
     57          1           0        8.041997   -2.418664    0.344817
     58          1           0       -1.320171   -2.166267    1.316131
     59          1           0       -0.643729   -2.581790    2.899461
     60          1           0       -1.760093   -0.161031   -0.043067
     61          1           0       -1.934877    5.074490   -1.708881
     62          1           0       -0.229330    4.371793   -1.273356
     63          1           0        8.073089   -0.944035   -3.123473
     64          1           0       -0.796930    4.562498    1.253187
     65          1           0       -2.354284    5.248721    1.008250
     66          1           0       -3.921443    4.395271   -2.183343
     67          1           0       -5.112042    3.483962   -0.834328
     68          1           0       -4.856479    2.788044   -2.533889
     69          1           0       -5.085176    0.672662   -1.800781
     70          1           0        9.338672   -1.105806   -0.381468
     71          1           0       10.179737   -0.716495   -2.164820
     72          1           0       -3.860820   -3.088691    3.814913
     73          1           0       -6.564576   -0.970552   -1.888723
     74          1           0       -4.671239   -5.117731   -2.504283
     75          1           0       -4.248158   -5.556973   -0.867928
     76          1           0       -5.799319   -5.087915   -1.133172
     77          1           0       -0.449961    8.014785    1.420582
     78          1           0       -7.701572   -2.671973   -3.344133
     79          1           0       -6.525196   -3.948167   -2.960465
 ---------------------------------------------------------------------

 SCF Done:  E(RB3LYP) =  -1947.90179304     A.U. after   22 cycles

 Excitation energies and oscillator strengths:

 Excited State   1:      Singlet-A      2.1057 eV  588.79 nm  f=0.2848  <S**2>=0.000
     154 ->156         0.30818
     155 ->156         0.63674
 This state for optimization and/or second-order correction.
 Total Energy, E(TD-HF/TD-KS) =  -1947.82440824
 Copying the excited state density for this state as the 1-particle RhoCI density.

 The electronic state is 1-A.
 Alpha  occ. eigenvalues --  -19.19320 -19.15328 -19.13503 -19.10337 -19.09951
 Alpha  occ. eigenvalues --  -19.07756 -14.38792 -14.37179 -14.35841 -14.28648
 Alpha  occ. eigenvalues --  -10.32500 -10.30082 -10.28670 -10.25608 -10.25351
 Alpha  occ. eigenvalues --  -10.24989 -10.24618 -10.24268 -10.24219 -10.23741
 Alpha  occ. eigenvalues --  -10.23336 -10.23254 -10.23244 -10.22739 -10.22574
 Alpha  occ. eigenvalues --  -10.22494 -10.22281 -10.22112 -10.21677 -10.21612
 Alpha  occ. eigenvalues --  -10.20674 -10.20348 -10.20342 -10.20110 -10.19967
 Alpha  occ. eigenvalues --  -10.19606 -10.19325 -10.18942 -10.18774 -10.18180
 Alpha  occ. eigenvalues --  -10.18030 -10.17668 -10.16586  -1.11266  -1.06752
 Alpha  occ. eigenvalues --   -1.02466  -1.02156  -1.00466  -0.98519  -0.96798
 Alpha  occ. eigenvalues --   -0.96090  -0.93191  -0.88685  -0.83676  -0.83500
 Alpha  occ. eigenvalues --   -0.82627  -0.82188  -0.81028  -0.79635  -0.79052
 Alpha  occ. eigenvalues --   -0.77985  -0.77378  -0.76050  -0.74364  -0.73408
 Alpha  occ. eigenvalues --   -0.72754  -0.71409  -0.70216  -0.68649  -0.68239
 Alpha  occ. eigenvalues --   -0.68057  -0.67044  -0.64358  -0.61003  -0.60675
 Alpha  occ. eigenvalues --   -0.60008  -0.59392  -0.58672  -0.57752  -0.57599
 Alpha  occ. eigenvalues --   -0.56392  -0.55879  -0.55055  -0.54315  -0.53331
 Alpha  occ. eigenvalues --   -0.53001  -0.52294  -0.51171  -0.50537  -0.50065
 Alpha  occ. eigenvalues --   -0.49794  -0.49467  -0.49283  -0.48447  -0.47941
 Alpha  occ. eigenvalues --   -0.47526  -0.47291  -0.47054  -0.46030  -0.45659
 Alpha  occ. eigenvalues --   -0.45235  -0.45045  -0.44684  -0.44214  -0.44054
 Alpha  occ. eigenvalues --   -0.43431  -0.43146  -0.42872  -0.42371  -0.42327
 Alpha  occ. eigenvalues --   -0.41998  -0.41966  -0.41724  -0.41572  -0.41443
 Alpha  occ. eigenvalues --   -0.41248  -0.40990  -0.40707  -0.40322  -0.40067
 Alpha  occ. eigenvalues --   -0.39835  -0.39581  -0.39432  -0.38880  -0.38484
 Alpha  occ. eigenvalues --   -0.38005  -0.37915  -0.37627  -0.37367  -0.36954
 Alpha  occ. eigenvalues --   -0.36753  -0.35816  -0.34579  -0.34410  -0.34237
 Alpha  occ. eigenvalues --   -0.33797  -0.33649  -0.33212  -0.32424  -0.30991
 Alpha  occ. eigenvalues --   -0.30742  -0.29498  -0.29266  -0.28744  -0.27539
 Alpha  occ. eigenvalues --   -0.26777  -0.26324  -0.25992  -0.25530  -0.25255
 Alpha  occ. eigenvalues --   -0.24827  -0.23634  -0.22062  -0.21483  -0.19450
 Alpha virt. eigenvalues --   -0.10974  -0.07320  -0.05468  -0.00864  -0.00487
 Alpha virt. eigenvalues --   -0.00008   0.01113   0.01924   0.02325   0.02436
 Alpha virt. eigenvalues --    0.03780   0.03931   0.04287   0.04530   0.04885

 Mulliken charges:
               1
     1  O   -0.226447
     2  O   -0.184824
     3  O   -0.258967
     4  O   -0.202370
     5  O   -0.205108
     6  O   -0.303095
     7  N   -0.054641
     8  N   -0.245429
     9  N   -0.093014
    10  N   -0.304864
    11  C    0.284804
    12  C    0.191587
    13  C   -0.167030
    14  C   -0.126317
    15  C   -0.034689
    16  C    0.082792
    17  C   -0.164012
    18  C    0.092878
    19  C   -0.059570
    20  C   -0.010519
    21  C    0.045123
    22  C    0.150800
    23  C   -0.066306
    24  C    0.076417
    25  C    0.037785
    26  C   -0.090780
    27  C    0.021645
    28  C    0.065111
    29  C   -0.019921
    30  C   -0.003827
    31  C    0.040157
    32  C   -0.013534
    33  C   -0.148731
    34  C    0.115915
    35  C    0.141104
    36  C   -0.015672
    37  C    0.100520
    38  C    0.006969
    39  C   -0.193693
    40  C    0.174792
    41  C   -0.033688
    42  C    0.153773
    43  C    0.053064
    44  H   -0.064142
    45  H    0.007994
    46  H   -0.025826
    47  H    0.119298
    48  H    0.132639
    49  H   -0.036435
    50  H    0.043954
    51  H   -0.031212
    52  H   -0.008219
    53  H    0.020896
    54  H    0.050104
    55  H    0.025886
    56  H    0.044231
    57  H    0.056283
    58  H    0.092677
    59  H   -0.009763
    60  H    0.153415
    61  H    0.046883
    62  H    0.051076
    63  H    0.008189
    64  H    0.045968
    65  H    0.040632
    66  H    0.048063
    67  H    0.067468
    68  H    0.043419
    69  H    0.026243
    70  H    0.023998
    71  H    0.042736
    72  H    0.169516
    73  H    0.006478
    74  H    0.030960
    75  H   -0.015711
    76  H    0.007217
    77  H    0.192154
    78  H   -0.035266
    79  H    0.020006
 Sum of Mulliken charges =   0.00000

 Dipole moment (field-independent basis, Debye):
    X=              3.3181    Y=              3.6467    Z=              3.7424  Tot=              6.1898
 Quadrupole moment (field-independent basis, Debye-Ang):
   XX=           -223.0676   YY=           -250.8517   ZZ=           -259.3425
   XY=            -21.7765   XZ=             33.8780   YZ=              0.1576

 Normal termination of Gaussian 09 at Mon Jul  8 04:36:20 2019.
