 Gaussian 09, Revision D.01,
 Gaussian 09:  ES64L-G09RevD.01 24-Apr-2013

 --------------------------
 # td=(NStates=1) B3LYP/SVP
 --------------------------

 --
 TD
 --
 Symbolic Z-matrix:
 Charge =  0 Multiplicity = 1

                         Standard orientation:
 ---------------------------------------------------------------------
 Center     Atomic      Atomic             Coordinates (Angstroms)
 Number     Number       Type             X           Y           Z
 ---------------------------------------------------------------------
      1          8           0        5.229984    0.058804   -3.323898
      2          8           0       -2.794766   -3.114128    3.332659
      3          8           0       -3.295660   -0.877507    2.781926
      4          8           0       -2.076236    7.087142    1.595625
      5          8           0       -1.071776    7.127065   -0.416642
      6          8           0       -1.830946   -4.070240   -0.050303
      7          7           0        2.490927    0.978483    0.817870
      8          7           0        4.421764   -0.588026   -1.307732
      9          7           0       -1.869470    0.649927   -0.272868
     10          7           0       -2.580311   -1.921813   -0.433487
     11          6           0        4.780436   -1.193272   -0.077123
     12          6           0        4.479885   -0.327962    1.260670
     13          6           0        3.082266   -0.073470    1.509211
     14          6           0        2.018087   -0.743414    2.183743
     15          6           0        0.783598   -0.055798    1.858493
     16          6           0        1.094209    0.979989    0.909956
     17          6           0        6.259387   -1.302196   -0.257770
     18          6           0       -0.544881   -0.368107    2.552920
     19          6           0        6.546029   -0.825071   -1.452969
     20          6           0        0.199516    1.889942    0.292350
     21          6           0       -1.086868    1.871401   -0.282997
     22          6           0        5.388079   -0.331137   -2.183100
     23          6           0       -1.871537    2.847012   -0.892920
     24          6           0        2.171593   -1.843656    3.188352
     25          6           0        7.203402   -1.950648    0.745015
     26          6           0       -3.003654    2.336592   -1.303325
     27          6           0       -1.061062   -1.834422    2.655750
     28          6           0       -2.979027    0.863143   -0.976996
     29          6           0       -1.385397    4.370133   -0.801094
     30          6           0        7.802534   -0.493830   -2.110685
     31          6           0       -1.766734    5.025779    0.564415
     32          6           0       -4.101247    3.046261   -2.016085
     33          6           0       -3.923121   -0.157332   -1.395422
     34          6           0       -2.443305   -1.871389    2.961406
     35          6           0       -3.665213   -1.476711   -1.019994
     36          6           0        9.141211   -0.451415   -1.627195
     37          6           0       -1.537018    6.490792    0.521489
     38          6           0       -4.642563   -2.535970   -1.465439
     39          6           0       -4.039315   -3.724210   -1.068775
     40          6           0       -2.673903   -3.326232   -0.406737
     41          6           0       -5.877127   -2.321235   -2.135415
     42          6           0       -4.494649   -5.164568   -1.270344
     43          6           0       -6.520277   -3.227364   -2.845454
     44          1           0        4.357040   -2.197155    0.222324
     45          1           0        4.939208    0.602752    1.335224
     46          1           0        5.009152   -0.791022    2.202408
     47          1           0        2.886236    1.802784    0.336622
     48          1           0        3.463059   -0.288585   -1.667992
     49          1           0       -0.382510   -0.122853    3.711327
     50          1           0       -1.357741    0.092223    2.074465
     51          1           0        0.819073    2.837794   -0.041457
     52          1           0        3.246695   -2.093265    3.310599
     53          1           0        1.647581   -1.408735    4.214418
     54          1           0        1.819369   -2.822008    2.671029
     55          1           0        6.496241   -2.901647    1.283110
     56          1           0        7.532172   -1.299274    1.597430
     57          1           0        8.172377   -2.184009    0.312093
     58          1           0       -0.789337   -2.342043    1.762297
     59          1           0       -0.374639   -2.400337    3.247519
     60          1           0       -1.659479   -0.285456   -0.056548
     61          1           0       -1.785061    4.961214   -1.712704
     62          1           0       -0.406425    4.445886   -1.133370
     63          1           0        7.724260   -0.194936   -3.181311
     64          1           0       -1.230719    4.448041    1.149477
     65          1           0       -2.834252    4.968468    0.824349
     66          1           0       -3.789037    4.168507   -2.356444
     67          1           0       -5.295091    3.149731   -1.622603
     68          1           0       -4.205676    2.411653   -3.030476
     69          1           0       -4.801839    0.178235   -1.806526
     70          1           0        9.535923   -0.556109   -0.679877
     71          1           0       10.055802   -0.459561   -2.319307
     72          1           0       -3.585840   -3.055081    3.526541
     73          1           0       -6.188074   -1.324283   -2.044925
     74          1           0       -4.252082   -5.365754   -2.168257
     75          1           0       -3.990699   -5.794400   -0.839789
     76          1           0       -5.623100   -5.271497   -1.009530
     77          1           0       -2.050712    8.142741    1.619302
     78          1           0       -7.551623   -3.012093   -3.295763
     79          1           0       -6.075409   -4.288826   -3.098675
 ---------------------------------------------------------------------

 SCF Done:  E(RB3LYP) =  -1947.77279829     A.U. after   17 cycles

 Excitation energies and oscillator strengths:

 Excited State   1:      Singlet-A      2.2582 eV  549.03 nm  f=0.5236  <S**2>=0.000
     154 ->156         0.15889
     155 ->156         0.68621
     155 <-156        -0.10233
 This state for optimization and/or second-order correction.
 Total Energy, E(TD-HF/TD-KS) =  -1947.68980917
 Copying the excited state density for this state as the 1-particle RhoCI density.

 The electronic state is 1-A.
 Alpha  occ. eigenvalues --  -19.19083 -19.17643 -19.12803 -19.11616 -19.10202
 Alpha  occ. eigenvalues --  -19.10146 -14.39303 -14.36384 -14.36210 -14.28103
 Alpha  occ. eigenvalues --  -10.32724 -10.31906 -10.27923 -10.26561 -10.26083
 Alpha  occ. eigenvalues --  -10.24914 -10.24856 -10.24068 -10.23974 -10.23411
 Alpha  occ. eigenvalues --  -10.23248 -10.23048 -10.22644 -10.22166 -10.22134
 Alpha  occ. eigenvalues --  -10.21967 -10.21334 -10.21063 -10.20975 -10.20796
 Alpha  occ. eigenvalues --  -10.20697 -10.20325 -10.20218 -10.19977 -10.19695
 Alpha  occ. eigenvalues --  -10.19678 -10.19618 -10.19139 -10.18720 -10.18529
 Alpha  occ. eigenvalues --  -10.18141 -10.17841 -10.15960  -1.11934  -1.09066
 Alpha  occ. eigenvalues --   -1.03745  -1.02967  -0.99878  -0.98662  -0.98215
 Alpha  occ. eigenvalues --   -0.96075  -0.96061  -0.91449  -0.83462  -0.82493
 Alpha  occ. eigenvalues --   -0.81882  -0.81363  -0.80335  -0.79478  -0.78981
 Alpha  occ. eigenvalues --   -0.78177  -0.76545  -0.75518  -0.74336  -0.72572
 Alpha  occ. eigenvalues --   -0.71346  -0.70984  -0.69828  -0.69726  -0.68802
 Alpha  occ. eigenvalues --   -0.68479  -0.66860  -0.63869  -0.61907  -0.61380
 Alpha  occ. eigenvalues --   -0.61086  -0.59727  -0.58982  -0.58525  -0.57247
 Alpha  occ. eigenvalues --   -0.56992  -0.55647  -0.55553  -0.54702  -0.53275
 Alpha  occ. eigenvalues --   -0.52485  -0.52059  -0.51704  -0.51294  -0.50852
 Alpha  occ. eigenvalues --   -0.49638  -0.49236  -0.48326  -0.48050  -0.47787
 Alpha  occ. eigenvalues --   -0.47650  -0.47548  -0.46702  -0.45825  -0.45530
 Alpha  occ. eigenvalues --   -0.45060  -0.44642  -0.44206  -0.43982  -0.43850
 Alpha  occ. eigenvalues --   -0.43582  -0.43182  -0.42797  -0.42340  -0.41948
 Alpha  occ. eigenvalues --   -0.41848  -0.41633  -0.41269  -0.40926  -0.40691
 Alpha  occ. eigenvalues --   -0.40650  -0.40429  -0.40285  -0.40033  -0.39833
 Alpha  occ. eigenvalues --   -0.39491  -0.39378  -0.39319  -0.38872  -0.38744
 Alpha  occ. eigenvalues --   -0.38496  -0.38199  -0.37508  -0.36957  -0.36806
 Alpha  occ. eigenvalues --   -0.36290  -0.35295  -0.34831  -0.34677  -0.34577
 Alpha  occ. eigenvalues --   -0.34346  -0.33718  -0.33395  -0.32483  -0.31388
 Alpha  occ. eigenvalues --   -0.31162  -0.30144  -0.29134  -0.28486  -0.27565
 Alpha  occ. eigenvalues --   -0.27157  -0.26883  -0.26725  -0.26200  -0.24600
 Alpha  occ. eigenvalues --   -0.23813  -0.23388  -0.23331  -0.21615  -0.18966
 Alpha virt. eigenvalues --   -0.10101  -0.06844  -0.05721  -0.01645  -0.00688
 Alpha virt. eigenvalues --   -0.00168   0.00211   0.00895   0.01992   0.02191
 Alpha virt. eigenvalues --    0.03201   0.03728   0.03854   0.04027   0.05108

 Mulliken charges:
               1
     1  O   -0.222834
     2  O   -0.039976
     3  O   -0.326828
     4  O   -0.235087
     5  O   -0.238472
     6  O   -0.162488
     7  N   -0.107158
     8  N   -0.149297
     9  N   -0.044799
    10  N   -0.274456
    11  C    0.130320
    12  C    0.149142
    13  C   -0.032324
    14  C   -0.169546
    15  C   -0.074427
    16  C    0.026063
    17  C   -0.150977
    18  C    0.052162
    19  C   -0.024817
    20  C   -0.063312
    21  C    0.077299
    22  C    0.108712
    23  C   -0.052684
    24  C    0.054081
    25  C    0.040683
    26  C   -0.086808
    27  C    0.053775
    28  C    0.053018
    29  C    0.076181
    30  C   -0.016890
    31  C    0.113888
    32  C   -0.074984
    33  C   -0.085321
    34  C    0.175809
    35  C    0.137596
    36  C   -0.066004
    37  C    0.152894
    38  C    0.006321
    39  C   -0.280744
    40  C    0.137392
    41  C    0.038337
    42  C    0.311825
    43  C   -0.072148
    44  H    0.031656
    45  H   -0.036875
    46  H    0.017459
    47  H    0.127067
    48  H    0.140076
    49  H    0.026934
    50  H    0.009215
    51  H   -0.002631
    52  H   -0.005271
    53  H    0.067469
    54  H    0.054171
    55  H    0.045149
    56  H    0.038778
    57  H    0.031415
    58  H    0.042742
    59  H   -0.004665
    60  H    0.113474
    61  H    0.011577
    62  H   -0.008261
    63  H    0.032887
    64  H   -0.007317
    65  H    0.048751
    66  H    0.047030
    67  H    0.066051
    68  H    0.051521
    69  H   -0.065313
    70  H   -0.009165
    71  H    0.038351
    72  H    0.081280
    73  H   -0.037629
    74  H   -0.036074
    75  H   -0.100008
    76  H    0.040351
    77  H    0.230870
    78  H    0.029867
    79  H    0.045952
 Sum of Mulliken charges =   0.00000

 Dipole moment (field-independent basis, Debye):
    X=              1.6483    Y=              2.5334    Z=              4.6625  Tot=              5.5564
 Quadrupole moment (field-independent basis, Debye-Ang):
   XX=           -225.6212   YY=           -243.1512   ZZ=           -261.4058
   XY=            -12.0572   XZ=             31.8802   YZ=              6.4302

 Normal termination of Gaussian 09 at Wed Jul 10 11:58:08 2019.
