 Gaussian 09, Revision D.01,
 Gaussian 09:  ES64L-G09RevD.01 24-Apr-2013

 --------------------------
 # td=(NStates=1) B3LYP/SVP
 --------------------------

 --
 TD
 --
 Symbolic Z-matrix:
 Charge =  0 Multiplicity = 1

                         Standard orientation:
 ---------------------------------------------------------------------
 Center     Atomic      Atomic             Coordinates (Angstroms)
 Number     Number       Type             X           Y           Z
 ---------------------------------------------------------------------
      1          8           0        5.530064    0.125092   -3.382654
      2          8           0       -2.842733   -3.423026    3.084015
      3          8           0       -3.096421   -1.192395    3.710022
      4          8           0       -1.625283    7.126331    1.695678
      5          8           0       -0.725304    7.111128   -0.258136
      6          8           0       -1.989073   -4.042382   -0.253502
      7          7           0        2.301411    0.858474    0.600791
      8          7           0        4.431272   -0.481180   -1.291294
      9          7           0       -1.951582    0.681141   -0.373352
     10          7           0       -2.704052   -1.866278   -0.504898
     11          6           0        4.844427   -1.211825   -0.001138
     12          6           0        4.468274   -0.297943    1.218287
     13          6           0        3.011987   -0.135783    1.322929
     14          6           0        2.041462   -0.892857    2.023044
     15          6           0        0.779831   -0.318329    1.725684
     16          6           0        0.917806    0.809802    0.911328
     17          6           0        6.416256   -1.258009   -0.183625
     18          6           0       -0.497358   -0.544191    2.562424
     19          6           0        6.669047   -0.765038   -1.444928
     20          6           0        0.104187    1.824589    0.343849
     21          6           0       -1.142478    1.825961   -0.190924
     22          6           0        5.541592   -0.304966   -2.223324
     23          6           0       -1.914772    2.947197   -0.786137
     24          6           0        2.131726   -1.961023    2.968277
     25          6           0        7.215767   -1.986905    0.835423
     26          6           0       -3.163563    2.463685   -1.226578
     27          6           0       -1.080368   -2.053441    2.480156
     28          6           0       -2.997803    1.054958   -1.072342
     29          6           0       -1.444919    4.411869   -0.650132
     30          6           0        7.987770   -0.595612   -2.023979
     31          6           0       -1.727391    5.103174    0.685981
     32          6           0       -4.349352    3.199285   -1.894507
     33          6           0       -3.924415    0.076237   -1.422824
     34          6           0       -2.460637   -2.129320    3.106033
     35          6           0       -3.781513   -1.318597   -1.169453
     36          6           0        9.198158   -0.660148   -1.588239
     37          6           0       -1.222716    6.559639    0.646399
     38          6           0       -4.725718   -2.334710   -1.630920
     39          6           0       -4.131864   -3.528586   -1.185592
     40          6           0       -2.844884   -3.163861   -0.580423
     41          6           0       -6.032836   -2.027744   -2.179788
     42          6           0       -4.461005   -5.027613   -1.310044
     43          6           0       -6.813047   -2.972655   -2.818152
     44          1           0        4.592420   -2.248627   -0.326247
     45          1           0        5.031448    0.715772    1.047901
     46          1           0        4.903462   -0.745721    2.248758
     47          1           0        2.742381    1.451844    0.206563
     48          1           0        3.577345   -0.612444   -1.608821
     49          1           0       -0.202840   -0.330213    3.552152
     50          1           0       -1.505392   -0.006642    2.242856
     51          1           0        0.557383    2.786657    0.245765
     52          1           0        3.299219   -2.073710    2.972438
     53          1           0        1.705128   -1.785141    3.946990
     54          1           0        1.787887   -2.902235    2.481709
     55          1           0        6.632453   -2.752133    1.253962
     56          1           0        7.296533   -1.172217    1.698774
     57          1           0        8.074455   -2.301877    0.418183
     58          1           0       -1.110147   -2.283584    1.369174
     59          1           0       -0.258947   -2.812647    2.673850
     60          1           0       -1.755387   -0.490095   -0.375330
     61          1           0       -2.084852    4.785149   -1.553613
     62          1           0       -0.397414    4.510165   -1.003976
     63          1           0        7.945990   -0.287728   -3.176490
     64          1           0       -1.311814    4.614038    1.493485
     65          1           0       -2.775576    5.017576    1.072542
     66          1           0       -4.075786    4.181086   -2.252317
     67          1           0       -5.249345    3.026034   -1.441702
     68          1           0       -4.570296    2.677284   -2.834573
     69          1           0       -4.760980    0.316394   -2.072895
     70          1           0        9.426945   -0.823707   -0.481028
     71          1           0       10.092143   -0.318749   -2.097604
     72          1           0       -3.777402   -3.358355    3.564564
     73          1           0       -6.336893   -0.874461   -2.019418
     74          1           0       -4.099864   -5.271736   -2.460218
     75          1           0       -4.017503   -5.576293   -0.455487
     76          1           0       -5.718644   -5.141387   -1.319873
     77          1           0       -1.416277    8.061177    1.901467
     78          1           0       -7.861324   -2.694813   -3.165892
     79          1           0       -6.597759   -3.985183   -3.008353
 ---------------------------------------------------------------------

 SCF Done:  E(RB3LYP) =  -1947.82181202     A.U. after   19 cycles

 Excitation energies and oscillator strengths:

 Excited State   1:      Singlet-A      2.1601 eV  573.97 nm  f=0.2234  <S**2>=0.000
     153 ->156        -0.23146
     154 ->156         0.43776
     155 ->156         0.49470
 This state for optimization and/or second-order correction.
 Total Energy, E(TD-HF/TD-KS) =  -1947.74242890
 Copying the excited state density for this state as the 1-particle RhoCI density.

 The electronic state is 1-A.
 Alpha  occ. eigenvalues --  -19.19321 -19.18254 -19.12365 -19.11726 -19.11175
 Alpha  occ. eigenvalues --  -19.08318 -14.36849 -14.35770 -14.34267 -14.29210
 Alpha  occ. eigenvalues --  -10.32118 -10.31641 -10.29285 -10.26250 -10.24955
 Alpha  occ. eigenvalues --  -10.24736 -10.24199 -10.24096 -10.23935 -10.23406
 Alpha  occ. eigenvalues --  -10.23308 -10.23174 -10.22427 -10.21976 -10.21803
 Alpha  occ. eigenvalues --  -10.21796 -10.21616 -10.21510 -10.21142 -10.20935
 Alpha  occ. eigenvalues --  -10.20547 -10.20470 -10.20049 -10.19781 -10.19775
 Alpha  occ. eigenvalues --  -10.19707 -10.19473 -10.19336 -10.19259 -10.19142
 Alpha  occ. eigenvalues --  -10.19078 -10.18782 -10.18762  -1.13609  -1.07039
 Alpha  occ. eigenvalues --   -1.03013  -1.01559  -0.99034  -0.98542  -0.98197
 Alpha  occ. eigenvalues --   -0.96519  -0.92604  -0.91684  -0.82793  -0.82617
 Alpha  occ. eigenvalues --   -0.82574  -0.81748  -0.79810  -0.79556  -0.78296
 Alpha  occ. eigenvalues --   -0.77566  -0.75922  -0.75219  -0.73888  -0.73191
 Alpha  occ. eigenvalues --   -0.73112  -0.72535  -0.70029  -0.69622  -0.68760
 Alpha  occ. eigenvalues --   -0.66721  -0.66211  -0.64272  -0.62964  -0.60665
 Alpha  occ. eigenvalues --   -0.60217  -0.59402  -0.58591  -0.58412  -0.56534
 Alpha  occ. eigenvalues --   -0.55852  -0.55320  -0.54999  -0.53315  -0.52595
 Alpha  occ. eigenvalues --   -0.51931  -0.51796  -0.51434  -0.50382  -0.49917
 Alpha  occ. eigenvalues --   -0.49017  -0.48925  -0.48538  -0.47627  -0.47534
 Alpha  occ. eigenvalues --   -0.47163  -0.46950  -0.46514  -0.45916  -0.45663
 Alpha  occ. eigenvalues --   -0.45354  -0.45094  -0.44830  -0.44409  -0.43925
 Alpha  occ. eigenvalues --   -0.43794  -0.43451  -0.43177  -0.42874  -0.42756
 Alpha  occ. eigenvalues --   -0.42591  -0.42362  -0.41638  -0.41406  -0.41179
 Alpha  occ. eigenvalues --   -0.40982  -0.40850  -0.40748  -0.40160  -0.39489
 Alpha  occ. eigenvalues --   -0.39304  -0.39062  -0.38978  -0.38542  -0.38233
 Alpha  occ. eigenvalues --   -0.37892  -0.37339  -0.36963  -0.36650  -0.36449
 Alpha  occ. eigenvalues --   -0.35262  -0.34798  -0.34464  -0.34008  -0.33813
 Alpha  occ. eigenvalues --   -0.33637  -0.32947  -0.32499  -0.31699  -0.31444
 Alpha  occ. eigenvalues --   -0.31024  -0.30198  -0.28948  -0.28220  -0.27483
 Alpha  occ. eigenvalues --   -0.26960  -0.26927  -0.26176  -0.26171  -0.24787
 Alpha  occ. eigenvalues --   -0.24423  -0.23560  -0.23094  -0.21705  -0.19616
 Alpha virt. eigenvalues --   -0.10997  -0.06546  -0.06276  -0.01300  -0.00386
 Alpha virt. eigenvalues --    0.00197   0.01262   0.01462   0.02320   0.03295
 Alpha virt. eigenvalues --    0.03768   0.04028   0.04667   0.04900   0.05326

 Mulliken charges:
               1
     1  O   -0.220335
     2  O   -0.195142
     3  O   -0.304955
     4  O   -0.122394
     5  O   -0.184018
     6  O   -0.279919
     7  N    0.006383
     8  N   -0.253582
     9  N   -0.135420
    10  N   -0.246487
    11  C    0.072652
    12  C    0.111767
    13  C   -0.063337
    14  C   -0.129777
    15  C   -0.098410
    16  C    0.134578
    17  C   -0.237520
    18  C    0.044429
    19  C   -0.032335
    20  C   -0.058046
    21  C    0.093439
    22  C    0.208954
    23  C   -0.129826
    24  C    0.099635
    25  C    0.189462
    26  C   -0.155988
    27  C   -0.086535
    28  C    0.121516
    29  C    0.078999
    30  C   -0.013773
    31  C    0.024571
    32  C    0.200707
    33  C   -0.134127
    34  C    0.221243
    35  C    0.070551
    36  C   -0.072923
    37  C    0.091412
    38  C    0.029640
    39  C   -0.171452
    40  C    0.119862
    41  C   -0.053503
    42  C    0.001128
    43  C   -0.033071
    44  H    0.051248
    45  H    0.032814
    46  H    0.045173
    47  H   -0.008069
    48  H    0.083203
    49  H    0.007301
    50  H    0.054982
    51  H   -0.030260
    52  H   -0.012758
    53  H    0.038540
    54  H    0.050365
    55  H    0.009353
    56  H    0.049548
    57  H    0.010651
    58  H    0.071086
    59  H    0.029743
    60  H    0.234581
    61  H    0.023551
    62  H    0.027946
    63  H    0.034851
    64  H   -0.003241
    65  H    0.035614
    66  H    0.019620
    67  H   -0.001565
    68  H    0.007222
    69  H   -0.040736
    70  H    0.001826
    71  H    0.023133
    72  H    0.205495
    73  H    0.038137
    74  H    0.070332
    75  H    0.060031
    76  H    0.034731
    77  H    0.191599
    78  H    0.030090
    79  H    0.015808
 Sum of Mulliken charges =   0.00000

 Dipole moment (field-independent basis, Debye):
    X=              0.6994    Y=              3.6410    Z=              3.9517  Tot=              5.4186
 Quadrupole moment (field-independent basis, Debye-Ang):
   XX=           -224.9122   YY=           -239.7908   ZZ=           -265.4931
   XY=            -18.0773   XZ=             37.1358   YZ=             10.4797

 Normal termination of Gaussian 09 at Sun Jul  7 12:49:30 2019.
