 Gaussian 09, Revision D.01,
 Gaussian 09:  ES64L-G09RevD.01 24-Apr-2013

 --------------------------
 # td=(NStates=1) B3LYP/SVP
 --------------------------

 --
 TD
 --
 Symbolic Z-matrix:
 Charge =  0 Multiplicity = 1

                         Standard orientation:
 ---------------------------------------------------------------------
 Center     Atomic      Atomic             Coordinates (Angstroms)
 Number     Number       Type             X           Y           Z
 ---------------------------------------------------------------------
      1          8           0        5.381225   -0.122015   -3.296207
      2          8           0       -2.744861   -3.189907    3.132175
      3          8           0       -3.142255   -0.999692    3.073127
      4          8           0       -2.191438    7.017936    1.497682
      5          8           0       -1.002671    7.138008   -0.285635
      6          8           0       -1.673757   -3.964197   -0.298854
      7          7           0        2.375457    1.043789    0.609600
      8          7           0        4.466562   -0.585390   -1.262599
      9          7           0       -1.790621    0.617409   -0.404539
     10          7           0       -2.582957   -1.853939   -0.492472
     11          6           0        4.936994   -1.137681   -0.071338
     12          6           0        4.526150   -0.137293    1.253194
     13          6           0        3.053043    0.145642    1.305147
     14          6           0        2.075501   -0.585686    1.979928
     15          6           0        0.760937   -0.156063    1.706347
     16          6           0        1.002307    0.946169    0.784793
     17          6           0        6.477191   -1.240229   -0.160544
     18          6           0       -0.511813   -0.412651    2.440663
     19          6           0        6.817526   -0.622744   -1.305585
     20          6           0        0.143464    1.860950    0.071728
     21          6           0       -1.121028    1.899578   -0.359543
     22          6           0        5.578146   -0.332477   -2.061223
     23          6           0       -1.961288    2.918573   -0.955701
     24          6           0        2.280880   -1.777944    3.030895
     25          6           0        7.243859   -1.860882    0.898546
     26          6           0       -3.216054    2.283865   -1.206066
     27          6           0       -0.949973   -1.812589    2.454665
     28          6           0       -3.120193    0.918811   -0.956395
     29          6           0       -1.591640    4.365569   -0.948708
     30          6           0        8.053555   -0.384120   -2.012957
     31          6           0       -1.959526    5.009761    0.440221
     32          6           0       -4.457140    2.972783   -1.744246
     33          6           0       -4.072835   -0.078907   -1.275089
     34          6           0       -2.393473   -1.917988    2.981982
     35          6           0       -3.745009   -1.422908   -0.956513
     36          6           0        9.199503   -0.379225   -1.340965
     37          6           0       -1.752211    6.495883    0.468118
     38          6           0       -4.609105   -2.625221   -1.385430
     39          6           0       -3.898383   -3.807370   -1.265055
     40          6           0       -2.578328   -3.272691   -0.602053
     41          6           0       -6.107888   -2.573235   -1.682040
     42          6           0       -4.262138   -5.241124   -1.246561
     43          6           0       -6.840132   -3.414546   -2.432560
     44          1           0        4.515203   -2.126210    0.186973
     45          1           0        5.142094    0.767315    1.073725
     46          1           0        4.878379   -0.667002    2.211499
     47          1           0        2.729768    1.710191   -0.057668
     48          1           0        3.456895   -0.673364   -1.555200
     49          1           0       -0.166446    0.003536    3.543868
     50          1           0       -1.368556    0.107654    2.090997
     51          1           0        0.797703    2.780639   -0.098661
     52          1           0        3.410133   -2.085463    2.923881
     53          1           0        1.917112   -1.605024    4.117729
     54          1           0        1.693464   -2.607220    2.713066
     55          1           0        6.603142   -2.444599    1.514412
     56          1           0        7.844031   -1.041635    1.435926
     57          1           0        8.170173   -2.528360    0.483993
     58          1           0       -1.014523   -2.150761    1.490743
     59          1           0       -0.222011   -2.653225    3.056773
     60          1           0       -1.531106   -0.346691   -0.011121
     61          1           0       -2.368932    4.659648   -1.865852
     62          1           0       -0.552837    4.493525   -1.344356
     63          1           0        7.978275   -0.141754   -3.204853
     64          1           0       -1.221774    4.555016    1.132781
     65          1           0       -3.070991    4.868727    0.709848
     66          1           0       -4.119925    4.042070   -1.968475
     67          1           0       -5.216986    2.956667   -0.995488
     68          1           0       -4.884070    2.498238   -2.717745
     69          1           0       -5.076499    0.022191   -1.578042
     70          1           0        9.362057   -0.698935   -0.198944
     71          1           0       10.011351   -0.222099   -2.074125
     72          1           0       -3.696334   -3.092193    3.348417
     73          1           0       -6.759193   -1.617785   -1.286128
     74          1           0       -4.022338   -5.462890   -2.366006
     75          1           0       -3.747698   -6.052092   -0.573850
     76          1           0       -5.249067   -5.050179   -1.095444
     77          1           0       -2.149340    8.002179    1.443532
     78          1           0       -7.838118   -3.034814   -2.603166
     79          1           0       -6.527457   -4.503518   -2.697207
 ---------------------------------------------------------------------

 SCF Done:  E(RB3LYP) =  -1947.86374786     A.U. after   16 cycles

 Excitation energies and oscillator strengths:

 Excited State   1:      Singlet-A      2.1584 eV  574.41 nm  f=0.5448  <S**2>=0.000
     155 ->156         0.70460
     155 <-156        -0.11655
 This state for optimization and/or second-order correction.
 Total Energy, E(TD-HF/TD-KS) =  -1947.78442643
 Copying the excited state density for this state as the 1-particle RhoCI density.

 The electronic state is 1-A.
 Alpha  occ. eigenvalues --  -19.20291 -19.17744 -19.11946 -19.11128 -19.10063
 Alpha  occ. eigenvalues --  -19.09385 -14.39274 -14.35795 -14.35307 -14.28623
 Alpha  occ. eigenvalues --  -10.31837 -10.30641 -10.28566 -10.25902 -10.25406
 Alpha  occ. eigenvalues --  -10.24194 -10.23632 -10.23488 -10.23371 -10.23058
 Alpha  occ. eigenvalues --  -10.22803 -10.22666 -10.22591 -10.22590 -10.22562
 Alpha  occ. eigenvalues --  -10.21908 -10.21697 -10.21224 -10.20939 -10.20851
 Alpha  occ. eigenvalues --  -10.20698 -10.20521 -10.20502 -10.20498 -10.20315
 Alpha  occ. eigenvalues --  -10.19742 -10.19685 -10.19584 -10.19482 -10.19456
 Alpha  occ. eigenvalues --  -10.19288 -10.19103 -10.18231  -1.14787  -1.10336
 Alpha  occ. eigenvalues --   -1.03006  -1.00929  -1.00801  -1.00239  -0.98922
 Alpha  occ. eigenvalues --   -0.94228  -0.93589  -0.90749  -0.83505  -0.82128
 Alpha  occ. eigenvalues --   -0.81773  -0.81224  -0.79666  -0.78925  -0.77751
 Alpha  occ. eigenvalues --   -0.77218  -0.76507  -0.75257  -0.74179  -0.72789
 Alpha  occ. eigenvalues --   -0.72300  -0.70268  -0.69215  -0.68878  -0.68621
 Alpha  occ. eigenvalues --   -0.67004  -0.65772  -0.63824  -0.61913  -0.61045
 Alpha  occ. eigenvalues --   -0.59912  -0.58810  -0.58298  -0.57128  -0.56784
 Alpha  occ. eigenvalues --   -0.55112  -0.54890  -0.54073  -0.53207  -0.52212
 Alpha  occ. eigenvalues --   -0.51434  -0.51075  -0.50935  -0.50383  -0.50261
 Alpha  occ. eigenvalues --   -0.49130  -0.48925  -0.48787  -0.48503  -0.48017
 Alpha  occ. eigenvalues --   -0.47349  -0.47135  -0.46671  -0.45770  -0.45208
 Alpha  occ. eigenvalues --   -0.44939  -0.44630  -0.44396  -0.44217  -0.43769
 Alpha  occ. eigenvalues --   -0.43525  -0.43313  -0.42814  -0.42252  -0.41925
 Alpha  occ. eigenvalues --   -0.41605  -0.41285  -0.41121  -0.40978  -0.40793
 Alpha  occ. eigenvalues --   -0.40648  -0.40221  -0.40165  -0.40004  -0.39794
 Alpha  occ. eigenvalues --   -0.39637  -0.39555  -0.39063  -0.38739  -0.38540
 Alpha  occ. eigenvalues --   -0.38274  -0.38173  -0.37832  -0.37231  -0.36598
 Alpha  occ. eigenvalues --   -0.35942  -0.35757  -0.34871  -0.34488  -0.34074
 Alpha  occ. eigenvalues --   -0.34020  -0.33644  -0.32245  -0.32150  -0.32034
 Alpha  occ. eigenvalues --   -0.31623  -0.30472  -0.28588  -0.27576  -0.27292
 Alpha  occ. eigenvalues --   -0.27090  -0.25932  -0.25083  -0.24917  -0.24779
 Alpha  occ. eigenvalues --   -0.24652  -0.23284  -0.23052  -0.21963  -0.18500
 Alpha virt. eigenvalues --   -0.10151  -0.06225  -0.05524  -0.00580  -0.00094
 Alpha virt. eigenvalues --    0.00510   0.01182   0.02043   0.02075   0.03126
 Alpha virt. eigenvalues --    0.03711   0.03763   0.04012   0.04515   0.05117

 Mulliken charges:
               1
     1  O   -0.278570
     2  O   -0.152383
     3  O   -0.216428
     4  O   -0.074871
     5  O   -0.280922
     6  O   -0.163936
     7  N   -0.006100
     8  N   -0.158565
     9  N   -0.227896
    10  N   -0.296383
    11  C    0.034245
    12  C    0.139301
    13  C   -0.066559
    14  C   -0.171145
    15  C   -0.063743
    16  C   -0.005619
    17  C   -0.147040
    18  C    0.087107
    19  C   -0.024845
    20  C   -0.090438
    21  C    0.145202
    22  C    0.149246
    23  C   -0.067145
    24  C    0.056757
    25  C    0.041004
    26  C   -0.163816
    27  C   -0.034408
    28  C    0.214269
    29  C    0.015129
    30  C   -0.061343
    31  C    0.023839
    32  C    0.095412
    33  C   -0.095221
    34  C    0.118669
    35  C    0.076628
    36  C   -0.047288
    37  C    0.073776
    38  C   -0.006944
    39  C   -0.197656
    40  C    0.120459
    41  C   -0.088348
    42  C    0.076840
    43  C   -0.050553
    44  H    0.017598
    45  H   -0.010891
    46  H    0.025237
    47  H    0.109055
    48  H    0.159329
    49  H    0.038796
    50  H    0.009385
    51  H   -0.014609
    52  H    0.003902
    53  H    0.037863
    54  H    0.026400
    55  H    0.021092
    56  H    0.058259
    57  H    0.059368
    58  H    0.027012
    59  H    0.049721
    60  H    0.182793
    61  H    0.041750
    62  H    0.042747
    63  H    0.070446
    64  H    0.058162
    65  H    0.051971
    66  H    0.011538
    67  H    0.024078
    68  H    0.049229
    69  H   -0.050762
    70  H    0.045933
    71  H    0.028640
    72  H    0.169801
    73  H    0.032116
    74  H    0.050817
    75  H    0.067543
    76  H    0.011974
    77  H    0.196266
    78  H    0.022520
    79  H    0.045200
 Sum of Mulliken charges =   0.00000

 Dipole moment (field-independent basis, Debye):
    X=              0.2801    Y=              2.1730    Z=              4.7478  Tot=              5.2290
 Quadrupole moment (field-independent basis, Debye-Ang):
   XX=           -212.9017   YY=           -243.5503   ZZ=           -267.0652
   XY=            -16.6636   XZ=             25.5205   YZ=              5.4959

 Normal termination of Gaussian 09 at Wed Jul 10 02:56:21 2019.
