 Gaussian 09, Revision D.01,
 Gaussian 09:  ES64L-G09RevD.01 24-Apr-2013

 --------------------------
 # td=(NStates=1) B3LYP/SVP
 --------------------------

 --
 TD
 --
 Symbolic Z-matrix:
 Charge =  0 Multiplicity = 1

                         Standard orientation:
 ---------------------------------------------------------------------
 Center     Atomic      Atomic             Coordinates (Angstroms)
 Number     Number       Type             X           Y           Z
 ---------------------------------------------------------------------
      1          8           0        5.192264   -0.434835   -3.443470
      2          8           0       -2.811169   -3.071323    3.254867
      3          8           0       -3.202816   -0.971474    3.069661
      4          8           0       -1.598378    7.166128    1.552020
      5          8           0       -0.582873    6.991257   -0.427479
      6          8           0       -1.979274   -4.034239   -0.177474
      7          7           0        2.432970    0.920650    0.593063
      8          7           0        4.426088   -0.741672   -1.280230
      9          7           0       -1.787629    0.691428   -0.412900
     10          7           0       -2.695040   -1.862602   -0.541474
     11          6           0        4.953374   -1.320879    0.045802
     12          6           0        4.590886   -0.382203    1.204576
     13          6           0        3.031149   -0.119597    1.277632
     14          6           0        2.062968   -0.774424    2.060145
     15          6           0        0.739582   -0.017267    1.783319
     16          6           0        1.009336    0.854343    0.780113
     17          6           0        6.368052   -1.307474   -0.199550
     18          6           0       -0.482821   -0.386415    2.460464
     19          6           0        6.736204   -0.893844   -1.437654
     20          6           0        0.274161    1.912534    0.155615
     21          6           0       -1.058107    1.874514   -0.354282
     22          6           0        5.386156   -0.632256   -2.225828
     23          6           0       -1.935254    2.927717   -0.851002
     24          6           0        2.236704   -1.639110    3.187874
     25          6           0        7.385064   -1.674500    0.941367
     26          6           0       -3.158574    2.464232   -1.114691
     27          6           0       -0.997068   -1.748815    2.519745
     28          6           0       -3.054151    0.911312   -0.954505
     29          6           0       -1.535458    4.354094   -0.937386
     30          6           0        8.027867   -0.665534   -2.068553
     31          6           0       -1.810107    5.113497    0.377348
     32          6           0       -4.388144    3.060131   -1.690446
     33          6           0       -4.114271    0.031624   -1.228818
     34          6           0       -2.441189   -1.857062    2.874262
     35          6           0       -3.806135   -1.322934   -1.021984
     36          6           0        9.330300   -0.648930   -1.574401
     37          6           0       -1.252829    6.550648    0.443102
     38          6           0       -4.736801   -2.462627   -1.417806
     39          6           0       -4.229837   -3.623351   -1.002536
     40          6           0       -2.810283   -3.255293   -0.546443
     41          6           0       -6.120185   -2.234861   -2.023741
     42          6           0       -4.679166   -5.090991   -1.006957
     43          6           0       -6.953128   -3.159390   -2.649504
     44          1           0        4.401782   -2.181110    0.224601
     45          1           0        5.015002    0.669065    1.031093
     46          1           0        4.845028   -0.711605    2.165093
     47          1           0        2.824342    1.252496   -0.193275
     48          1           0        3.354028   -0.885687   -1.688487
     49          1           0       -0.312625    0.068591    3.457064
     50          1           0       -1.309006    0.167773    1.951843
     51          1           0        0.552150    2.978078   -0.171359
     52          1           0        3.367424   -1.702753    3.685816
     53          1           0        1.748800   -1.450684    4.068080
     54          1           0        2.084910   -2.706723    2.760889
     55          1           0        6.820236   -2.318308    1.549353
     56          1           0        7.707315   -0.828360    1.643138
     57          1           0        8.206407   -2.245345    0.536736
     58          1           0       -1.035849   -2.231842    1.615404
     59          1           0       -0.486233   -2.434000    3.244786
     60          1           0       -1.568317   -0.179996   -0.105684
     61          1           0       -2.001374    4.738711   -1.828197
     62          1           0       -0.330599    4.565302   -0.951868
     63          1           0        7.746192   -0.565409   -3.043248
     64          1           0       -1.395630    4.366503    1.252754
     65          1           0       -2.739736    5.311715    0.627788
     66          1           0       -4.230697    4.201351   -1.801264
     67          1           0       -5.413260    2.846160   -1.163128
     68          1           0       -4.661753    2.560584   -2.704582
     69          1           0       -5.012720    0.395420   -1.937660
     70          1           0        9.575827   -0.772347   -0.558713
     71          1           0       10.242396   -0.534912   -2.131682
     72          1           0       -3.705950   -3.053350    3.576619
     73          1           0       -6.466978   -1.298543   -1.785692
     74          1           0       -4.504576   -5.337462   -2.107659
     75          1           0       -3.986268   -5.775758   -0.467509
     76          1           0       -5.719183   -5.355076   -0.762765
     77          1           0       -1.192769    8.103744    1.554629
     78          1           0       -8.083711   -2.772830   -2.795523
     79          1           0       -6.521138   -4.123470   -2.713264
 ---------------------------------------------------------------------

 SCF Done:  E(RB3LYP) =  -1947.86729041     A.U. after   16 cycles

 Excitation energies and oscillator strengths:

 Excited State   1:      Singlet-A      2.3545 eV  526.58 nm  f=0.4734  <S**2>=0.000
     154 ->156         0.11114
     155 ->156         0.69076
 This state for optimization and/or second-order correction.
 Total Energy, E(TD-HF/TD-KS) =  -1947.78076280
 Copying the excited state density for this state as the 1-particle RhoCI density.

 The electronic state is 1-A.
 Alpha  occ. eigenvalues --  -19.20099 -19.16081 -19.13171 -19.10778 -19.10489
 Alpha  occ. eigenvalues --  -19.09943 -14.37018 -14.36836 -14.36702 -14.28934
 Alpha  occ. eigenvalues --  -10.32434 -10.29923 -10.28798 -10.26557 -10.25867
 Alpha  occ. eigenvalues --  -10.25391 -10.24851 -10.23697 -10.23481 -10.23388
 Alpha  occ. eigenvalues --  -10.22632 -10.22451 -10.22416 -10.21998 -10.21813
 Alpha  occ. eigenvalues --  -10.21489 -10.21291 -10.21144 -10.20885 -10.20814
 Alpha  occ. eigenvalues --  -10.20451 -10.20392 -10.20304 -10.20179 -10.20057
 Alpha  occ. eigenvalues --  -10.20037 -10.19790 -10.19688 -10.19538 -10.19404
 Alpha  occ. eigenvalues --  -10.19385 -10.19130 -10.18448  -1.11725  -1.10023
 Alpha  occ. eigenvalues --   -1.02685  -1.02684  -1.00851  -0.99413  -0.98185
 Alpha  occ. eigenvalues --   -0.97276  -0.93072  -0.92151  -0.83735  -0.82835
 Alpha  occ. eigenvalues --   -0.81800  -0.80981  -0.79766  -0.79117  -0.78109
 Alpha  occ. eigenvalues --   -0.77924  -0.77100  -0.74946  -0.73993  -0.73171
 Alpha  occ. eigenvalues --   -0.71834  -0.70811  -0.69356  -0.68999  -0.68951
 Alpha  occ. eigenvalues --   -0.68476  -0.66165  -0.64111  -0.62433  -0.61404
 Alpha  occ. eigenvalues --   -0.60729  -0.59429  -0.58644  -0.57503  -0.56858
 Alpha  occ. eigenvalues --   -0.55957  -0.55885  -0.54782  -0.54147  -0.53156
 Alpha  occ. eigenvalues --   -0.51967  -0.51894  -0.51528  -0.50830  -0.50327
 Alpha  occ. eigenvalues --   -0.49544  -0.49014  -0.48661  -0.48384  -0.47783
 Alpha  occ. eigenvalues --   -0.47535  -0.46616  -0.46497  -0.46375  -0.45239
 Alpha  occ. eigenvalues --   -0.45182  -0.44960  -0.44574  -0.44039  -0.43687
 Alpha  occ. eigenvalues --   -0.43508  -0.43292  -0.43038  -0.42868  -0.42741
 Alpha  occ. eigenvalues --   -0.42410  -0.41994  -0.41734  -0.41497  -0.41305
 Alpha  occ. eigenvalues --   -0.41252  -0.40630  -0.40162  -0.39980  -0.39636
 Alpha  occ. eigenvalues --   -0.39473  -0.39280  -0.39009  -0.38866  -0.38815
 Alpha  occ. eigenvalues --   -0.38474  -0.38259  -0.38022  -0.37721  -0.37022
 Alpha  occ. eigenvalues --   -0.36654  -0.35578  -0.35449  -0.35219  -0.35126
 Alpha  occ. eigenvalues --   -0.34568  -0.34185  -0.33856  -0.31975  -0.31631
 Alpha  occ. eigenvalues --   -0.30908  -0.30264  -0.28871  -0.28306  -0.27032
 Alpha  occ. eigenvalues --   -0.26618  -0.26592  -0.26366  -0.25162  -0.24965
 Alpha  occ. eigenvalues --   -0.24004  -0.23933  -0.23506  -0.22466  -0.19627
 Alpha virt. eigenvalues --   -0.10289  -0.06334  -0.05909  -0.01166   0.00372
 Alpha virt. eigenvalues --    0.00676   0.01143   0.02328   0.02529   0.02894
 Alpha virt. eigenvalues --    0.03115   0.03574   0.03806   0.04069   0.04617

 Mulliken charges:
               1
     1  O   -0.260772
     2  O   -0.159611
     3  O   -0.217066
     4  O   -0.178358
     5  O   -0.199523
     6  O   -0.176523
     7  N   -0.059001
     8  N   -0.278965
     9  N   -0.042083
    10  N   -0.274548
    11  C    0.172004
    12  C    0.204503
    13  C   -0.118099
    14  C   -0.113094
    15  C   -0.077058
    16  C    0.094495
    17  C   -0.198998
    18  C    0.090453
    19  C   -0.069944
    20  C   -0.050848
    21  C   -0.000331
    22  C    0.172034
    23  C   -0.043436
    24  C    0.022526
    25  C    0.113453
    26  C   -0.098395
    27  C    0.106616
    28  C    0.101132
    29  C    0.033910
    30  C    0.062400
    31  C   -0.002440
    32  C    0.016207
    33  C   -0.159535
    34  C    0.059629
    35  C    0.109689
    36  C   -0.009806
    37  C    0.112821
    38  C   -0.009439
    39  C   -0.203040
    40  C    0.133069
    41  C   -0.021837
    42  C    0.068892
    43  C   -0.007953
    44  H    0.003004
    45  H    0.010597
    46  H   -0.010381
    47  H    0.077864
    48  H    0.182941
    49  H    0.013969
    50  H    0.009841
    51  H   -0.004315
    52  H    0.010245
    53  H    0.008984
    54  H    0.048328
    55  H   -0.012844
    56  H    0.051336
    57  H    0.034993
    58  H    0.009272
    59  H    0.026466
    60  H    0.093312
    61  H    0.020090
    62  H    0.051974
    63  H   -0.027018
    64  H    0.066540
    65  H   -0.017553
    66  H    0.036658
    67  H    0.045096
    68  H    0.045366
    69  H    0.042542
    70  H    0.002438
    71  H    0.028414
    72  H    0.165289
    73  H   -0.031242
    74  H    0.041647
    75  H    0.032499
    76  H    0.033840
    77  H    0.208559
    78  H    0.055425
    79  H    0.002699
 Sum of Mulliken charges =   0.00000

 Dipole moment (field-independent basis, Debye):
    X=             -0.0410    Y=              2.9130    Z=              4.5643  Tot=              5.4148
 Quadrupole moment (field-independent basis, Debye-Ang):
   XX=           -220.8248   YY=           -238.8577   ZZ=           -265.1096
   XY=            -13.0056   XZ=             33.5908   YZ=              1.7519

 Normal termination of Gaussian 09 at Wed Jul 10 16:12:47 2019.
