 Gaussian 09, Revision D.01,
 Gaussian 09:  ES64L-G09RevD.01 24-Apr-2013

 --------------------------
 # td=(NStates=1) B3LYP/SVP
 --------------------------

 --
 TD
 --
 Symbolic Z-matrix:
 Charge =  0 Multiplicity = 1

                         Standard orientation:
 ---------------------------------------------------------------------
 Center     Atomic      Atomic             Coordinates (Angstroms)
 Number     Number       Type             X           Y           Z
 ---------------------------------------------------------------------
      1          8           0        5.216804   -0.485608   -3.385720
      2          8           0       -2.792114   -3.012205    3.284217
      3          8           0       -3.083207   -0.805111    3.209811
      4          8           0       -1.764040    7.371448    1.242253
      5          8           0       -0.346638    6.908789   -0.460956
      6          8           0       -1.798925   -4.011652   -0.039466
      7          7           0        2.294264    0.894060    0.519361
      8          7           0        4.435074   -0.694523   -1.221529
      9          7           0       -2.023222    0.651686   -0.331419
     10          7           0       -2.696510   -1.810982   -0.364204
     11          6           0        4.977348   -1.203760    0.063037
     12          6           0        4.525094   -0.241082    1.185319
     13          6           0        3.021280    0.001998    1.240715
     14          6           0        2.071270   -0.631684    2.212092
     15          6           0        0.767302   -0.009544    1.836876
     16          6           0        0.962738    0.945151    0.807153
     17          6           0        6.463685   -1.226367   -0.197771
     18          6           0       -0.482000   -0.309919    2.561327
     19          6           0        6.676221   -0.866393   -1.487836
     20          6           0        0.133792    1.970951    0.128132
     21          6           0       -1.199021    1.809708   -0.213127
     22          6           0        5.371969   -0.694476   -2.240721
     23          6           0       -2.033784    2.859582   -0.857520
     24          6           0        2.394159   -1.554032    3.308031
     25          6           0        7.281069   -1.613549    0.941599
     26          6           0       -3.262878    2.328866   -1.261289
     27          6           0       -0.929524   -1.757369    2.593420
     28          6           0       -3.218510    0.872181   -0.871188
     29          6           0       -1.631790    4.191550   -0.959810
     30          6           0        7.956328   -0.813390   -2.219112
     31          6           0       -1.869613    5.134075    0.363072
     32          6           0       -4.384402    3.084023   -1.951169
     33          6           0       -4.143000   -0.076959   -1.232563
     34          6           0       -2.365693   -1.780982    3.068443
     35          6           0       -3.899592   -1.431077   -0.906528
     36          6           0        9.154046   -0.592230   -1.663576
     37          6           0       -1.243868    6.537694    0.284634
     38          6           0       -4.778916   -2.627609   -1.396003
     39          6           0       -3.924099   -3.739073   -1.062448
     40          6           0       -2.787431   -3.282744   -0.460305
     41          6           0       -6.058327   -2.487320   -1.925236
     42          6           0       -4.370070   -5.171901   -1.310718
     43          6           0       -6.789247   -3.308009   -2.644378
     44          1           0        4.529651   -2.154877    0.342418
     45          1           0        5.012593    0.800756    1.066106
     46          1           0        5.217004   -0.431679    2.175494
     47          1           0        2.769015    1.504221   -0.057495
     48          1           0        3.502200   -0.970176   -1.489870
     49          1           0       -0.285385    0.253067    3.589996
     50          1           0       -1.346158    0.517298    2.361393
     51          1           0        0.614634    2.807237   -0.310139
     52          1           0        3.449717   -1.712412    3.526530
     53          1           0        1.514416   -1.332373    4.109778
     54          1           0        2.061883   -2.484611    3.038759
     55          1           0        6.646729   -2.280976    1.504394
     56          1           0        7.814210   -0.812255    1.803632
     57          1           0        8.100990   -2.125279    0.533509
     58          1           0       -1.005580   -2.120850    1.488974
     59          1           0       -0.197551   -2.440573    3.165158
     60          1           0       -1.802251   -0.373048    0.069400
     61          1           0       -2.003963    4.690925   -1.647237
     62          1           0       -0.422841    4.306792   -1.081361
     63          1           0        7.825305   -0.921526   -3.321325
     64          1           0       -1.496576    4.613009    1.195430
     65          1           0       -3.053175    5.285241    0.657748
     66          1           0       -4.294448    4.210845   -2.305731
     67          1           0       -5.157094    3.318681   -1.031405
     68          1           0       -4.748424    2.673424   -2.665168
     69          1           0       -5.209598    0.193008   -1.879892
     70          1           0        9.149383   -0.539030   -0.607579
     71          1           0        9.893125   -0.624183   -2.261580
     72          1           0       -3.884163   -3.059777    3.286961
     73          1           0       -6.431986   -1.624178   -1.719597
     74          1           0       -3.968595   -5.549267   -2.282242
     75          1           0       -3.848140   -5.838874   -0.680161
     76          1           0       -5.276150   -5.453849   -1.143539
     77          1           0       -1.254944    8.262852    0.936936
     78          1           0       -7.724819   -2.986845   -3.001142
     79          1           0       -6.518516   -4.505533   -2.779035
 ---------------------------------------------------------------------

 SCF Done:  E(RB3LYP) =  -1947.73025989     A.U. after   25 cycles

 Excitation energies and oscillator strengths:

 Excited State   1:      Singlet-A      1.8802 eV  659.42 nm  f=0.3709  <S**2>=0.000
     154 ->156         0.10615
     155 ->156         0.69247
     155 <-156        -0.10726
 This state for optimization and/or second-order correction.
 Total Energy, E(TD-HF/TD-KS) =  -1947.66116383
 Copying the excited state density for this state as the 1-particle RhoCI density.

 The electronic state is 1-A.
 Alpha  occ. eigenvalues --  -19.19388 -19.17262 -19.13960 -19.10844 -19.10479
 Alpha  occ. eigenvalues --  -19.09746 -14.38246 -14.36584 -14.34677 -14.29977
 Alpha  occ. eigenvalues --  -10.33245 -10.30232 -10.28383 -10.26147 -10.24866
 Alpha  occ. eigenvalues --  -10.24597 -10.24510 -10.23700 -10.23584 -10.23274
 Alpha  occ. eigenvalues --  -10.23175 -10.22691 -10.22497 -10.21822 -10.21801
 Alpha  occ. eigenvalues --  -10.21429 -10.21406 -10.20860 -10.20706 -10.20536
 Alpha  occ. eigenvalues --  -10.20424 -10.20219 -10.20183 -10.20107 -10.19907
 Alpha  occ. eigenvalues --  -10.19880 -10.19778 -10.19608 -10.19571 -10.19441
 Alpha  occ. eigenvalues --  -10.19133 -10.17820 -10.17444  -1.09210  -1.07502
 Alpha  occ. eigenvalues --   -1.04951  -1.00091  -0.98907  -0.97871  -0.97612
 Alpha  occ. eigenvalues --   -0.97015  -0.94206  -0.89732  -0.83196  -0.82619
 Alpha  occ. eigenvalues --   -0.81650  -0.81038  -0.80432  -0.79204  -0.77705
 Alpha  occ. eigenvalues --   -0.77252  -0.76358  -0.75578  -0.74754  -0.72784
 Alpha  occ. eigenvalues --   -0.72076  -0.71782  -0.70248  -0.69327  -0.68330
 Alpha  occ. eigenvalues --   -0.66595  -0.66214  -0.64461  -0.61858  -0.61094
 Alpha  occ. eigenvalues --   -0.58504  -0.58271  -0.57952  -0.57692  -0.56812
 Alpha  occ. eigenvalues --   -0.56145  -0.55928  -0.55260  -0.53631  -0.53412
 Alpha  occ. eigenvalues --   -0.51708  -0.51217  -0.50878  -0.49721  -0.49522
 Alpha  occ. eigenvalues --   -0.49077  -0.48979  -0.48595  -0.47965  -0.47291
 Alpha  occ. eigenvalues --   -0.47034  -0.46629  -0.46239  -0.46178  -0.45998
 Alpha  occ. eigenvalues --   -0.45840  -0.45549  -0.45002  -0.44572  -0.44235
 Alpha  occ. eigenvalues --   -0.43970  -0.43851  -0.43194  -0.43050  -0.42791
 Alpha  occ. eigenvalues --   -0.42283  -0.41280  -0.41022  -0.40770  -0.40637
 Alpha  occ. eigenvalues --   -0.40493  -0.40343  -0.40223  -0.40107  -0.39702
 Alpha  occ. eigenvalues --   -0.39391  -0.39132  -0.38995  -0.38763  -0.38514
 Alpha  occ. eigenvalues --   -0.38222  -0.37492  -0.37020  -0.36730  -0.36263
 Alpha  occ. eigenvalues --   -0.36103  -0.35904  -0.35148  -0.34747  -0.34368
 Alpha  occ. eigenvalues --   -0.33082  -0.32877  -0.32694  -0.31862  -0.31649
 Alpha  occ. eigenvalues --   -0.30640  -0.30266  -0.29263  -0.28541  -0.27933
 Alpha  occ. eigenvalues --   -0.27459  -0.26107  -0.26027  -0.24934  -0.24480
 Alpha  occ. eigenvalues --   -0.23850  -0.23419  -0.22857  -0.22231  -0.18891
 Alpha virt. eigenvalues --   -0.11380  -0.07312  -0.05981  -0.01397  -0.00673
 Alpha virt. eigenvalues --    0.01135   0.01344   0.01410   0.02387   0.02804
 Alpha virt. eigenvalues --    0.03283   0.03564   0.03758   0.04948   0.05046

 Mulliken charges:
               1
     1  O   -0.160443
     2  O   -0.220268
     3  O   -0.247290
     4  O   -0.237137
     5  O   -0.242321
     6  O   -0.281150
     7  N    0.012107
     8  N   -0.209171
     9  N   -0.129373
    10  N   -0.357152
    11  C    0.087985
    12  C    0.056800
    13  C   -0.074811
    14  C   -0.163275
    15  C   -0.090711
    16  C    0.063105
    17  C   -0.126804
    18  C   -0.081696
    19  C   -0.085088
    20  C   -0.053167
    21  C    0.143613
    22  C    0.142078
    23  C   -0.058939
    24  C    0.158362
    25  C    0.059141
    26  C   -0.114339
    27  C   -0.006174
    28  C    0.127827
    29  C    0.127659
    30  C   -0.070882
    31  C   -0.037465
    32  C    0.127891
    33  C   -0.173713
    34  C    0.135201
    35  C    0.081658
    36  C    0.117401
    37  C    0.167084
    38  C    0.051248
    39  C   -0.142166
    40  C    0.178458
    41  C    0.024793
    42  C    0.199836
    43  C   -0.020976
    44  H    0.020870
    45  H   -0.002657
    46  H    0.039966
    47  H    0.086669
    48  H    0.122859
    49  H    0.024800
    50  H    0.043551
    51  H   -0.020543
    52  H    0.004242
    53  H    0.033268
    54  H   -0.002715
    55  H    0.015131
    56  H    0.068099
    57  H    0.018911
    58  H    0.101740
    59  H    0.042540
    60  H    0.223264
    61  H   -0.081461
    62  H    0.038093
    63  H    0.015577
    64  H    0.031965
    65  H    0.055760
    66  H    0.029864
    67  H    0.045126
    68  H   -0.051919
    69  H    0.044480
    70  H   -0.002923
    71  H   -0.037502
    72  H    0.234719
    73  H   -0.083770
    74  H    0.022759
    75  H   -0.018201
    76  H   -0.026876
    77  H    0.217216
    78  H    0.013025
    79  H    0.056340
 Sum of Mulliken charges =   0.00000

 Dipole moment (field-independent basis, Debye):
    X=             -0.6767    Y=              1.7292    Z=              1.7972  Tot=              2.5842
 Quadrupole moment (field-independent basis, Debye-Ang):
   XX=           -206.0222   YY=           -242.9597   ZZ=           -266.4980
   XY=             -6.2854   XZ=             34.5238   YZ=             -0.6828

 Normal termination of Gaussian 09 at Tue Jul  9 18:37:58 2019.
