 Gaussian 09, Revision D.01,
 Gaussian 09:  ES64L-G09RevD.01 24-Apr-2013

 --------------------------
 # td=(NStates=1) B3LYP/SVP
 --------------------------

 --
 TD
 --
 Symbolic Z-matrix:
 Charge =  0 Multiplicity = 1

                         Standard orientation:
 ---------------------------------------------------------------------
 Center     Atomic      Atomic             Coordinates (Angstroms)
 Number     Number       Type             X           Y           Z
 ---------------------------------------------------------------------
      1          8           0        5.461146   -0.190512   -3.357414
      2          8           0       -2.875639   -3.120978    3.311018
      3          8           0       -3.235346   -0.964518    3.354261
      4          8           0       -1.194289    7.092048    1.818241
      5          8           0       -0.588355    7.075579   -0.509035
      6          8           0       -1.966397   -4.018363   -0.246789
      7          7           0        2.318095    0.734487    0.507205
      8          7           0        4.552311   -0.525101   -1.290437
      9          7           0       -1.908510    0.699596   -0.368774
     10          7           0       -2.646578   -1.879977   -0.675376
     11          6           0        4.866469   -1.176429   -0.065976
     12          6           0        4.485546   -0.414769    1.163306
     13          6           0        3.027181   -0.127969    1.286610
     14          6           0        1.972547   -0.838737    1.985538
     15          6           0        0.683326   -0.208214    1.709130
     16          6           0        0.993980    0.740991    0.668848
     17          6           0        6.361540   -1.269984   -0.130953
     18          6           0       -0.649937   -0.410968    2.446205
     19          6           0        6.797432   -0.909131   -1.345737
     20          6           0        0.234302    1.848131    0.084813
     21          6           0       -1.036742    1.804158   -0.378837
     22          6           0        5.605744   -0.549626   -2.213525
     23          6           0       -1.883658    2.959221   -0.887705
     24          6           0        2.222978   -1.930913    3.075745
     25          6           0        7.235669   -1.953705    1.021203
     26          6           0       -3.192609    2.508384   -1.095856
     27          6           0       -1.109914   -1.835093    2.374393
     28          6           0       -3.174497    1.046357   -0.780440
     29          6           0       -1.363332    4.375713   -0.810518
     30          6           0        8.124718   -0.911070   -2.093076
     31          6           0       -1.645436    5.084739    0.535287
     32          6           0       -4.341937    3.208054   -1.861927
     33          6           0       -4.134723    0.073902   -1.181329
     34          6           0       -2.542694   -1.893648    3.056213
     35          6           0       -3.822408   -1.349679   -1.051720
     36          6           0        9.273109   -0.625150   -1.400531
     37          6           0       -1.121949    6.578587    0.472804
     38          6           0       -4.896079   -2.391787   -1.461082
     39          6           0       -4.197058   -3.532088   -1.199934
     40          6           0       -2.789895   -3.215153   -0.627677
     41          6           0       -6.254194   -2.115619   -1.995347
     42          6           0       -4.683530   -4.975680   -1.337906
     43          6           0       -7.111925   -2.953677   -2.517644
     44          1           0        4.430537   -2.249377   -0.100760
     45          1           0        5.112877    0.615402    1.275219
     46          1           0        4.866452   -0.857039    2.040356
     47          1           0        2.749974    1.577928   -0.086771
     48          1           0        3.478808   -0.660856   -1.645744
     49          1           0       -0.585564   -0.169792    3.473517
     50          1           0       -1.624505    0.095612    2.183860
     51          1           0        0.854602    2.720478   -0.223854
     52          1           0        3.392938   -2.102718    3.380394
     53          1           0        1.794792   -1.672849    3.972410
     54          1           0        1.668141   -2.890084    2.725011
     55          1           0        6.845539   -2.970123    1.343750
     56          1           0        7.392901   -1.365584    1.864415
     57          1           0        8.252980   -2.201507    0.610275
     58          1           0       -0.942915   -2.326702    1.471676
     59          1           0       -0.404844   -2.446274    2.994876
     60          1           0       -1.569988   -0.450228   -0.402136
     61          1           0       -2.009273    4.933885   -1.500549
     62          1           0       -0.398011    4.511358   -0.955393
     63          1           0        7.883714   -1.063727   -3.174153
     64          1           0       -1.450806    4.406060    1.536754
     65          1           0       -2.705787    5.304473    0.782626
     66          1           0       -3.954782    4.270452   -1.994355
     67          1           0       -5.188220    3.327988   -1.057898
     68          1           0       -4.638901    3.030022   -2.786235
     69          1           0       -5.039019    0.470319   -1.543894
     70          1           0        9.451015   -0.349917   -0.374006
     71          1           0       10.388296   -0.599205   -2.031279
     72          1           0       -3.675590   -2.887861    3.918014
     73          1           0       -6.480110   -1.151792   -2.010192
     74          1           0       -4.475084   -5.308788   -2.344099
     75          1           0       -4.229470   -5.866147   -0.720654
     76          1           0       -5.931675   -5.125995   -1.282024
     77          1           0       -0.944558    8.033270    1.554486
     78          1           0       -8.115466   -2.608702   -2.838988
     79          1           0       -6.807328   -3.995944   -2.879480
 ---------------------------------------------------------------------

 SCF Done:  E(RB3LYP) =  -1947.84519887     A.U. after   16 cycles

 Excitation energies and oscillator strengths:

 Excited State   1:      Singlet-A      2.2329 eV  555.26 nm  f=0.4890  <S**2>=0.000
     155 ->156         0.70267
     155 <-156        -0.10344
 This state for optimization and/or second-order correction.
 Total Energy, E(TD-HF/TD-KS) =  -1947.76314115
 Copying the excited state density for this state as the 1-particle RhoCI density.

 The electronic state is 1-A.
 Alpha  occ. eigenvalues --  -19.19659 -19.18130 -19.16106 -19.12075 -19.10796
 Alpha  occ. eigenvalues --  -19.09957 -14.39236 -14.36393 -14.35318 -14.29837
 Alpha  occ. eigenvalues --  -10.34523 -10.30864 -10.28741 -10.26408 -10.25091
 Alpha  occ. eigenvalues --  -10.24746 -10.24678 -10.24170 -10.23273 -10.22938
 Alpha  occ. eigenvalues --  -10.22876 -10.22499 -10.22332 -10.22253 -10.22163
 Alpha  occ. eigenvalues --  -10.22107 -10.22018 -10.21964 -10.21392 -10.21039
 Alpha  occ. eigenvalues --  -10.20848 -10.20465 -10.20425 -10.20069 -10.20068
 Alpha  occ. eigenvalues --  -10.20021 -10.19958 -10.19927 -10.19493 -10.19297
 Alpha  occ. eigenvalues --  -10.19253 -10.18133 -10.17962  -1.11246  -1.08606
 Alpha  occ. eigenvalues --   -1.03311  -1.01806  -1.01625  -1.00470  -0.99145
 Alpha  occ. eigenvalues --   -0.96091  -0.94499  -0.92373  -0.82217  -0.81373
 Alpha  occ. eigenvalues --   -0.81018  -0.80341  -0.80046  -0.79437  -0.77151
 Alpha  occ. eigenvalues --   -0.76275  -0.75407  -0.74946  -0.74501  -0.71962
 Alpha  occ. eigenvalues --   -0.70862  -0.70357  -0.69127  -0.68217  -0.67582
 Alpha  occ. eigenvalues --   -0.65585  -0.64960  -0.63547  -0.60693  -0.59987
 Alpha  occ. eigenvalues --   -0.59276  -0.57712  -0.57287  -0.56933  -0.56156
 Alpha  occ. eigenvalues --   -0.55572  -0.55256  -0.54862  -0.54022  -0.53431
 Alpha  occ. eigenvalues --   -0.52390  -0.51218  -0.50513  -0.50346  -0.49485
 Alpha  occ. eigenvalues --   -0.49307  -0.48913  -0.48205  -0.48004  -0.47575
 Alpha  occ. eigenvalues --   -0.47287  -0.47118  -0.46402  -0.45740  -0.45456
 Alpha  occ. eigenvalues --   -0.45171  -0.44992  -0.44118  -0.44006  -0.43571
 Alpha  occ. eigenvalues --   -0.43304  -0.43250  -0.42947  -0.42781  -0.42529
 Alpha  occ. eigenvalues --   -0.42323  -0.41947  -0.41775  -0.41284  -0.41095
 Alpha  occ. eigenvalues --   -0.40909  -0.40527  -0.40169  -0.39984  -0.39828
 Alpha  occ. eigenvalues --   -0.39350  -0.39297  -0.38307  -0.38066  -0.37867
 Alpha  occ. eigenvalues --   -0.37833  -0.37470  -0.37115  -0.36849  -0.36834
 Alpha  occ. eigenvalues --   -0.35766  -0.35249  -0.34963  -0.34705  -0.34543
 Alpha  occ. eigenvalues --   -0.34002  -0.33696  -0.33560  -0.31995  -0.31544
 Alpha  occ. eigenvalues --   -0.30981  -0.30869  -0.30348  -0.28870  -0.28097
 Alpha  occ. eigenvalues --   -0.27866  -0.26823  -0.25991  -0.25670  -0.25033
 Alpha  occ. eigenvalues --   -0.24113  -0.23966  -0.23589  -0.22722  -0.19259
 Alpha virt. eigenvalues --   -0.10488  -0.05880  -0.05595  -0.02964  -0.00865
 Alpha virt. eigenvalues --   -0.00108   0.00636   0.01990   0.02799   0.03014
 Alpha virt. eigenvalues --    0.03316   0.03735   0.04415   0.04491   0.04966

 Mulliken charges:
               1
     1  O   -0.200879
     2  O   -0.143524
     3  O   -0.238303
     4  O   -0.241773
     5  O   -0.213146
     6  O   -0.192395
     7  N   -0.075081
     8  N   -0.254581
     9  N   -0.196146
    10  N   -0.241763
    11  C    0.111780
    12  C    0.173118
    13  C   -0.073253
    14  C   -0.153983
    15  C   -0.048130
    16  C    0.003317
    17  C   -0.193578
    18  C    0.100335
    19  C   -0.107543
    20  C   -0.082821
    21  C    0.117261
    22  C    0.149892
    23  C   -0.096814
    24  C    0.044785
    25  C    0.073016
    26  C   -0.145202
    27  C   -0.043134
    28  C    0.121976
    29  C    0.216003
    30  C    0.048123
    31  C   -0.100372
    32  C    0.112549
    33  C   -0.102368
    34  C    0.135467
    35  C    0.102003
    36  C   -0.078933
    37  C    0.193242
    38  C    0.035242
    39  C   -0.195037
    40  C    0.142606
    41  C    0.083223
    42  C   -0.013329
    43  C   -0.043040
    44  H    0.039777
    45  H    0.012602
    46  H   -0.025205
    47  H    0.157971
    48  H    0.166750
    49  H   -0.017401
    50  H    0.040119
    51  H   -0.009185
    52  H    0.023024
    53  H    0.004798
    54  H    0.056021
    55  H    0.035493
    56  H    0.018902
    57  H    0.025474
    58  H    0.031893
    59  H    0.003099
    60  H    0.244680
    61  H    0.010830
    62  H   -0.029187
    63  H    0.046505
    64  H    0.076082
    65  H    0.034054
    66  H   -0.001630
    67  H    0.041101
    68  H    0.012320
    69  H   -0.038200
    70  H    0.039033
    71  H    0.046248
    72  H    0.184818
    73  H   -0.076730
    74  H    0.023049
    75  H    0.047140
    76  H    0.036721
    77  H    0.186085
    78  H    0.024412
    79  H    0.039727
 Sum of Mulliken charges =   0.00000

 Dipole moment (field-independent basis, Debye):
    X=              0.6512    Y=              3.0949    Z=              2.9903  Tot=              4.3525
 Quadrupole moment (field-independent basis, Debye-Ang):
   XX=           -220.3102   YY=           -247.1497   ZZ=           -261.2670
   XY=            -14.6830   XZ=             33.0018   YZ=              1.0980

 Normal termination of Gaussian 09 at Wed Jul 10 17:47:09 2019.
