 Gaussian 09, Revision D.01,
 Gaussian 09:  ES64L-G09RevD.01 24-Apr-2013

 --------------------------
 # td=(NStates=1) B3LYP/SVP
 --------------------------

 --
 TD
 --
 Symbolic Z-matrix:
 Charge =  0 Multiplicity = 1

                         Standard orientation:
 ---------------------------------------------------------------------
 Center     Atomic      Atomic             Coordinates (Angstroms)
 Number     Number       Type             X           Y           Z
 ---------------------------------------------------------------------
      1          8           0        5.147710   -0.061790   -3.341075
      2          8           0       -2.933795   -3.243262    3.242734
      3          8           0       -3.173221   -1.044692    3.132524
      4          8           0       -1.217980    7.123769    1.765723
      5          8           0       -0.223830    6.986725   -0.314379
      6          8           0       -2.301161   -3.873202    0.174530
      7          7           0        2.446057    0.757459    0.672181
      8          7           0        4.438753   -0.880814   -1.311708
      9          7           0       -1.884971    0.761385   -0.273325
     10          7           0       -2.904999   -1.670555   -0.396053
     11          6           0        4.900827   -1.349468   -0.028878
     12          6           0        4.463184   -0.500490    1.211339
     13          6           0        3.026374   -0.284017    1.355693
     14          6           0        2.016687   -0.880370    2.092012
     15          6           0        0.754944   -0.241920    1.771787
     16          6           0        1.036986    0.761528    0.862073
     17          6           0        6.412752   -1.443311   -0.376578
     18          6           0       -0.483182   -0.448595    2.584422
     19          6           0        6.661219   -0.889779   -1.511454
     20          6           0        0.262567    1.835947    0.299815
     21          6           0       -1.031564    1.855483   -0.195224
     22          6           0        5.357940   -0.581239   -2.244882
     23          6           0       -1.842219    2.981653   -0.677027
     24          6           0        2.243587   -1.826614    3.155113
     25          6           0        7.221661   -2.068643    0.704044
     26          6           0       -3.017143    2.463494   -1.181259
     27          6           0       -1.117968   -1.905526    2.580983
     28          6           0       -3.068428    1.066714   -0.930730
     29          6           0       -1.282015    4.401004   -0.802555
     30          6           0        7.997222   -0.776345   -2.197011
     31          6           0       -1.391441    5.110793    0.553703
     32          6           0       -4.147082    3.189027   -1.995986
     33          6           0       -4.106769    0.242312   -1.316856
     34          6           0       -2.481107   -1.997504    3.042846
     35          6           0       -3.932837   -1.254330   -1.020710
     36          6           0        9.196309   -0.876635   -1.663015
     37          6           0       -0.855706    6.516504    0.551077
     38          6           0       -4.886577   -2.246920   -1.554939
     39          6           0       -4.313338   -3.445195   -1.253348
     40          6           0       -3.057432   -3.107138   -0.462500
     41          6           0       -6.184329   -1.956333   -2.222698
     42          6           0       -4.732147   -4.832274   -1.447889
     43          6           0       -7.113908   -2.862663   -2.743547
     44          1           0        4.371954   -2.409917   -0.046921
     45          1           0        5.066585    0.432399    1.272341
     46          1           0        4.666396   -1.106122    2.031297
     47          1           0        3.015665    1.404618    0.054526
     48          1           0        3.494004   -0.970645   -1.558091
     49          1           0       -0.298072   -0.132900    3.572755
     50          1           0       -1.348726    0.071217    2.251696
     51          1           0        0.640740    2.968970    0.195240
     52          1           0        3.223957   -1.558179    3.452909
     53          1           0        1.623369   -1.677159    4.024810
     54          1           0        2.005816   -2.822937    2.851321
     55          1           0        6.761537   -2.926116    1.236703
     56          1           0        7.545276   -1.370554    1.515691
     57          1           0        8.006017   -2.694693    0.322867
     58          1           0       -1.205086   -2.335577    1.605273
     59          1           0       -0.677013   -2.754808    3.073283
     60          1           0       -1.717664   -0.092939   -0.071128
     61          1           0       -1.951360    5.013904   -1.630373
     62          1           0       -0.221864    4.470194   -1.164367
     63          1           0        7.832462   -0.583480   -3.411306
     64          1           0       -0.779181    4.609909    1.428310
     65          1           0       -2.607527    5.211186    0.936098
     66          1           0       -3.994921    4.329890   -2.150711
     67          1           0       -5.044261    3.147649   -1.398056
     68          1           0       -4.333063    2.741513   -2.923396
     69          1           0       -4.922230    0.639062   -1.902343
     70          1           0        9.541383   -1.288006   -0.638023
     71          1           0       10.025121   -0.703485   -2.509440
     72          1           0       -3.837291   -3.068048    3.472205
     73          1           0       -6.477957   -0.941588   -2.298557
     74          1           0       -4.825530   -4.898240   -2.489884
     75          1           0       -4.132752   -5.451878   -1.156351
     76          1           0       -5.900390   -4.894301   -0.905571
     77          1           0       -0.941988    8.183849    1.606201
     78          1           0       -7.928668   -2.393341   -3.390255
     79          1           0       -6.762809   -3.917038   -3.003811
 ---------------------------------------------------------------------

 SCF Done:  E(RB3LYP) =  -1947.85984983     A.U. after   16 cycles

 Excitation energies and oscillator strengths:

 Excited State   1:      Singlet-A      2.0081 eV  617.41 nm  f=0.3964  <S**2>=0.000
     155 ->156         0.70324
 This state for optimization and/or second-order correction.
 Total Energy, E(TD-HF/TD-KS) =  -1947.78605182
 Copying the excited state density for this state as the 1-particle RhoCI density.

 The electronic state is 1-A.
 Alpha  occ. eigenvalues --  -19.18574 -19.16244 -19.14231 -19.12182 -19.10100
 Alpha  occ. eigenvalues --  -19.09742 -14.37701 -14.34950 -14.34655 -14.29987
 Alpha  occ. eigenvalues --  -10.32208 -10.28983 -10.28387 -10.28160 -10.25428
 Alpha  occ. eigenvalues --  -10.24099 -10.23996 -10.23861 -10.22965 -10.22953
 Alpha  occ. eigenvalues --  -10.22484 -10.22180 -10.22051 -10.21744 -10.21703
 Alpha  occ. eigenvalues --  -10.21317 -10.21315 -10.21309 -10.21116 -10.20939
 Alpha  occ. eigenvalues --  -10.20872 -10.20749 -10.20616 -10.20504 -10.20396
 Alpha  occ. eigenvalues --  -10.19914 -10.19461 -10.19060 -10.18847 -10.18469
 Alpha  occ. eigenvalues --  -10.18091 -10.17827 -10.17166  -1.09533  -1.09407
 Alpha  occ. eigenvalues --   -1.01962  -1.01304  -1.00641  -0.99914  -0.98168
 Alpha  occ. eigenvalues --   -0.97090  -0.94645  -0.93712  -0.82499  -0.82219
 Alpha  occ. eigenvalues --   -0.81698  -0.81420  -0.81064  -0.79817  -0.77259
 Alpha  occ. eigenvalues --   -0.77067  -0.76669  -0.75966  -0.74637  -0.72583
 Alpha  occ. eigenvalues --   -0.72131  -0.71449  -0.71061  -0.69000  -0.68110
 Alpha  occ. eigenvalues --   -0.67744  -0.66142  -0.64219  -0.60875  -0.60302
 Alpha  occ. eigenvalues --   -0.58985  -0.58280  -0.58051  -0.57694  -0.56426
 Alpha  occ. eigenvalues --   -0.55616  -0.55023  -0.54486  -0.54295  -0.53174
 Alpha  occ. eigenvalues --   -0.52595  -0.51575  -0.50377  -0.49628  -0.49179
 Alpha  occ. eigenvalues --   -0.48746  -0.48439  -0.48032  -0.47655  -0.47297
 Alpha  occ. eigenvalues --   -0.47188  -0.46959  -0.46765  -0.46120  -0.45958
 Alpha  occ. eigenvalues --   -0.45798  -0.44895  -0.44538  -0.44168  -0.44112
 Alpha  occ. eigenvalues --   -0.43880  -0.43560  -0.42909  -0.42412  -0.42254
 Alpha  occ. eigenvalues --   -0.41993  -0.41812  -0.41564  -0.41525  -0.41216
 Alpha  occ. eigenvalues --   -0.40915  -0.40680  -0.40479  -0.40343  -0.39785
 Alpha  occ. eigenvalues --   -0.39484  -0.39387  -0.39096  -0.38958  -0.38213
 Alpha  occ. eigenvalues --   -0.38013  -0.37988  -0.37493  -0.37081  -0.36551
 Alpha  occ. eigenvalues --   -0.36310  -0.36178  -0.35658  -0.34751  -0.34653
 Alpha  occ. eigenvalues --   -0.34470  -0.33376  -0.32999  -0.32867  -0.31244
 Alpha  occ. eigenvalues --   -0.31064  -0.30867  -0.29247  -0.29132  -0.29034
 Alpha  occ. eigenvalues --   -0.26134  -0.25972  -0.25872  -0.25528  -0.25207
 Alpha  occ. eigenvalues --   -0.25026  -0.24424  -0.23654  -0.23162  -0.18877
 Alpha virt. eigenvalues --   -0.10901  -0.06761  -0.04976  -0.01900  -0.00164
 Alpha virt. eigenvalues --    0.01117   0.01639   0.01737   0.02977   0.03724
 Alpha virt. eigenvalues --    0.03946   0.04760   0.04842   0.05067   0.05441

 Mulliken charges:
               1
     1  O   -0.235783
     2  O   -0.154590
     3  O   -0.222645
     4  O   -0.292420
     5  O   -0.171832
     6  O   -0.213435
     7  N   -0.128736
     8  N   -0.154464
     9  N    0.014339
    10  N   -0.219627
    11  C    0.036038
    12  C    0.310843
    13  C   -0.124677
    14  C   -0.178468
    15  C   -0.056457
    16  C    0.105330
    17  C   -0.167137
    18  C    0.150604
    19  C   -0.067744
    20  C   -0.091790
    21  C    0.030882
    22  C    0.143055
    23  C   -0.048561
    24  C    0.170017
    25  C    0.089806
    26  C   -0.144339
    27  C    0.052716
    28  C    0.140852
    29  C    0.035358
    30  C   -0.034132
    31  C   -0.112632
    32  C    0.114429
    33  C   -0.127202
    34  C    0.061073
    35  C    0.055703
    36  C   -0.084976
    37  C    0.154643
    38  C    0.032963
    39  C   -0.240189
    40  C    0.173556
    41  C   -0.015183
    42  C    0.229318
    43  C   -0.055953
    44  H    0.029482
    45  H    0.005438
    46  H   -0.046490
    47  H    0.135576
    48  H    0.106599
    49  H    0.000440
    50  H   -0.004175
    51  H    0.010832
    52  H   -0.001817
    53  H   -0.007311
    54  H    0.020491
    55  H    0.004971
    56  H    0.046073
    57  H    0.015538
    58  H    0.030219
    59  H   -0.013528
    60  H    0.043033
    61  H    0.041304
    62  H    0.043875
    63  H    0.057848
    64  H    0.073620
    65  H    0.073946
    66  H    0.021241
    67  H    0.019610
    68  H    0.021697
    69  H   -0.028258
    70  H    0.048294
    71  H    0.045723
    72  H    0.152581
    73  H   -0.016804
    74  H    0.017930
    75  H   -0.078053
    76  H    0.060743
    77  H    0.227489
    78  H    0.042746
    79  H    0.040543
 Sum of Mulliken charges =   0.00000

 Dipole moment (field-independent basis, Debye):
    X=             -0.0077    Y=              1.0751    Z=              1.9129  Tot=              2.1944
 Quadrupole moment (field-independent basis, Debye-Ang):
   XX=           -222.9220   YY=           -238.8065   ZZ=           -262.4353
   XY=            -14.4830   XZ=             39.3818   YZ=              6.6152

 Normal termination of Gaussian 09 at Wed Jul 10 08:28:14 2019.
