 Gaussian 09, Revision D.01,
 Gaussian 09:  ES64L-G09RevD.01 24-Apr-2013

 --------------------------
 # td=(NStates=1) B3LYP/SVP
 --------------------------

 --
 TD
 --
 Symbolic Z-matrix:
 Charge =  0 Multiplicity = 1

                         Standard orientation:
 ---------------------------------------------------------------------
 Center     Atomic      Atomic             Coordinates (Angstroms)
 Number     Number       Type             X           Y           Z
 ---------------------------------------------------------------------
      1          8           0        5.510554    0.082003   -3.360190
      2          8           0       -2.675564   -3.297718    3.596871
      3          8           0       -3.192331   -1.026050    3.312268
      4          8           0       -2.071398    7.252621    1.507746
      5          8           0       -0.744190    7.111713   -0.265465
      6          8           0       -1.876552   -4.064153   -0.049181
      7          7           0        2.386976    0.951141    0.680562
      8          7           0        4.546243   -0.592202   -1.289374
      9          7           0       -1.939014    0.715100   -0.291331
     10          7           0       -2.710735   -1.917503   -0.479872
     11          6           0        4.904424   -1.157035   -0.102333
     12          6           0        4.453116   -0.352883    1.199326
     13          6           0        3.025352   -0.106978    1.268635
     14          6           0        2.060158   -0.711735    1.994838
     15          6           0        0.734110   -0.217747    1.679977
     16          6           0        1.060277    0.819074    0.795997
     17          6           0        6.355151   -1.204308   -0.259351
     18          6           0       -0.565623   -0.381077    2.389228
     19          6           0        6.734844   -0.701651   -1.459171
     20          6           0        0.234786    1.973771    0.229291
     21          6           0       -1.132059    1.876968   -0.299560
     22          6           0        5.541411   -0.361772   -2.215623
     23          6           0       -1.952462    2.762865   -0.911198
     24          6           0        2.367881   -1.864492    3.016285
     25          6           0        7.213729   -1.792618    0.880166
     26          6           0       -3.131364    2.376351   -1.291521
     27          6           0       -1.002398   -1.902337    2.608707
     28          6           0       -3.116600    0.984519   -0.899062
     29          6           0       -1.637126    4.447317   -0.767907
     30          6           0        8.061798   -0.527244   -2.042822
     31          6           0       -2.015225    5.167340    0.487979
     32          6           0       -4.406876    2.928096   -1.744764
     33          6           0       -3.984945   -0.041115   -1.313361
     34          6           0       -2.425571   -1.973003    3.174297
     35          6           0       -3.797665   -1.394662   -1.087302
     36          6           0        9.168719   -0.394375   -1.337705
     37          6           0       -1.558923    6.566791    0.466180
     38          6           0       -4.689768   -2.553592   -1.556851
     39          6           0       -4.023820   -3.657661   -1.313296
     40          6           0       -2.702483   -3.313191   -0.569729
     41          6           0       -6.012868   -2.328832   -2.180064
     42          6           0       -4.382039   -5.178972   -1.361516
     43          6           0       -6.661340   -3.259613   -2.827301
     44          1           0        4.548634   -2.332043    0.052052
     45          1           0        4.882563    0.511068    0.993693
     46          1           0        4.732541   -0.846297    2.116984
     47          1           0        2.712728    1.473004   -0.194394
     48          1           0        3.556217   -0.605276   -1.563908
     49          1           0       -0.227790   -0.090852    3.463542
     50          1           0       -1.352056    0.161385    2.052707
     51          1           0        0.988528    2.720569    0.020314
     52          1           0        3.510615   -2.132014    2.927291
     53          1           0        2.058339   -1.474457    4.284215
     54          1           0        1.855614   -2.822157    2.593294
     55          1           0        6.656690   -2.579218    1.407607
     56          1           0        7.644993   -0.991300    1.289988
     57          1           0        8.105274   -2.354351    0.536506
     58          1           0       -1.024587   -2.497276    1.597121
     59          1           0       -0.289196   -2.538638    3.259565
     60          1           0       -1.962970   -0.386611   -0.249087
     61          1           0       -2.168650    4.800516   -1.688150
     62          1           0       -0.577823    4.526739   -1.044640
     63          1           0        8.009178   -0.561493   -3.150409
     64          1           0       -1.688010    4.694392    1.479125
     65          1           0       -3.216882    5.103366    0.688478
     66          1           0       -4.314878    3.923562   -1.644964
     67          1           0       -5.100401    2.867352   -1.295635
     68          1           0       -4.697759    2.522741   -2.659900
     69          1           0       -4.958435    0.189976   -1.789604
     70          1           0        9.237971   -0.223217   -0.244351
     71          1           0       10.168877   -0.089020   -1.917751
     72          1           0       -3.714870   -3.363604    3.834942
     73          1           0       -6.465584   -1.423359   -2.127991
     74          1           0       -4.446969   -5.477392   -2.458420
     75          1           0       -3.503306   -5.782883   -0.979409
     76          1           0       -5.224985   -5.429892   -0.938555
     77          1           0       -1.904522    8.225722    1.524495
     78          1           0       -7.602603   -3.196337   -3.107014
     79          1           0       -6.114539   -4.242989   -3.246861
 ---------------------------------------------------------------------

 SCF Done:  E(RB3LYP) =  -1947.73003456     A.U. after   17 cycles

 Excitation energies and oscillator strengths:

 Excited State   1:      Singlet-A      2.1499 eV  576.69 nm  f=0.4876  <S**2>=0.000
     155 ->156         0.69969
     155 <-156        -0.12250
 This state for optimization and/or second-order correction.
 Total Energy, E(TD-HF/TD-KS) =  -1947.65102621
 Copying the excited state density for this state as the 1-particle RhoCI density.

 The electronic state is 1-A.
 Alpha  occ. eigenvalues --  -19.17936 -19.16771 -19.12764 -19.12021 -19.10790
 Alpha  occ. eigenvalues --  -19.10782 -14.38894 -14.36330 -14.35897 -14.29258
 Alpha  occ. eigenvalues --  -10.32656 -10.31054 -10.28903 -10.27005 -10.25749
 Alpha  occ. eigenvalues --  -10.25464 -10.24322 -10.23972 -10.23355 -10.23255
 Alpha  occ. eigenvalues --  -10.23237 -10.23078 -10.22814 -10.21741 -10.21433
 Alpha  occ. eigenvalues --  -10.21251 -10.20695 -10.20295 -10.20250 -10.20098
 Alpha  occ. eigenvalues --  -10.19959 -10.19901 -10.19900 -10.19776 -10.19574
 Alpha  occ. eigenvalues --  -10.19477 -10.19476 -10.19464 -10.19317 -10.19298
 Alpha  occ. eigenvalues --  -10.18753 -10.18086 -10.16811  -1.09336  -1.05035
 Alpha  occ. eigenvalues --   -1.03088  -1.00753  -1.00621  -0.99798  -0.99110
 Alpha  occ. eigenvalues --   -0.97670  -0.97131  -0.91575  -0.83093  -0.82567
 Alpha  occ. eigenvalues --   -0.82411  -0.81158  -0.80842  -0.80466  -0.79074
 Alpha  occ. eigenvalues --   -0.77586  -0.75765  -0.75446  -0.74877  -0.74481
 Alpha  occ. eigenvalues --   -0.72770  -0.71531  -0.69602  -0.68924  -0.68502
 Alpha  occ. eigenvalues --   -0.67683  -0.66399  -0.64253  -0.61760  -0.61554
 Alpha  occ. eigenvalues --   -0.60495  -0.59354  -0.57843  -0.57337  -0.57058
 Alpha  occ. eigenvalues --   -0.55711  -0.55610  -0.55204  -0.54954  -0.53840
 Alpha  occ. eigenvalues --   -0.52473  -0.52340  -0.51302  -0.51002  -0.50025
 Alpha  occ. eigenvalues --   -0.49116  -0.48532  -0.47816  -0.47721  -0.47462
 Alpha  occ. eigenvalues --   -0.47384  -0.46865  -0.46480  -0.46330  -0.46023
 Alpha  occ. eigenvalues --   -0.45777  -0.45429  -0.45322  -0.44785  -0.44594
 Alpha  occ. eigenvalues --   -0.44287  -0.43553  -0.43307  -0.43200  -0.42879
 Alpha  occ. eigenvalues --   -0.42348  -0.41861  -0.41541  -0.41486  -0.41256
 Alpha  occ. eigenvalues --   -0.40794  -0.40232  -0.40104  -0.39930  -0.39888
 Alpha  occ. eigenvalues --   -0.39571  -0.39272  -0.39010  -0.38640  -0.38515
 Alpha  occ. eigenvalues --   -0.38043  -0.37667  -0.37146  -0.36814  -0.36463
 Alpha  occ. eigenvalues --   -0.35671  -0.35276  -0.34673  -0.34487  -0.34286
 Alpha  occ. eigenvalues --   -0.34246  -0.33031  -0.32608  -0.32132  -0.31773
 Alpha  occ. eigenvalues --   -0.31207  -0.30674  -0.28992  -0.28436  -0.27601
 Alpha  occ. eigenvalues --   -0.27210  -0.26965  -0.26932  -0.26285  -0.25016
 Alpha  occ. eigenvalues --   -0.24729  -0.24280  -0.24072  -0.22881  -0.19548
 Alpha virt. eigenvalues --   -0.11301  -0.06266  -0.05730  -0.01284  -0.00635
 Alpha virt. eigenvalues --    0.00410   0.00985   0.01430   0.02255   0.02486
 Alpha virt. eigenvalues --    0.03301   0.03872   0.04262   0.04675   0.04994

 Mulliken charges:
               1
     1  O   -0.222832
     2  O   -0.276327
     3  O   -0.238223
     4  O   -0.206778
     5  O   -0.229222
     6  O   -0.218776
     7  N   -0.064769
     8  N   -0.146663
     9  N   -0.131131
    10  N   -0.311823
    11  C   -0.025556
    12  C    0.361311
    13  C   -0.106554
    14  C   -0.154328
    15  C   -0.052921
    16  C   -0.053908
    17  C   -0.209840
    18  C    0.153625
    19  C   -0.061499
    20  C   -0.038024
    21  C    0.161835
    22  C    0.151758
    23  C   -0.125975
    24  C   -0.036702
    25  C    0.157240
    26  C   -0.123995
    27  C   -0.114530
    28  C    0.032876
    29  C    0.051654
    30  C    0.024957
    31  C   -0.018921
    32  C    0.439850
    33  C   -0.074610
    34  C    0.193018
    35  C    0.062453
    36  C   -0.075223
    37  C    0.142802
    38  C    0.082689
    39  C   -0.245054
    40  C    0.180002
    41  C    0.022146
    42  C    0.128564
    43  C    0.006911
    44  H    0.039292
    45  H   -0.079621
    46  H    0.004442
    47  H    0.140983
    48  H    0.126464
    49  H    0.026548
    50  H   -0.009760
    51  H   -0.001327
    52  H    0.010932
    53  H    0.061801
    54  H    0.070036
    55  H    0.024289
    56  H    0.005037
    57  H    0.020202
    58  H    0.096638
    59  H    0.048497
    60  H    0.182300
    61  H    0.024037
    62  H    0.016981
    63  H    0.023433
    64  H    0.064984
    65  H    0.055206
    66  H   -0.045684
    67  H   -0.155856
    68  H    0.006437
    69  H   -0.027147
    70  H    0.021959
    71  H    0.044105
    72  H    0.216372
    73  H   -0.054221
    74  H    0.019918
    75  H    0.032679
    76  H   -0.009957
    77  H    0.196958
    78  H   -0.025865
    79  H    0.039398
 Sum of Mulliken charges =   0.00000

 Dipole moment (field-independent basis, Debye):
    X=             -0.5851    Y=              2.3544    Z=              2.6190  Tot=              3.5700
 Quadrupole moment (field-independent basis, Debye-Ang):
   XX=           -216.6773   YY=           -249.0782   ZZ=           -265.0335
   XY=            -15.6134   XZ=             33.3101   YZ=              7.9764

 Normal termination of Gaussian 09 at Sun Jul  7 17:14:37 2019.
