 Gaussian 09, Revision D.01,
 Gaussian 09:  ES64L-G09RevD.01 24-Apr-2013

 --------------------------
 # td=(NStates=1) B3LYP/SVP
 --------------------------

 --
 TD
 --
 Symbolic Z-matrix:
 Charge =  0 Multiplicity = 1

                         Standard orientation:
 ---------------------------------------------------------------------
 Center     Atomic      Atomic             Coordinates (Angstroms)
 Number     Number       Type             X           Y           Z
 ---------------------------------------------------------------------
      1          8           0        5.286088   -0.075620   -3.243646
      2          8           0       -3.005239   -3.309720    3.039091
      3          8           0       -3.251416   -1.113445    3.100031
      4          8           0       -0.893082    7.167115    1.764922
      5          8           0       -0.229138    7.146242   -0.473166
      6          8           0       -2.225752   -3.945989   -0.139164
      7          7           0        2.432101    0.736987    0.684022
      8          7           0        4.256390   -0.614273   -1.233471
      9          7           0       -1.821262    0.802743   -0.231749
     10          7           0       -2.783943   -1.687115   -0.578554
     11          6           0        4.643906   -1.421063   -0.060466
     12          6           0        4.424537   -0.604283    1.288018
     13          6           0        2.977879   -0.226121    1.433030
     14          6           0        2.036381   -0.960649    2.082872
     15          6           0        0.766737   -0.315904    1.773669
     16          6           0        1.076312    0.735254    0.863756
     17          6           0        6.113826   -1.529696   -0.355182
     18          6           0       -0.609711   -0.528571    2.405140
     19          6           0        6.531499   -0.972610   -1.572190
     20          6           0        0.290670    1.754286    0.255598
     21          6           0       -0.947544    1.816265   -0.193994
     22          6           0        5.304532   -0.533727   -2.157786
     23          6           0       -1.661593    3.005015   -0.709808
     24          6           0        2.117627   -1.980516    3.114855
     25          6           0        7.097472   -2.143603    0.675425
     26          6           0       -2.901462    2.559539   -1.034350
     27          6           0       -1.119572   -1.961828    2.526911
     28          6           0       -3.014437    1.151035   -0.888809
     29          6           0       -1.113431    4.374719   -0.687806
     30          6           0        7.767405   -0.864188   -2.225089
     31          6           0       -1.325485    5.156356    0.617914
     32          6           0       -4.117595    3.236910   -1.692694
     33          6           0       -4.056871    0.243791   -1.207093
     34          6           0       -2.559682   -2.069284    2.967618
     35          6           0       -3.784603   -1.178762   -1.086070
     36          6           0        8.964690   -1.071336   -1.576718
     37          6           0       -0.735337    6.581353    0.543145
     38          6           0       -4.857754   -2.124016   -1.537990
     39          6           0       -4.329786   -3.336743   -1.244322
     40          6           0       -2.968957   -3.105446   -0.609741
     41          6           0       -6.142725   -1.831634   -2.088226
     42          6           0       -4.705624   -4.710899   -1.449353
     43          6           0       -6.960743   -2.642489   -2.734809
     44          1           0        4.193147   -2.369953    0.180007
     45          1           0        5.144994    0.373897    1.443388
     46          1           0        4.591543   -1.247099    2.123899
     47          1           0        3.059161    1.403838    0.117590
     48          1           0        3.377532   -0.588301   -1.523499
     49          1           0       -0.532526    0.018811    3.498619
     50          1           0       -1.406004   -0.145630    1.778328
     51          1           0        0.848419    2.699364   -0.273879
     52          1           0        3.102526   -2.327560    3.520599
     53          1           0        1.401035   -1.829339    4.005227
     54          1           0        1.537573   -2.762674    2.680943
     55          1           0        6.498439   -2.776988    1.431357
     56          1           0        7.286844   -1.270375    1.383527
     57          1           0        8.048880   -2.512233    0.371363
     58          1           0       -0.872202   -2.472733    1.559126
     59          1           0       -0.372317   -2.509069    3.210734
     60          1           0       -1.535035   -0.172548   -0.477887
     61          1           0       -1.467748    4.937830   -1.624619
     62          1           0       -0.080328    4.351570   -0.930047
     63          1           0        7.727404   -0.876333   -3.437517
     64          1           0       -0.970373    4.503820    1.451329
     65          1           0       -2.312165    5.295621    0.940805
     66          1           0       -3.965419    4.448376   -1.540166
     67          1           0       -5.090233    2.913770   -1.045783
     68          1           0       -4.477716    3.266133   -2.870840
     69          1           0       -5.151104    0.479912   -1.531217
     70          1           0        8.943300   -1.188902   -0.475800
     71          1           0        9.939573   -1.011842   -2.076744
     72          1           0       -4.010936   -3.228802    3.121762
     73          1           0       -6.759260   -0.815010   -1.559745
     74          1           0       -4.600173   -5.137944   -2.478233
     75          1           0       -4.283773   -5.404660   -0.691715
     76          1           0       -5.957610   -4.928915   -1.268346
     77          1           0       -0.425735    8.142832    1.514374
     78          1           0       -8.055350   -2.203500   -2.923896
     79          1           0       -6.612410   -3.679352   -3.082069
 ---------------------------------------------------------------------

 SCF Done:  E(RB3LYP) =  -1947.85186654     A.U. after   16 cycles

 Excitation energies and oscillator strengths:

 Excited State   1:      Singlet-A      2.1380 eV  579.90 nm  f=0.5010  <S**2>=0.000
     155 ->156         0.70438
     155 <-156        -0.10585
 This state for optimization and/or second-order correction.
 Total Energy, E(TD-HF/TD-KS) =  -1947.77329482
 Copying the excited state density for this state as the 1-particle RhoCI density.

 The electronic state is 1-A.
 Alpha  occ. eigenvalues --  -19.20699 -19.17369 -19.14313 -19.11882 -19.10961
 Alpha  occ. eigenvalues --  -19.09826 -14.38576 -14.35510 -14.34775 -14.29163
 Alpha  occ. eigenvalues --  -10.33895 -10.30292 -10.27574 -10.27498 -10.25876
 Alpha  occ. eigenvalues --  -10.24225 -10.23022 -10.22962 -10.22927 -10.22814
 Alpha  occ. eigenvalues --  -10.22741 -10.22592 -10.22268 -10.21816 -10.21635
 Alpha  occ. eigenvalues --  -10.21588 -10.21535 -10.21250 -10.21116 -10.20959
 Alpha  occ. eigenvalues --  -10.20859 -10.20646 -10.20262 -10.20048 -10.19985
 Alpha  occ. eigenvalues --  -10.19773 -10.19676 -10.19575 -10.19570 -10.19399
 Alpha  occ. eigenvalues --  -10.19215 -10.18928 -10.18773  -1.09529  -1.08597
 Alpha  occ. eigenvalues --   -1.04590  -1.02627  -1.00015  -0.99635  -0.99274
 Alpha  occ. eigenvalues --   -0.98635  -0.94793  -0.94705  -0.82831  -0.82649
 Alpha  occ. eigenvalues --   -0.82012  -0.81555  -0.81380  -0.79622  -0.77705
 Alpha  occ. eigenvalues --   -0.77012  -0.76285  -0.75504  -0.74325  -0.72374
 Alpha  occ. eigenvalues --   -0.71981  -0.70988  -0.69736  -0.69334  -0.67225
 Alpha  occ. eigenvalues --   -0.66252  -0.65944  -0.63938  -0.61990  -0.59948
 Alpha  occ. eigenvalues --   -0.59008  -0.58659  -0.57807  -0.57316  -0.56453
 Alpha  occ. eigenvalues --   -0.56243  -0.55976  -0.54508  -0.53874  -0.53201
 Alpha  occ. eigenvalues --   -0.52251  -0.52117  -0.51653  -0.50180  -0.49712
 Alpha  occ. eigenvalues --   -0.49537  -0.49457  -0.48570  -0.48073  -0.47449
 Alpha  occ. eigenvalues --   -0.47170  -0.46854  -0.46486  -0.46219  -0.45920
 Alpha  occ. eigenvalues --   -0.45392  -0.44881  -0.44261  -0.43651  -0.43256
 Alpha  occ. eigenvalues --   -0.43165  -0.42854  -0.42763  -0.42465  -0.42345
 Alpha  occ. eigenvalues --   -0.42068  -0.41770  -0.41572  -0.41340  -0.41171
 Alpha  occ. eigenvalues --   -0.40795  -0.40630  -0.40336  -0.39919  -0.39716
 Alpha  occ. eigenvalues --   -0.39613  -0.39465  -0.38947  -0.38836  -0.38400
 Alpha  occ. eigenvalues --   -0.38027  -0.37660  -0.37169  -0.36685  -0.36443
 Alpha  occ. eigenvalues --   -0.36071  -0.35195  -0.35074  -0.34874  -0.34522
 Alpha  occ. eigenvalues --   -0.33742  -0.33117  -0.32828  -0.31610  -0.31377
 Alpha  occ. eigenvalues --   -0.31323  -0.31067  -0.29752  -0.29462  -0.28339
 Alpha  occ. eigenvalues --   -0.27582  -0.26999  -0.26238  -0.25469  -0.24827
 Alpha  occ. eigenvalues --   -0.24246  -0.23969  -0.23444  -0.23138  -0.18812
 Alpha virt. eigenvalues --   -0.10444  -0.06481  -0.06093  -0.02090  -0.00449
 Alpha virt. eigenvalues --    0.00533   0.00788   0.01394   0.02084   0.02519
 Alpha virt. eigenvalues --    0.03258   0.03732   0.04063   0.04421   0.05150

 Mulliken charges:
               1
     1  O   -0.176153
     2  O   -0.172289
     3  O   -0.213319
     4  O   -0.240148
     5  O   -0.278285
     6  O   -0.177815
     7  N   -0.053042
     8  N   -0.171665
     9  N   -0.066557
    10  N   -0.192095
    11  C    0.170069
    12  C    0.130618
    13  C   -0.146786
    14  C   -0.100244
    15  C   -0.112058
    16  C    0.069289
    17  C   -0.199443
    18  C    0.063628
    19  C    0.002526
    20  C   -0.115343
    21  C    0.027356
    22  C    0.099402
    23  C   -0.075794
    24  C    0.085447
    25  C    0.078190
    26  C   -0.076380
    27  C   -0.076537
    28  C    0.128382
    29  C    0.117669
    30  C   -0.066224
    31  C    0.031371
    32  C   -0.066207
    33  C   -0.134428
    34  C    0.150046
    35  C    0.002821
    36  C   -0.043753
    37  C    0.194135
    38  C    0.051650
    39  C   -0.166955
    40  C    0.149894
    41  C   -0.069940
    42  C   -0.011652
    43  C   -0.086784
    44  H    0.017515
    45  H    0.024976
    46  H   -0.021904
    47  H    0.152100
    48  H    0.080125
    49  H    0.034835
    50  H    0.027185
    51  H    0.008328
    52  H    0.017667
    53  H    0.027934
    54  H    0.017956
    55  H    0.012683
    56  H    0.033071
    57  H    0.044417
    58  H    0.064305
    59  H    0.010269
    60  H    0.163510
    61  H    0.027230
    62  H   -0.012892
    63  H    0.057466
    64  H    0.044979
    65  H    0.022058
    66  H    0.023203
    67  H    0.050374
    68  H    0.072598
    69  H    0.013606
    70  H    0.018058
    71  H    0.030935
    72  H    0.193870
    73  H    0.044314
    74  H    0.050303
    75  H    0.039353
    76  H    0.019687
    77  H    0.233912
    78  H    0.050481
    79  H    0.042901
 Sum of Mulliken charges =   0.00000

 Dipole moment (field-independent basis, Debye):
    X=              0.9237    Y=              0.9616    Z=              2.8970  Tot=              3.1891
 Quadrupole moment (field-independent basis, Debye-Ang):
   XX=           -221.7116   YY=           -246.5062   ZZ=           -265.3911
   XY=             -8.0985   XZ=             29.6989   YZ=              7.1860

 Normal termination of Gaussian 09 at Mon Jul  8 19:49:01 2019.
