 Gaussian 09, Revision D.01,
 Gaussian 09:  ES64L-G09RevD.01 24-Apr-2013

 --------------------------
 # td=(NStates=1) B3LYP/SVP
 --------------------------

 --
 TD
 --
 Symbolic Z-matrix:
 Charge =  0 Multiplicity = 1

                         Standard orientation:
 ---------------------------------------------------------------------
 Center     Atomic      Atomic             Coordinates (Angstroms)
 Number     Number       Type             X           Y           Z
 ---------------------------------------------------------------------
      1          8           0        5.460161   -0.199504   -3.403648
      2          8           0       -2.662667   -3.507559    3.345351
      3          8           0       -3.157574   -1.274647    3.482714
      4          8           0       -1.727555    7.290770    1.461353
      5          8           0       -0.376699    6.989720   -0.333401
      6          8           0       -2.141677   -4.030565   -0.128963
      7          7           0        2.393307    0.948886    0.575212
      8          7           0        4.530453   -0.562697   -1.366410
      9          7           0       -1.904262    0.704553   -0.243669
     10          7           0       -2.709468   -1.800077   -0.640641
     11          6           0        4.838717   -1.159113   -0.082595
     12          6           0        4.419089   -0.347890    1.041799
     13          6           0        3.007113   -0.100751    1.196109
     14          6           0        1.995607   -0.766156    2.036415
     15          6           0        0.803202   -0.172880    1.720998
     16          6           0        0.991355    0.860498    0.824520
     17          6           0        6.375364   -1.283582   -0.168883
     18          6           0       -0.420812   -0.482039    2.595177
     19          6           0        6.731638   -0.889275   -1.472866
     20          6           0        0.176749    1.927041    0.242719
     21          6           0       -1.128484    1.888448   -0.149376
     22          6           0        5.584910   -0.531090   -2.232795
     23          6           0       -1.919704    2.957706   -0.640371
     24          6           0        2.388346   -1.800591    3.066059
     25          6           0        7.158288   -1.788907    0.966471
     26          6           0       -3.179627    2.497274   -1.034606
     27          6           0       -1.066154   -1.880428    2.360144
     28          6           0       -3.120814    0.986503   -0.915343
     29          6           0       -1.497286    4.339118   -0.663881
     30          6           0        8.023683   -0.861135   -2.095362
     31          6           0       -1.804604    5.117038    0.452568
     32          6           0       -4.319769    3.113326   -1.642335
     33          6           0       -4.032091    0.038238   -1.345753
     34          6           0       -2.415580   -2.150368    3.196793
     35          6           0       -3.901422   -1.286531   -1.126537
     36          6           0        9.340827   -0.724666   -1.474712
     37          6           0       -1.185664    6.589380    0.498994
     38          6           0       -4.770822   -2.397371   -1.642556
     39          6           0       -4.203465   -3.568202   -1.272894
     40          6           0       -2.851855   -3.154896   -0.568854
     41          6           0       -6.153215   -2.076108   -2.174233
     42          6           0       -4.688638   -5.040858   -1.363911
     43          6           0       -6.982927   -2.882523   -2.761975
     44          1           0        4.206553   -2.087149   -0.067164
     45          1           0        4.820964    0.709506    0.867787
     46          1           0        4.873648   -0.958314    1.914636
     47          1           0        2.915227    1.786215   -0.066873
     48          1           0        3.660320   -0.541441   -1.942488
     49          1           0       -0.116190   -0.354509    3.589960
     50          1           0       -1.409598    0.233671    2.510122
     51          1           0        0.731605    2.915382    0.165349
     52          1           0        3.501921   -1.994697    3.043561
     53          1           0        1.951624   -1.706531    4.046815
     54          1           0        1.932622   -2.726369    2.656034
     55          1           0        6.497929   -2.356003    1.715034
     56          1           0        7.571674   -0.927581    1.726918
     57          1           0        7.963542   -2.210813    0.614796
     58          1           0       -1.399462   -2.197498    1.296684
     59          1           0       -0.383690   -2.762823    2.523591
     60          1           0       -1.443263   -0.337077    0.043128
     61          1           0       -1.887505    4.809124   -1.672734
     62          1           0       -0.453363    4.446952   -0.841781
     63          1           0        8.122778   -0.636456   -3.213598
     64          1           0       -1.359393    4.623387    1.428699
     65          1           0       -2.852195    5.385600    0.535742
     66          1           0       -4.022901    4.206899   -1.587911
     67          1           0       -5.085342    2.904212   -1.183844
     68          1           0       -4.511638    2.645095   -2.549198
     69          1           0       -4.972990    0.263081   -1.751673
     70          1           0        9.431290   -0.883116   -0.292134
     71          1           0       10.192053   -0.714130   -2.128113
     72          1           0       -3.652282   -3.370310    3.403678
     73          1           0       -6.447894   -0.929008   -1.837910
     74          1           0       -4.690119   -5.393004   -2.542795
     75          1           0       -4.080185   -5.758441   -0.628095
     76          1           0       -5.803259   -4.969993   -0.961257
     77          1           0       -1.347887    8.135682    1.523194
     78          1           0       -8.005662   -2.246712   -3.017187
     79          1           0       -6.922794   -3.998478   -3.193238
 ---------------------------------------------------------------------

 SCF Done:  E(RB3LYP) =  -1947.80463999     A.U. after   20 cycles

 Excitation energies and oscillator strengths:

 Excited State   1:      Singlet-A      2.2167 eV  559.33 nm  f=0.3433  <S**2>=0.000
     153 ->156        -0.16618
     154 ->156         0.32389
     155 ->156         0.60028
 This state for optimization and/or second-order correction.
 Total Energy, E(TD-HF/TD-KS) =  -1947.72317950
 Copying the excited state density for this state as the 1-particle RhoCI density.

 The electronic state is 1-A.
 Alpha  occ. eigenvalues --  -19.20560 -19.17082 -19.13506 -19.12625 -19.09518
 Alpha  occ. eigenvalues --  -19.09302 -14.40346 -14.37091 -14.34804 -14.28105
 Alpha  occ. eigenvalues --  -10.33352 -10.31045 -10.27574 -10.25486 -10.25380
 Alpha  occ. eigenvalues --  -10.25274 -10.23812 -10.23739 -10.23712 -10.23638
 Alpha  occ. eigenvalues --  -10.22739 -10.22571 -10.22373 -10.22356 -10.21981
 Alpha  occ. eigenvalues --  -10.21860 -10.21713 -10.21251 -10.21221 -10.21120
 Alpha  occ. eigenvalues --  -10.20923 -10.20816 -10.20524 -10.20437 -10.20343
 Alpha  occ. eigenvalues --  -10.20026 -10.19876 -10.19776 -10.19483 -10.19148
 Alpha  occ. eigenvalues --  -10.19089 -10.18367 -10.18123  -1.12827  -1.08589
 Alpha  occ. eigenvalues --   -1.02669  -1.01653  -1.00716  -1.00429  -0.98120
 Alpha  occ. eigenvalues --   -0.95728  -0.94430  -0.90605  -0.84395  -0.82819
 Alpha  occ. eigenvalues --   -0.82483  -0.81427  -0.81382  -0.79151  -0.78849
 Alpha  occ. eigenvalues --   -0.77403  -0.75890  -0.75024  -0.74082  -0.73575
 Alpha  occ. eigenvalues --   -0.72087  -0.71818  -0.69720  -0.69388  -0.67976
 Alpha  occ. eigenvalues --   -0.65946  -0.65338  -0.63563  -0.61884  -0.61242
 Alpha  occ. eigenvalues --   -0.59211  -0.58261  -0.57514  -0.57213  -0.56641
 Alpha  occ. eigenvalues --   -0.56196  -0.54919  -0.54625  -0.54437  -0.52533
 Alpha  occ. eigenvalues --   -0.51897  -0.51089  -0.50589  -0.50545  -0.49972
 Alpha  occ. eigenvalues --   -0.49446  -0.48464  -0.48281  -0.48133  -0.47804
 Alpha  occ. eigenvalues --   -0.47188  -0.47143  -0.46873  -0.46315  -0.45775
 Alpha  occ. eigenvalues --   -0.45319  -0.45098  -0.44921  -0.44499  -0.44203
 Alpha  occ. eigenvalues --   -0.43776  -0.43599  -0.42808  -0.42594  -0.42483
 Alpha  occ. eigenvalues --   -0.42295  -0.42205  -0.41911  -0.41514  -0.41432
 Alpha  occ. eigenvalues --   -0.41339  -0.41015  -0.40823  -0.40366  -0.40203
 Alpha  occ. eigenvalues --   -0.39503  -0.39413  -0.39230  -0.39021  -0.38273
 Alpha  occ. eigenvalues --   -0.38264  -0.38177  -0.37552  -0.36976  -0.36658
 Alpha  occ. eigenvalues --   -0.36353  -0.35572  -0.35010  -0.34559  -0.34242
 Alpha  occ. eigenvalues --   -0.34111  -0.33775  -0.32305  -0.32007  -0.31480
 Alpha  occ. eigenvalues --   -0.31344  -0.31076  -0.28533  -0.28473  -0.27418
 Alpha  occ. eigenvalues --   -0.26582  -0.26175  -0.26006  -0.25595  -0.25347
 Alpha  occ. eigenvalues --   -0.23815  -0.23593  -0.22552  -0.21807  -0.19147
 Alpha virt. eigenvalues --   -0.10398  -0.08128  -0.05262  -0.01235  -0.00469
 Alpha virt. eigenvalues --   -0.00261   0.00335   0.01070   0.01513   0.02281
 Alpha virt. eigenvalues --    0.03262   0.03748   0.04203   0.04992   0.05152

 Mulliken charges:
               1
     1  O   -0.231857
     2  O   -0.205366
     3  O   -0.199837
     4  O   -0.107849
     5  O   -0.239570
     6  O   -0.216463
     7  N   -0.173629
     8  N   -0.219378
     9  N   -0.203372
    10  N   -0.309833
    11  C    0.112719
    12  C    0.153960
    13  C   -0.068213
    14  C   -0.136403
    15  C   -0.068202
    16  C    0.089806
    17  C   -0.141555
    18  C    0.047778
    19  C    0.010171
    20  C   -0.118388
    21  C    0.142266
    22  C    0.105242
    23  C   -0.084079
    24  C    0.132491
    25  C    0.102307
    26  C   -0.187562
    27  C   -0.079879
    28  C    0.183271
    29  C    0.094177
    30  C   -0.090762
    31  C   -0.001298
    32  C    0.320955
    33  C   -0.094618
    34  C    0.137547
    35  C    0.067750
    36  C   -0.065829
    37  C    0.102240
    38  C    0.029707
    39  C   -0.180103
    40  C    0.138833
    41  C   -0.032900
    42  C   -0.028117
    43  C   -0.105430
    44  H    0.023985
    45  H   -0.005360
    46  H    0.006642
    47  H    0.194119
    48  H    0.135162
    49  H   -0.003059
    50  H    0.051170
    51  H    0.006867
    52  H    0.000968
    53  H    0.022430
    54  H    0.030214
    55  H    0.039640
    56  H    0.053052
    57  H   -0.003212
    58  H    0.082526
    59  H    0.012948
    60  H    0.237865
    61  H    0.023297
    62  H   -0.015223
    63  H    0.042431
    64  H    0.051269
    65  H    0.023769
    66  H    0.021853
    67  H   -0.076353
    68  H    0.004341
    69  H   -0.072892
    70  H    0.039737
    71  H    0.038219
    72  H    0.175221
    73  H    0.042200
    74  H    0.061491
    75  H    0.065543
    76  H    0.044043
    77  H    0.163673
    78  H    0.035436
    79  H    0.065257
 Sum of Mulliken charges =   0.00000

 Dipole moment (field-independent basis, Debye):
    X=              1.6603    Y=              4.4103    Z=              3.9000  Tot=              6.1169
 Quadrupole moment (field-independent basis, Debye-Ang):
   XX=           -221.4435   YY=           -243.2525   ZZ=           -268.5134
   XY=            -18.1856   XZ=             33.7474   YZ=              8.5314

 Normal termination of Gaussian 09 at Mon Jul  8 04:56:27 2019.
