 Gaussian 09, Revision D.01,
 Gaussian 09:  ES64L-G09RevD.01 24-Apr-2013

 --------------------------
 # td=(NStates=1) B3LYP/SVP
 --------------------------

 --
 TD
 --
 Symbolic Z-matrix:
 Charge =  0 Multiplicity = 1

                         Standard orientation:
 ---------------------------------------------------------------------
 Center     Atomic      Atomic             Coordinates (Angstroms)
 Number     Number       Type             X           Y           Z
 ---------------------------------------------------------------------
      1          8           0        5.381229   -0.685267   -3.447041
      2          8           0       -2.828930   -2.903798    3.151168
      3          8           0       -3.129778   -0.708897    3.500425
      4          8           0       -1.733118    7.236154    1.361588
      5          8           0       -0.655490    6.952348   -0.687330
      6          8           0       -1.979721   -4.101513   -0.057436
      7          7           0        2.352830    0.958002    0.471565
      8          7           0        4.468533   -0.875202   -1.275057
      9          7           0       -1.907739    0.607371   -0.370478
     10          7           0       -2.624121   -1.976628   -0.549574
     11          6           0        4.916806   -1.227207    0.001592
     12          6           0        4.536523   -0.143724    1.102115
     13          6           0        3.068622    0.072487    1.387991
     14          6           0        2.085564   -0.558598    2.139634
     15          6           0        0.832946    0.084381    1.787834
     16          6           0        1.020520    1.018296    0.809696
     17          6           0        6.383478   -1.235351   -0.115225
     18          6           0       -0.493111   -0.142348    2.538415
     19          6           0        6.754438   -0.974022   -1.428104
     20          6           0        0.179606    1.974234    0.073691
     21          6           0       -1.125275    1.763826   -0.303237
     22          6           0        5.475230   -0.794837   -2.214929
     23          6           0       -1.908790    2.793570   -0.933064
     24          6           0        2.370024   -1.453395    3.285240
     25          6           0        7.281052   -1.561918    1.005596
     26          6           0       -3.198216    2.311557   -1.221702
     27          6           0       -1.072943   -1.586666    2.496521
     28          6           0       -3.085815    0.936206   -0.959124
     29          6           0       -1.486628    4.307591   -1.050535
     30          6           0        8.032307   -0.814832   -2.069444
     31          6           0       -1.794018    4.983835    0.338272
     32          6           0       -4.389153    3.013632   -1.940570
     33          6           0       -4.029319   -0.112089   -1.165463
     34          6           0       -2.408418   -1.641607    3.149321
     35          6           0       -3.815643   -1.489692   -1.012876
     36          6           0        9.295141   -0.757254   -1.529468
     37          6           0       -1.349491    6.516456    0.252591
     38          6           0       -4.776283   -2.692629   -1.372921
     39          6           0       -4.142869   -3.816763   -1.081699
     40          6           0       -2.752899   -3.400975   -0.514246
     41          6           0       -6.135846   -2.359147   -1.852404
     42          6           0       -4.742689   -5.123339   -0.954219
     43          6           0       -6.953709   -3.179631   -2.643623
     44          1           0        4.636833   -2.200724    0.244729
     45          1           0        5.161733    0.674312    0.733535
     46          1           0        5.168741   -0.473319    2.040975
     47          1           0        2.576431    1.574938   -0.259934
     48          1           0        3.324335   -0.865812   -1.504855
     49          1           0       -0.392509    0.118547    3.675675
     50          1           0       -1.264875    0.669183    2.182650
     51          1           0        0.503215    3.001887   -0.162235
     52          1           0        3.488860   -1.410198    3.569375
     53          1           0        1.903190   -1.148591    4.177292
     54          1           0        2.354686   -2.554945    3.007271
     55          1           0        7.017362   -2.274931    1.860084
     56          1           0        7.729780   -0.645229    1.506031
     57          1           0        7.980377   -2.092483    0.509159
     58          1           0       -1.066816   -2.094873    1.503524
     59          1           0       -0.278464   -2.233957    3.051405
     60          1           0       -1.624595   -0.455736   -0.173753
     61          1           0       -2.100867    4.708539   -1.987552
     62          1           0       -0.562920    4.577731   -1.374882
     63          1           0        7.719527   -0.937378   -3.233835
     64          1           0       -1.075820    4.551281    1.210384
     65          1           0       -2.788617    4.994688    0.702499
     66          1           0       -4.498795    4.220057   -1.609558
     67          1           0       -5.453782    2.476695   -1.538959
     68          1           0       -4.123426    2.811922   -3.030760
     69          1           0       -4.954587    0.090638   -1.525600
     70          1           0        9.433759   -0.744503   -0.353840
     71          1           0       10.274279   -0.522206   -2.083065
     72          1           0       -3.654747   -2.961378    3.550902
     73          1           0       -6.545230   -1.393361   -1.714115
     74          1           0       -4.597178   -5.715099   -1.955962
     75          1           0       -4.116202   -5.807678   -0.262106
     76          1           0       -6.018206   -4.624786   -0.759654
     77          1           0       -1.409700    8.088352    1.205339
     78          1           0       -7.869723   -2.686816   -2.935985
     79          1           0       -6.762949   -4.282064   -2.804294
 ---------------------------------------------------------------------

 SCF Done:  E(RB3LYP) =  -1947.84754676     A.U. after   16 cycles

 Excitation energies and oscillator strengths:

 Excited State   1:      Singlet-A      2.2203 eV  558.40 nm  f=0.4795  <S**2>=0.000
     155 ->156         0.69635
     155 <-156        -0.10858
 This state for optimization and/or second-order correction.
 Total Energy, E(TD-HF/TD-KS) =  -1947.76595073
 Copying the excited state density for this state as the 1-particle RhoCI density.

 The electronic state is 1-A.
 Alpha  occ. eigenvalues --  -19.19972 -19.16773 -19.14464 -19.11295 -19.10898
 Alpha  occ. eigenvalues --  -19.09724 -14.37276 -14.36475 -14.36251 -14.29179
 Alpha  occ. eigenvalues --  -10.34084 -10.30856 -10.28547 -10.26401 -10.24938
 Alpha  occ. eigenvalues --  -10.24455 -10.24446 -10.23961 -10.23581 -10.23502
 Alpha  occ. eigenvalues --  -10.23466 -10.22674 -10.22597 -10.22514 -10.22258
 Alpha  occ. eigenvalues --  -10.22212 -10.21792 -10.21706 -10.21682 -10.21199
 Alpha  occ. eigenvalues --  -10.21060 -10.21017 -10.20793 -10.20500 -10.20263
 Alpha  occ. eigenvalues --  -10.20134 -10.20120 -10.20093 -10.19725 -10.19522
 Alpha  occ. eigenvalues --  -10.19100 -10.19037 -10.18158  -1.10485  -1.09483
 Alpha  occ. eigenvalues --   -1.06039  -1.01220  -1.01141  -0.98872  -0.98390
 Alpha  occ. eigenvalues --   -0.97112  -0.94633  -0.90308  -0.82279  -0.81993
 Alpha  occ. eigenvalues --   -0.81262  -0.80881  -0.80424  -0.78960  -0.77296
 Alpha  occ. eigenvalues --   -0.76972  -0.76166  -0.75274  -0.74254  -0.72492
 Alpha  occ. eigenvalues --   -0.70932  -0.70893  -0.69416  -0.68460  -0.68153
 Alpha  occ. eigenvalues --   -0.67012  -0.65982  -0.63659  -0.61127  -0.60860
 Alpha  occ. eigenvalues --   -0.60500  -0.59162  -0.58061  -0.57244  -0.56612
 Alpha  occ. eigenvalues --   -0.56241  -0.55760  -0.54751  -0.53670  -0.53320
 Alpha  occ. eigenvalues --   -0.52048  -0.51177  -0.50098  -0.49901  -0.49513
 Alpha  occ. eigenvalues --   -0.48911  -0.48692  -0.48003  -0.47713  -0.47377
 Alpha  occ. eigenvalues --   -0.46914  -0.46621  -0.46029  -0.45761  -0.45448
 Alpha  occ. eigenvalues --   -0.45369  -0.44825  -0.44212  -0.43970  -0.43742
 Alpha  occ. eigenvalues --   -0.43441  -0.43155  -0.42990  -0.42706  -0.42425
 Alpha  occ. eigenvalues --   -0.42355  -0.41783  -0.41666  -0.41310  -0.40791
 Alpha  occ. eigenvalues --   -0.40609  -0.40315  -0.40171  -0.39766  -0.39564
 Alpha  occ. eigenvalues --   -0.39278  -0.39125  -0.38821  -0.38588  -0.38257
 Alpha  occ. eigenvalues --   -0.37943  -0.37679  -0.37441  -0.37323  -0.37072
 Alpha  occ. eigenvalues --   -0.36590  -0.36167  -0.35602  -0.35226  -0.34644
 Alpha  occ. eigenvalues --   -0.34406  -0.33706  -0.32906  -0.31897  -0.31043
 Alpha  occ. eigenvalues --   -0.31022  -0.30626  -0.29354  -0.28600  -0.27878
 Alpha  occ. eigenvalues --   -0.27048  -0.26188  -0.26136  -0.25370  -0.24525
 Alpha  occ. eigenvalues --   -0.24150  -0.23967  -0.23415  -0.22616  -0.19496
 Alpha virt. eigenvalues --   -0.10824  -0.06245  -0.06009  -0.02036  -0.00949
 Alpha virt. eigenvalues --    0.00618   0.00813   0.01377   0.02342   0.02673
 Alpha virt. eigenvalues --    0.03425   0.03704   0.04063   0.04437   0.05272

 Mulliken charges:
               1
     1  O   -0.249808
     2  O   -0.124162
     3  O   -0.251902
     4  O   -0.158461
     5  O   -0.256205
     6  O   -0.108479
     7  N   -0.116525
     8  N   -0.240201
     9  N   -0.125217
    10  N   -0.338734
    11  C    0.179759
    12  C    0.088707
    13  C    0.040122
    14  C   -0.113959
    15  C   -0.102697
    16  C    0.088654
    17  C   -0.230894
    18  C   -0.000514
    19  C   -0.072516
    20  C   -0.099635
    21  C    0.110603
    22  C    0.178082
    23  C   -0.115231
    24  C    0.094575
    25  C    0.072287
    26  C   -0.106954
    27  C   -0.049989
    28  C    0.146246
    29  C    0.103539
    30  C   -0.009442
    31  C   -0.023039
    32  C   -0.034512
    33  C   -0.051224
    34  C    0.143536
    35  C    0.053138
    36  C   -0.102961
    37  C    0.156944
    38  C    0.103123
    39  C   -0.196058
    40  C    0.140020
    41  C   -0.068925
    42  C   -0.037555
    43  C   -0.028388
    44  H   -0.007331
    45  H   -0.007113
    46  H    0.020214
    47  H    0.094087
    48  H    0.182896
    49  H    0.017437
    50  H    0.036530
    51  H    0.005334
    52  H   -0.004623
    53  H    0.019562
    54  H    0.036158
    55  H    0.026626
    56  H    0.050406
    57  H    0.013763
    58  H    0.075812
    59  H    0.037655
    60  H    0.205335
    61  H    0.032307
    62  H   -0.004369
    63  H    0.054727
    64  H    0.076035
    65  H    0.033286
    66  H    0.063732
    67  H    0.066745
    68  H    0.075596
    69  H   -0.106337
    70  H    0.035089
    71  H    0.052877
    72  H    0.145340
    73  H   -0.006536
    74  H    0.043183
    75  H    0.045930
    76  H    0.071841
    77  H    0.157976
    78  H    0.025023
    79  H    0.049657
 Sum of Mulliken charges =   0.00000

 Dipole moment (field-independent basis, Debye):
    X=             -0.8955    Y=              2.9728    Z=              3.4278  Tot=              4.6248
 Quadrupole moment (field-independent basis, Debye-Ang):
   XX=           -227.0347   YY=           -241.8963   ZZ=           -268.6910
   XY=             -8.1537   XZ=             38.8984   YZ=             -1.7709

 Normal termination of Gaussian 09 at Tue Jul  9 13:18:56 2019.
