 Gaussian 09, Revision D.01,
 Gaussian 09:  ES64L-G09RevD.01 24-Apr-2013

 --------------------------
 # td=(NStates=1) B3LYP/SVP
 --------------------------

 --
 TD
 --
 Symbolic Z-matrix:
 Charge =  0 Multiplicity = 1

                         Standard orientation:
 ---------------------------------------------------------------------
 Center     Atomic      Atomic             Coordinates (Angstroms)
 Number     Number       Type             X           Y           Z
 ---------------------------------------------------------------------
      1          8           0        5.314577   -0.098984   -3.250973
      2          8           0       -2.993507   -2.795816    3.469613
      3          8           0       -3.306051   -0.600159    3.278469
      4          8           0       -1.880716    7.383892    1.174194
      5          8           0       -0.513754    7.009897   -0.653188
      6          8           0       -1.815659   -4.097076   -0.062079
      7          7           0        2.402002    0.918172    0.717370
      8          7           0        4.330227   -0.502675   -1.131175
      9          7           0       -1.792716    0.613101   -0.247966
     10          7           0       -2.599597   -2.001300   -0.548443
     11          6           0        4.829266   -1.226386    0.049295
     12          6           0        4.483264   -0.318048    1.303838
     13          6           0        3.016973   -0.028073    1.413642
     14          6           0        2.065932   -0.674150    2.143948
     15          6           0        0.784167   -0.002507    1.824336
     16          6           0        1.043348    0.994969    0.876495
     17          6           0        6.373655   -1.299523   -0.202395
     18          6           0       -0.552376   -0.090601    2.589090
     19          6           0        6.648352   -0.900880   -1.445222
     20          6           0        0.237538    1.893147    0.148605
     21          6           0       -1.039343    1.777075   -0.308393
     22          6           0        5.435267   -0.447774   -2.088824
     23          6           0       -1.890515    2.875406   -0.868471
     24          6           0        2.167066   -1.745919    3.363485
     25          6           0        7.254096   -1.978992    0.869680
     26          6           0       -3.111957    2.309836   -1.213114
     27          6           0       -1.119585   -1.547753    2.631540
     28          6           0       -3.087379    0.919746   -0.843261
     29          6           0       -1.504923    4.265726   -0.984261
     30          6           0        7.850795   -0.761375   -2.103755
     31          6           0       -1.808706    5.147702    0.355017
     32          6           0       -4.260288    2.867374   -1.862253
     33          6           0       -4.007513   -0.088478   -1.213239
     34          6           0       -2.578738   -1.558915    3.187039
     35          6           0       -3.710904   -1.470834   -1.063348
     36          6           0        9.159183   -0.840087   -1.760052
     37          6           0       -1.374178    6.572654    0.156782
     38          6           0       -4.606912   -2.664741   -1.569200
     39          6           0       -4.041619   -3.779839   -1.168813
     40          6           0       -2.725147   -3.314994   -0.552079
     41          6           0       -5.930808   -2.495218   -2.142489
     42          6           0       -4.478650   -5.233385   -1.304415
     43          6           0       -6.720803   -3.453992   -2.753800
     44          1           0        4.385567   -2.180006    0.403749
     45          1           0        5.067343    0.559660    1.142119
     46          1           0        4.694393   -0.896022    2.352265
     47          1           0        3.101170    1.558774    0.081478
     48          1           0        3.437372   -0.597394   -1.616001
     49          1           0       -0.548927    0.032110    3.688908
     50          1           0       -1.228206    0.514430    2.367121
     51          1           0        0.797956    2.925170   -0.020177
     52          1           0        3.340374   -1.728308    3.704404
     53          1           0        1.574869   -1.530917    4.295080
     54          1           0        1.780396   -2.913491    2.897184
     55          1           0        6.618882   -2.664161    1.533962
     56          1           0        7.748746   -0.987374    1.339964
     57          1           0        8.066816   -2.651324    0.285186
     58          1           0       -0.990639   -2.269067    1.635918
     59          1           0       -0.563897   -2.259343    3.504238
     60          1           0       -1.539827   -0.479895   -0.199894
     61          1           0       -2.233880    5.029180   -1.619087
     62          1           0       -0.368688    4.528719   -1.184385
     63          1           0        7.708727   -0.610517   -3.298122
     64          1           0       -1.276880    4.621815    1.217142
     65          1           0       -2.864767    5.380005    0.390049
     66          1           0       -4.213417    3.826688   -2.215976
     67          1           0       -5.089505    2.829515   -1.188851
     68          1           0       -4.309600    2.178616   -2.877396
     69          1           0       -4.948614   -0.116929   -1.870335
     70          1           0        9.317698   -0.821148   -0.604608
     71          1           0        9.904248   -1.018303   -2.550195
     72          1           0       -3.890923   -2.713487    3.641462
     73          1           0       -5.997041   -1.478277   -2.349243
     74          1           0       -4.628563   -5.466073   -2.345496
     75          1           0       -3.491148   -5.848272   -1.010626
     76          1           0       -5.315524   -5.363521   -0.503755
     77          1           0       -1.446681    8.291402    1.248999
     78          1           0       -7.655495   -2.984109   -3.521198
     79          1           0       -6.552214   -4.510276   -2.723120
 ---------------------------------------------------------------------

 SCF Done:  E(RB3LYP) =  -1947.77575101     A.U. after   19 cycles

 Excitation energies and oscillator strengths:

 Excited State   1:      Singlet-A      2.1952 eV  564.81 nm  f=0.4946  <S**2>=0.000
     155 ->156         0.69942
     155 <-156        -0.11342
 This state for optimization and/or second-order correction.
 Total Energy, E(TD-HF/TD-KS) =  -1947.69508062
 Copying the excited state density for this state as the 1-particle RhoCI density.

 The electronic state is 1-A.
 Alpha  occ. eigenvalues --  -19.19010 -19.16543 -19.13976 -19.11484 -19.11232
 Alpha  occ. eigenvalues --  -19.08933 -14.38771 -14.37032 -14.35776 -14.29604
 Alpha  occ. eigenvalues --  -10.33816 -10.30513 -10.29191 -10.25930 -10.25881
 Alpha  occ. eigenvalues --  -10.25784 -10.24963 -10.24202 -10.24055 -10.23403
 Alpha  occ. eigenvalues --  -10.23401 -10.23199 -10.22953 -10.22835 -10.22761
 Alpha  occ. eigenvalues --  -10.22587 -10.22546 -10.22330 -10.21520 -10.21192
 Alpha  occ. eigenvalues --  -10.20762 -10.20732 -10.20429 -10.20409 -10.20324
 Alpha  occ. eigenvalues --  -10.20239 -10.20076 -10.20054 -10.19648 -10.19559
 Alpha  occ. eigenvalues --  -10.19264 -10.18891 -10.17833  -1.09701  -1.07653
 Alpha  occ. eigenvalues --   -1.03202  -0.99675  -0.99574  -0.99207  -0.98268
 Alpha  occ. eigenvalues --   -0.96128  -0.93340  -0.91456  -0.83534  -0.83188
 Alpha  occ. eigenvalues --   -0.82154  -0.80764  -0.80022  -0.79207  -0.78250
 Alpha  occ. eigenvalues --   -0.76999  -0.75548  -0.74825  -0.74232  -0.73315
 Alpha  occ. eigenvalues --   -0.72075  -0.70535  -0.68765  -0.68520  -0.67454
 Alpha  occ. eigenvalues --   -0.66450  -0.65726  -0.63934  -0.61275  -0.60632
 Alpha  occ. eigenvalues --   -0.60006  -0.59307  -0.58673  -0.58045  -0.56530
 Alpha  occ. eigenvalues --   -0.55761  -0.54933  -0.54274  -0.53457  -0.52561
 Alpha  occ. eigenvalues --   -0.52362  -0.51509  -0.50945  -0.50371  -0.49913
 Alpha  occ. eigenvalues --   -0.48705  -0.48324  -0.47788  -0.47411  -0.47041
 Alpha  occ. eigenvalues --   -0.46952  -0.46504  -0.46124  -0.45739  -0.45560
 Alpha  occ. eigenvalues --   -0.44911  -0.44689  -0.44398  -0.44127  -0.43951
 Alpha  occ. eigenvalues --   -0.43373  -0.43048  -0.42674  -0.42556  -0.42400
 Alpha  occ. eigenvalues --   -0.42088  -0.41751  -0.41332  -0.41077  -0.40703
 Alpha  occ. eigenvalues --   -0.40462  -0.40329  -0.39888  -0.39810  -0.39295
 Alpha  occ. eigenvalues --   -0.39120  -0.38712  -0.38393  -0.38127  -0.37868
 Alpha  occ. eigenvalues --   -0.37562  -0.37121  -0.36735  -0.36510  -0.36409
 Alpha  occ. eigenvalues --   -0.35798  -0.35745  -0.34710  -0.34110  -0.33556
 Alpha  occ. eigenvalues --   -0.33312  -0.32889  -0.32738  -0.32645  -0.31598
 Alpha  occ. eigenvalues --   -0.31347  -0.31144  -0.28755  -0.28572  -0.27659
 Alpha  occ. eigenvalues --   -0.27039  -0.26683  -0.26535  -0.25690  -0.24531
 Alpha  occ. eigenvalues --   -0.24041  -0.23723  -0.23262  -0.22865  -0.19551
 Alpha virt. eigenvalues --   -0.11063  -0.06920  -0.06221  -0.03218  -0.01592
 Alpha virt. eigenvalues --   -0.00255   0.00733   0.01638   0.01791   0.02001
 Alpha virt. eigenvalues --    0.03107   0.03508   0.03713   0.04108   0.04590

 Mulliken charges:
               1
     1  O   -0.205684
     2  O   -0.124199
     3  O   -0.235510
     4  O   -0.247148
     5  O   -0.258338
     6  O   -0.288635
     7  N   -0.077201
     8  N   -0.252749
     9  N   -0.189700
    10  N   -0.187936
    11  C    0.061853
    12  C    0.178006
    13  C   -0.122408
    14  C   -0.093661
    15  C   -0.101443
    16  C    0.077609
    17  C   -0.158610
    18  C    0.238850
    19  C    0.048095
    20  C   -0.122118
    21  C    0.126579
    22  C    0.151513
    23  C    0.038371
    24  C   -0.046694
    25  C   -0.002985
    26  C   -0.145279
    27  C   -0.197803
    28  C    0.180790
    29  C   -0.094842
    30  C   -0.101650
    31  C    0.004601
    32  C    0.144364
    33  C   -0.100682
    34  C    0.130741
    35  C   -0.004315
    36  C   -0.043390
    37  C    0.165605
    38  C   -0.002838
    39  C   -0.211781
    40  C    0.125899
    41  C    0.053160
    42  C    0.050957
    43  C   -0.078731
    44  H    0.029298
    45  H   -0.034206
    46  H    0.026936
    47  H    0.162248
    48  H    0.142017
    49  H   -0.003209
    50  H   -0.078849
    51  H    0.016207
    52  H    0.024300
    53  H    0.052029
    54  H    0.072267
    55  H    0.053434
    56  H    0.078327
    57  H    0.072220
    58  H    0.118051
    59  H    0.042119
    60  H    0.212940
    61  H    0.044551
    62  H    0.063503
    63  H    0.040649
    64  H    0.079810
    65  H    0.036250
    66  H   -0.024835
    67  H    0.032349
    68  H    0.052543
    69  H    0.006352
    70  H    0.023542
    71  H    0.043018
    72  H    0.141327
    73  H   -0.045421
    74  H    0.038253
    75  H    0.049451
    76  H    0.058651
    77  H    0.211631
    78  H    0.053844
    79  H    0.027738
 Sum of Mulliken charges =   0.00000

 Dipole moment (field-independent basis, Debye):
    X=              1.2610    Y=              3.1777    Z=              2.3755  Tot=              4.1630
 Quadrupole moment (field-independent basis, Debye-Ang):
   XX=           -220.4859   YY=           -246.9617   ZZ=           -262.4199
   XY=            -15.2456   XZ=             30.0515   YZ=              7.7443

 Normal termination of Gaussian 09 at Wed Jul 10 20:57:43 2019.
