 Gaussian 09, Revision D.01,
 Gaussian 09:  ES64L-G09RevD.01 24-Apr-2013

 --------------------------
 # td=(NStates=1) B3LYP/SVP
 --------------------------

 --
 TD
 --
 Symbolic Z-matrix:
 Charge =  0 Multiplicity = 1

                         Standard orientation:
 ---------------------------------------------------------------------
 Center     Atomic      Atomic             Coordinates (Angstroms)
 Number     Number       Type             X           Y           Z
 ---------------------------------------------------------------------
      1          8           0        5.390102   -0.519365   -3.439257
      2          8           0       -2.957935   -2.944421    3.341897
      3          8           0       -3.225231   -0.706633    3.289384
      4          8           0       -1.896843    7.264692    1.191965
      5          8           0       -0.930654    7.110009   -0.754499
      6          8           0       -1.765379   -4.043398    0.086476
      7          7           0        2.413841    1.108418    0.566832
      8          7           0        4.411862   -0.744746   -1.247607
      9          7           0       -1.856043    0.574662   -0.370072
     10          7           0       -2.632331   -1.930086   -0.360823
     11          6           0        4.936383   -1.155627    0.067116
     12          6           0        4.547240   -0.126776    1.218777
     13          6           0        3.049313    0.183601    1.394869
     14          6           0        2.143111   -0.413797    2.213752
     15          6           0        0.847119    0.087133    1.813841
     16          6           0        1.030162    0.974179    0.699920
     17          6           0        6.449477   -1.137630   -0.145529
     18          6           0       -0.481302   -0.130719    2.470198
     19          6           0        6.720050   -0.825466   -1.483360
     20          6           0        0.200737    1.853758   -0.022194
     21          6           0       -1.201402    1.740178   -0.308714
     22          6           0        5.406496   -0.631217   -2.249981
     23          6           0       -1.953352    2.785921   -0.857260
     24          6           0        2.344230   -1.335026    3.239801
     25          6           0        7.256845   -1.428453    0.992742
     26          6           0       -3.176484    2.184687   -1.249966
     27          6           0       -1.117745   -1.589537    2.484540
     28          6           0       -3.186113    0.797871   -0.883088
     29          6           0       -1.611725    4.216837   -0.995954
     30          6           0        7.988941   -0.849955   -2.022272
     31          6           0       -1.886287    5.144360    0.251828
     32          6           0       -4.435776    2.775527   -1.781477
     33          6           0       -4.093895   -0.188906   -1.182496
     34          6           0       -2.491592   -1.651116    3.063017
     35          6           0       -3.798451   -1.602560   -0.868944
     36          6           0        9.216690   -0.862122   -1.481443
     37          6           0       -1.536974    6.516121    0.130425
     38          6           0       -4.673214   -2.735544   -1.355824
     39          6           0       -3.942748   -3.775830   -1.030367
     40          6           0       -2.634394   -3.290614   -0.323942
     41          6           0       -5.896498   -2.591709   -1.980818
     42          6           0       -4.305616   -5.250831   -1.222656
     43          6           0       -6.717079   -3.468612   -2.689015
     44          1           0        4.759722   -2.303687    0.472642
     45          1           0        5.061711    0.851969    1.125569
     46          1           0        4.981855   -0.381607    2.056140
     47          1           0        2.958519    1.754570    0.059866
     48          1           0        3.441347   -0.897032   -1.477577
     49          1           0       -0.431190    0.147367    3.601217
     50          1           0       -1.024972    0.904858    2.152603
     51          1           0        0.675137    2.622712   -0.317748
     52          1           0        3.275100   -1.410860    3.577411
     53          1           0        1.776134   -1.230518    4.043645
     54          1           0        2.219868   -2.559692    2.960548
     55          1           0        6.659518   -2.106928    1.744106
     56          1           0        7.628116   -0.607801    1.594852
     57          1           0        7.983167   -2.057744    0.696512
     58          1           0       -0.967476   -1.839541    1.526207
     59          1           0       -0.379533   -2.197237    3.178973
     60          1           0       -1.792027   -0.274362   -0.069340
     61          1           0       -2.203682    4.893587   -1.798590
     62          1           0       -0.622197    4.171322   -1.366368
     63          1           0        7.746073   -0.896056   -3.069995
     64          1           0       -1.425416    4.684122    1.006027
     65          1           0       -3.020195    4.764749    0.443506
     66          1           0       -4.177594    3.842308   -2.472352
     67          1           0       -5.139654    2.992171   -0.902348
     68          1           0       -4.978602    1.887698   -2.325206
     69          1           0       -4.894999    0.091993   -1.784786
     70          1           0        9.275197   -0.665279   -0.321819
     71          1           0       10.000640   -0.910375   -2.137012
     72          1           0       -3.858034   -2.816060    3.306377
     73          1           0       -6.387662   -1.611556   -1.668280
     74          1           0       -3.990842   -5.520374   -2.330294
     75          1           0       -3.684469   -5.905958   -0.557473
     76          1           0       -5.461541   -5.458142   -1.126855
     77          1           0       -1.379366    8.047763    0.859700
     78          1           0       -7.625406   -3.206177   -3.056631
     79          1           0       -6.247926   -4.453749   -2.902413
 ---------------------------------------------------------------------

 SCF Done:  E(RB3LYP) =  -1947.78317041     A.U. after   16 cycles

 Excitation energies and oscillator strengths:

 Excited State   1:      Singlet-A      2.0447 eV  606.36 nm  f=0.5602  <S**2>=0.000
     155 ->156         0.70877
     155 <-156        -0.15110
 This state for optimization and/or second-order correction.
 Total Energy, E(TD-HF/TD-KS) =  -1947.70802753
 Copying the excited state density for this state as the 1-particle RhoCI density.

 The electronic state is 1-A.
 Alpha  occ. eigenvalues --  -19.18563 -19.16012 -19.13833 -19.12507 -19.11928
 Alpha  occ. eigenvalues --  -19.10786 -14.38584 -14.36505 -14.35485 -14.30117
 Alpha  occ. eigenvalues --  -10.33130 -10.31812 -10.30039 -10.27105 -10.26886
 Alpha  occ. eigenvalues --  -10.24874 -10.24603 -10.24095 -10.23967 -10.23861
 Alpha  occ. eigenvalues --  -10.22712 -10.22120 -10.22005 -10.21946 -10.21859
 Alpha  occ. eigenvalues --  -10.21225 -10.21180 -10.21104 -10.20824 -10.20728
 Alpha  occ. eigenvalues --  -10.20675 -10.20456 -10.20387 -10.20315 -10.19791
 Alpha  occ. eigenvalues --  -10.19769 -10.19704 -10.19489 -10.19317 -10.19152
 Alpha  occ. eigenvalues --  -10.19129 -10.18839 -10.18711  -1.11749  -1.08345
 Alpha  occ. eigenvalues --   -1.04498  -1.01862  -1.00213  -0.99516  -0.99028
 Alpha  occ. eigenvalues --   -0.98582  -0.94059  -0.94034  -0.83842  -0.83461
 Alpha  occ. eigenvalues --   -0.82803  -0.82206  -0.81810  -0.80346  -0.79564
 Alpha  occ. eigenvalues --   -0.78504  -0.77067  -0.75921  -0.74621  -0.73522
 Alpha  occ. eigenvalues --   -0.72653  -0.72043  -0.70217  -0.69389  -0.69190
 Alpha  occ. eigenvalues --   -0.67608  -0.66492  -0.64210  -0.62527  -0.62195
 Alpha  occ. eigenvalues --   -0.61022  -0.59748  -0.59318  -0.58171  -0.57653
 Alpha  occ. eigenvalues --   -0.57396  -0.56250  -0.55131  -0.53938  -0.53661
 Alpha  occ. eigenvalues --   -0.52481  -0.52131  -0.51802  -0.51135  -0.50253
 Alpha  occ. eigenvalues --   -0.50121  -0.49851  -0.49601  -0.48938  -0.48278
 Alpha  occ. eigenvalues --   -0.47904  -0.47787  -0.47397  -0.46774  -0.46112
 Alpha  occ. eigenvalues --   -0.46057  -0.45518  -0.45266  -0.44768  -0.44486
 Alpha  occ. eigenvalues --   -0.43911  -0.43839  -0.43708  -0.43608  -0.43413
 Alpha  occ. eigenvalues --   -0.42874  -0.42638  -0.42346  -0.41829  -0.41720
 Alpha  occ. eigenvalues --   -0.41446  -0.41189  -0.40920  -0.40566  -0.40237
 Alpha  occ. eigenvalues --   -0.39675  -0.39627  -0.39220  -0.39113  -0.39013
 Alpha  occ. eigenvalues --   -0.38704  -0.38196  -0.37885  -0.37587  -0.37120
 Alpha  occ. eigenvalues --   -0.36959  -0.36254  -0.35997  -0.35376  -0.34255
 Alpha  occ. eigenvalues --   -0.34035  -0.33019  -0.32732  -0.32384  -0.31875
 Alpha  occ. eigenvalues --   -0.31525  -0.30954  -0.29683  -0.29347  -0.28955
 Alpha  occ. eigenvalues --   -0.28079  -0.27659  -0.26811  -0.25789  -0.25385
 Alpha  occ. eigenvalues --   -0.24882  -0.24496  -0.23327  -0.23115  -0.18807
 Alpha virt. eigenvalues --   -0.11405  -0.06963  -0.06420  -0.02510  -0.01808
 Alpha virt. eigenvalues --   -0.00337   0.00511   0.00598   0.01767   0.02263
 Alpha virt. eigenvalues --    0.03265   0.04354   0.04637   0.05417   0.05714

 Mulliken charges:
               1
     1  O   -0.178561
     2  O   -0.182317
     3  O   -0.225184
     4  O   -0.180696
     5  O   -0.256456
     6  O   -0.196958
     7  N   -0.085104
     8  N   -0.229456
     9  N    0.029092
    10  N   -0.230501
    11  C    0.062823
    12  C    0.268820
    13  C   -0.106510
    14  C   -0.061426
    15  C   -0.097289
    16  C    0.115891
    17  C   -0.193581
    18  C   -0.059967
    19  C   -0.079537
    20  C   -0.025564
    21  C    0.107063
    22  C    0.204068
    23  C   -0.061865
    24  C    0.169543
    25  C    0.133043
    26  C   -0.115905
    27  C    0.073491
    28  C    0.099436
    29  C    0.014245
    30  C   -0.026175
    31  C    0.029611
    32  C   -0.015460
    33  C   -0.086798
    34  C    0.161918
    35  C    0.063416
    36  C    0.002365
    37  C    0.181582
    38  C    0.111124
    39  C   -0.227994
    40  C    0.142647
    41  C   -0.105129
    42  C    0.011531
    43  C    0.017774
    44  H    0.057478
    45  H   -0.020293
    46  H   -0.074663
    47  H    0.107225
    48  H    0.130491
    49  H    0.012860
    50  H    0.042574
    51  H   -0.111099
    52  H   -0.059880
    53  H   -0.022541
    54  H    0.027029
    55  H    0.009086
    56  H    0.045868
    57  H    0.004559
    58  H    0.040932
    59  H    0.052674
    60  H    0.042719
    61  H    0.037362
    62  H    0.013628
    63  H   -0.013260
    64  H   -0.000691
    65  H    0.077310
    66  H    0.058990
    67  H    0.052360
    68  H    0.043766
    69  H   -0.052698
    70  H    0.031613
    71  H    0.004922
    72  H    0.142996
    73  H    0.010294
    74  H    0.047059
    75  H    0.040392
    76  H    0.047740
    77  H    0.176565
    78  H    0.000805
    79  H    0.024778
 Sum of Mulliken charges =   0.00000

 Dipole moment (field-independent basis, Debye):
    X=              1.5202    Y=              1.9995    Z=              3.0092  Tot=              3.9197
 Quadrupole moment (field-independent basis, Debye-Ang):
   XX=           -224.0365   YY=           -261.4015   ZZ=           -268.9497
   XY=             -1.4390   XZ=             37.8209   YZ=              4.3452

 Normal termination of Gaussian 09 at Wed Jul 10 21:08:03 2019.
