 Gaussian 09, Revision D.01,
 Gaussian 09:  ES64L-G09RevD.01 24-Apr-2013

 --------------------------
 # td=(NStates=1) B3LYP/SVP
 --------------------------

 --
 TD
 --
 Symbolic Z-matrix:
 Charge =  0 Multiplicity = 1

                         Standard orientation:
 ---------------------------------------------------------------------
 Center     Atomic      Atomic             Coordinates (Angstroms)
 Number     Number       Type             X           Y           Z
 ---------------------------------------------------------------------
      1          8           0        5.246809   -0.334177   -3.305542
      2          8           0       -2.881805   -2.911296    3.278045
      3          8           0       -3.234970   -0.743718    3.346463
      4          8           0       -1.762614    7.187163    1.314387
      5          8           0       -0.358655    7.012772   -0.418875
      6          8           0       -1.884449   -4.032697    0.055775
      7          7           0        2.408484    0.964768    0.571518
      8          7           0        4.394341   -0.902358   -1.187328
      9          7           0       -1.915858    0.663562   -0.457612
     10          7           0       -2.660212   -1.911371   -0.366631
     11          6           0        4.833396   -1.173489    0.156828
     12          6           0        4.545416   -0.138269    1.259883
     13          6           0        3.044606    0.091891    1.362648
     14          6           0        2.010279   -0.504226    2.156748
     15          6           0        0.807943    0.127727    1.924336
     16          6           0        1.084126    1.016340    0.800059
     17          6           0        6.269415   -1.390054   -0.188946
     18          6           0       -0.538724   -0.083771    2.521513
     19          6           0        6.610257   -0.982107   -1.435715
     20          6           0        0.122069    1.895918    0.141348
     21          6           0       -1.082765    1.804708   -0.431056
     22          6           0        5.357834   -0.687876   -2.213867
     23          6           0       -1.984264    2.853388   -0.998579
     24          6           0        2.128652   -1.674159    3.123471
     25          6           0        7.244615   -1.674720    0.914925
     26          6           0       -3.118565    2.345595   -1.344749
     27          6           0       -1.047170   -1.566379    2.607887
     28          6           0       -3.089541    0.983693   -1.004079
     29          6           0       -1.473629    4.305376   -0.951414
     30          6           0        7.856813   -1.044656   -2.087683
     31          6           0       -1.750020    5.075780    0.271172
     32          6           0       -4.309326    3.003558   -2.067716
     33          6           0       -3.956509   -0.089390   -1.306711
     34          6           0       -2.499638   -1.683548    3.146512
     35          6           0       -3.709220   -1.433785   -1.070690
     36          6           0        9.162123   -0.790217   -1.654189
     37          6           0       -1.195755    6.508370    0.303596
     38          6           0       -4.672187   -2.612184   -1.433495
     39          6           0       -4.069502   -3.807258   -1.069051
     40          6           0       -2.705525   -3.347674   -0.431002
     41          6           0       -5.926751   -2.348961   -2.025452
     42          6           0       -4.499491   -5.205223   -1.216966
     43          6           0       -6.899693   -3.248255   -2.414170
     44          1           0        4.482287   -2.216730    0.427241
     45          1           0        5.122102    0.979129    1.024519
     46          1           0        5.126252   -0.544672    2.165258
     47          1           0        2.821850    1.287248   -0.208035
     48          1           0        3.394232   -0.994481   -1.579619
     49          1           0       -0.547039    0.346372    3.612499
     50          1           0       -1.498016    0.444352    2.061419
     51          1           0        0.703383    2.848831   -0.136124
     52          1           0        3.266049   -1.943502    3.630928
     53          1           0        1.517347   -1.449561    4.115238
     54          1           0        1.795866   -2.654584    2.675989
     55          1           0        6.985576   -2.272560    1.531294
     56          1           0        7.446971   -0.802911    1.632623
     57          1           0        8.246592   -2.143247    0.682430
     58          1           0       -1.211882   -1.954788    1.590168
     59          1           0       -0.344627   -2.385820    3.033560
     60          1           0       -1.904667   -0.328611   -0.165015
     61          1           0       -1.875450    4.718409   -1.908732
     62          1           0       -0.389416    4.235900   -1.085618
     63          1           0        7.804540   -1.111286   -3.294220
     64          1           0       -1.563084    4.522253    1.305588
     65          1           0       -2.736211    5.259294    0.415302
     66          1           0       -4.135724    4.117808   -2.189317
     67          1           0       -5.225280    2.761713   -1.441465
     68          1           0       -4.454655    2.318040   -2.994460
     69          1           0       -4.697976    0.204758   -2.040120
     70          1           0        9.438619   -0.540646   -0.563941
     71          1           0        9.926580   -0.919121   -2.273590
     72          1           0       -3.639507   -2.892910    3.707398
     73          1           0       -6.238360   -1.278336   -2.103671
     74          1           0       -4.256764   -5.616500   -2.249197
     75          1           0       -3.911246   -5.764565   -0.562399
     76          1           0       -5.586148   -5.404892   -1.138912
     77          1           0       -1.345555    8.064320    1.490207
     78          1           0       -7.847810   -2.850947   -2.858622
     79          1           0       -6.546231   -4.321201   -2.462639
 ---------------------------------------------------------------------

 SCF Done:  E(RB3LYP) =  -1947.85907957     A.U. after   16 cycles

 Excitation energies and oscillator strengths:

 Excited State   1:      Singlet-A      2.2149 eV  559.78 nm  f=0.4505  <S**2>=0.000
     155 ->156         0.69622
 This state for optimization and/or second-order correction.
 Total Energy, E(TD-HF/TD-KS) =  -1947.77768490
 Copying the excited state density for this state as the 1-particle RhoCI density.

 The electronic state is 1-A.
 Alpha  occ. eigenvalues --  -19.18810 -19.17007 -19.13164 -19.11685 -19.10785
 Alpha  occ. eigenvalues --  -19.10628 -14.38849 -14.35744 -14.34988 -14.29343
 Alpha  occ. eigenvalues --  -10.32940 -10.30422 -10.28675 -10.27019 -10.25358
 Alpha  occ. eigenvalues --  -10.24707 -10.24503 -10.24159 -10.23438 -10.23425
 Alpha  occ. eigenvalues --  -10.23127 -10.22317 -10.22287 -10.21594 -10.21567
 Alpha  occ. eigenvalues --  -10.21543 -10.21249 -10.21195 -10.20887 -10.20374
 Alpha  occ. eigenvalues --  -10.20335 -10.20126 -10.20088 -10.20020 -10.19918
 Alpha  occ. eigenvalues --  -10.19522 -10.19386 -10.19296 -10.19229 -10.19070
 Alpha  occ. eigenvalues --  -10.18920 -10.18899 -10.18411  -1.12252  -1.10026
 Alpha  occ. eigenvalues --   -1.06462  -1.03797  -1.01042  -1.00700  -0.99812
 Alpha  occ. eigenvalues --   -0.99271  -0.94434  -0.90532  -0.83863  -0.82028
 Alpha  occ. eigenvalues --   -0.81478  -0.81254  -0.80237  -0.79783  -0.79004
 Alpha  occ. eigenvalues --   -0.76900  -0.75726  -0.75317  -0.74460  -0.72279
 Alpha  occ. eigenvalues --   -0.71613  -0.70873  -0.69565  -0.69070  -0.68810
 Alpha  occ. eigenvalues --   -0.68259  -0.66511  -0.64500  -0.61699  -0.61534
 Alpha  occ. eigenvalues --   -0.61211  -0.60318  -0.59008  -0.57734  -0.57290
 Alpha  occ. eigenvalues --   -0.56345  -0.55640  -0.54626  -0.54115  -0.53019
 Alpha  occ. eigenvalues --   -0.52219  -0.50992  -0.50935  -0.50334  -0.49704
 Alpha  occ. eigenvalues --   -0.48540  -0.48343  -0.47946  -0.47739  -0.47542
 Alpha  occ. eigenvalues --   -0.47274  -0.46962  -0.46860  -0.46334  -0.45749
 Alpha  occ. eigenvalues --   -0.45450  -0.45192  -0.44626  -0.43746  -0.43426
 Alpha  occ. eigenvalues --   -0.43288  -0.42973  -0.42903  -0.42611  -0.42304
 Alpha  occ. eigenvalues --   -0.42262  -0.42197  -0.42045  -0.41392  -0.41229
 Alpha  occ. eigenvalues --   -0.41082  -0.41053  -0.40920  -0.40515  -0.40251
 Alpha  occ. eigenvalues --   -0.40015  -0.39986  -0.39493  -0.39302  -0.38823
 Alpha  occ. eigenvalues --   -0.38401  -0.38003  -0.37475  -0.36810  -0.36549
 Alpha  occ. eigenvalues --   -0.36036  -0.35482  -0.35097  -0.34870  -0.34695
 Alpha  occ. eigenvalues --   -0.34422  -0.33833  -0.32975  -0.31707  -0.31346
 Alpha  occ. eigenvalues --   -0.31249  -0.31210  -0.29097  -0.28688  -0.27685
 Alpha  occ. eigenvalues --   -0.27103  -0.26808  -0.26626  -0.26404  -0.25154
 Alpha  occ. eigenvalues --   -0.24230  -0.23427  -0.23027  -0.21773  -0.19289
 Alpha virt. eigenvalues --   -0.10287  -0.06277  -0.05917  -0.00719  -0.00491
 Alpha virt. eigenvalues --    0.00862   0.01244   0.02787   0.02988   0.03309
 Alpha virt. eigenvalues --    0.03915   0.04425   0.04502   0.04940   0.05752

 Mulliken charges:
               1
     1  O   -0.126623
     2  O   -0.048924
     3  O   -0.246532
     4  O   -0.195404
     5  O   -0.220897
     6  O   -0.150138
     7  N    0.074728
     8  N   -0.302946
     9  N   -0.071240
    10  N   -0.335858
    11  C    0.142950
    12  C    0.092767
    13  C   -0.078443
    14  C   -0.106710
    15  C    0.007683
    16  C   -0.034862
    17  C   -0.175364
    18  C    0.004124
    19  C   -0.045090
    20  C   -0.118630
    21  C    0.148144
    22  C    0.152731
    23  C   -0.111329
    24  C   -0.040317
    25  C    0.186185
    26  C   -0.131527
    27  C   -0.061210
    28  C    0.031263
    29  C    0.134407
    30  C   -0.095879
    31  C    0.041020
    32  C    0.084591
    33  C   -0.102635
    34  C    0.088266
    35  C    0.109736
    36  C   -0.006150
    37  C    0.124866
    38  C    0.092663
    39  C   -0.221946
    40  C    0.152929
    41  C   -0.090240
    42  C    0.106334
    43  C   -0.035747
    44  H    0.032123
    45  H    0.038889
    46  H    0.027648
    47  H    0.071533
    48  H    0.139583
    49  H    0.023111
    50  H    0.047278
    51  H    0.007516
    52  H    0.015670
    53  H    0.044926
    54  H    0.062827
    55  H   -0.104688
    56  H    0.028766
    57  H    0.025268
    58  H    0.064368
    59  H    0.030217
    60  H    0.145493
    61  H    0.017576
    62  H    0.004824
    63  H    0.042942
    64  H    0.065485
    65  H   -0.012258
    66  H    0.041654
    67  H    0.036519
    68  H    0.050461
    69  H   -0.032087
    70  H    0.033053
    71  H   -0.008471
    72  H    0.113231
    73  H   -0.002738
    74  H    0.034178
    75  H    0.006782
    76  H    0.031291
    77  H    0.196345
    78  H    0.034920
    79  H    0.025016
 Sum of Mulliken charges =   0.00000

 Dipole moment (field-independent basis, Debye):
    X=              0.1300    Y=              2.0477    Z=              2.3677  Tot=              3.1330
 Quadrupole moment (field-independent basis, Debye-Ang):
   XX=           -227.3081   YY=           -242.7438   ZZ=           -259.2019
   XY=            -10.7737   XZ=             31.2018   YZ=              4.3892

 Normal termination of Gaussian 09 at Tue Jul  9 13:28:31 2019.
