 Gaussian 09, Revision D.01,
 Gaussian 09:  ES64L-G09RevD.01 24-Apr-2013

 --------------------------
 # td=(NStates=1) B3LYP/SVP
 --------------------------

 --
 TD
 --
 Symbolic Z-matrix:
 Charge =  0 Multiplicity = 1

                         Standard orientation:
 ---------------------------------------------------------------------
 Center     Atomic      Atomic             Coordinates (Angstroms)
 Number     Number       Type             X           Y           Z
 ---------------------------------------------------------------------
      1          8           0        5.334197   -0.135947   -3.381671
      2          8           0       -2.649529   -3.083417    3.347535
      3          8           0       -3.141763   -0.962021    3.269577
      4          8           0       -2.013417    7.354885    1.218373
      5          8           0       -0.643354    6.926473   -0.560310
      6          8           0       -1.790948   -4.052392   -0.122155
      7          7           0        2.413859    1.084960    0.521018
      8          7           0        4.409393   -0.438874   -1.268111
      9          7           0       -1.877542    0.608792   -0.365373
     10          7           0       -2.602664   -1.962945   -0.581370
     11          6           0        4.823738   -0.978719    0.067971
     12          6           0        4.499051   -0.025560    1.254700
     13          6           0        3.068764    0.198595    1.323555
     14          6           0        2.074772   -0.538666    2.060030
     15          6           0        0.710084   -0.043825    1.773418
     16          6           0        1.024411    0.961083    0.704595
     17          6           0        6.406453   -1.181503   -0.096202
     18          6           0       -0.500743   -0.179877    2.501918
     19          6           0        6.669094   -0.882332   -1.414330
     20          6           0        0.153905    1.906214    0.193493
     21          6           0       -1.200772    1.765979   -0.308603
     22          6           0        5.410728   -0.505033   -2.152508
     23          6           0       -2.035506    2.885615   -0.785405
     24          6           0        2.316141   -1.499144    3.258844
     25          6           0        7.216445   -1.645743    1.025947
     26          6           0       -3.148573    2.229992   -1.102959
     27          6           0       -0.942265   -1.732276    2.487494
     28          6           0       -3.088775    0.890399   -0.952095
     29          6           0       -1.643651    4.325990   -0.931002
     30          6           0        7.885768   -0.857367   -2.145490
     31          6           0       -1.907320    5.084066    0.407382
     32          6           0       -4.386069    2.767729   -1.848891
     33          6           0       -3.987059   -0.137234   -1.220778
     34          6           0       -2.313644   -1.837992    3.113543
     35          6           0       -3.751014   -1.430010   -1.042382
     36          6           0        9.197530   -1.102061   -1.599306
     37          6           0       -1.440402    6.549869    0.264057
     38          6           0       -4.684874   -2.638227   -1.429972
     39          6           0       -3.996309   -3.825026   -1.187339
     40          6           0       -2.650504   -3.341364   -0.620853
     41          6           0       -5.988714   -2.354534   -2.004446
     42          6           0       -4.365811   -5.238389   -1.257623
     43          6           0       -6.871967   -3.425503   -2.341210
     44          1           0        4.369305   -2.033953    0.102080
     45          1           0        5.129453    0.973676    0.884647
     46          1           0        4.768014   -0.418492    2.320962
     47          1           0        2.536908    1.683990   -0.340560
     48          1           0        3.390545   -0.573280   -1.479911
     49          1           0       -0.439240    0.273841    3.534458
     50          1           0       -1.367322    0.550024    2.113217
     51          1           0        0.754915    2.894400   -0.303161
     52          1           0        3.397835   -1.841068    3.331236
     53          1           0        1.768141   -1.186222    4.336191
     54          1           0        1.910305   -2.369496    3.037341
     55          1           0        6.793801   -2.149177    1.845479
     56          1           0        7.687622   -0.612380    1.590456
     57          1           0        7.889649   -2.606594    0.588562
     58          1           0       -0.891559   -2.162577    1.390570
     59          1           0       -0.023863   -2.230307    3.088827
     60          1           0       -1.665866   -0.306307   -0.067660
     61          1           0       -2.197420    4.660960   -1.945829
     62          1           0       -0.455743    4.351570   -0.938585
     63          1           0        8.012102   -0.887510   -3.239940
     64          1           0       -1.336414    4.491809    1.260187
     65          1           0       -3.071835    5.165510    0.679558
     66          1           0       -4.404448    3.857927   -1.803301
     67          1           0       -5.134608    2.350310   -1.169341
     68          1           0       -4.455765    2.298319   -2.769352
     69          1           0       -4.966951    0.274331   -1.593329
     70          1           0        9.321329   -1.472389   -0.472202
     71          1           0        9.874618   -0.950973   -2.450538
     72          1           0       -3.545052   -3.086881    3.759758
     73          1           0       -6.379158   -1.320699   -2.244929
     74          1           0       -4.197645   -5.495455   -2.333635
     75          1           0       -3.840126   -5.816738   -0.277367
     76          1           0       -5.533858   -5.444839   -0.975670
     77          1           0       -1.622149    8.339136    1.207872
     78          1           0       -7.863903   -3.069384   -2.639325
     79          1           0       -6.691882   -4.546150   -2.314038
 ---------------------------------------------------------------------

 SCF Done:  E(RB3LYP) =  -1947.78965333     A.U. after   21 cycles

 Excitation energies and oscillator strengths:

 Excited State   1:      Singlet-A      1.9857 eV  624.39 nm  f=0.4478  <S**2>=0.000
     154 ->156         0.25989
     155 ->156         0.66275
     155 <-156        -0.13513
 This state for optimization and/or second-order correction.
 Total Energy, E(TD-HF/TD-KS) =  -1947.71668034
 Copying the excited state density for this state as the 1-particle RhoCI density.

 The electronic state is 1-A.
 Alpha  occ. eigenvalues --  -19.19335 -19.17106 -19.13832 -19.11110 -19.09360
 Alpha  occ. eigenvalues --  -19.08804 -14.40188 -14.36986 -14.36321 -14.27757
 Alpha  occ. eigenvalues --  -10.33186 -10.30872 -10.28843 -10.26676 -10.25519
 Alpha  occ. eigenvalues --  -10.25198 -10.24726 -10.24644 -10.24088 -10.23991
 Alpha  occ. eigenvalues --  -10.23804 -10.23454 -10.23371 -10.23365 -10.23013
 Alpha  occ. eigenvalues --  -10.21980 -10.21620 -10.21593 -10.21409 -10.21273
 Alpha  occ. eigenvalues --  -10.21194 -10.21157 -10.20861 -10.20834 -10.20731
 Alpha  occ. eigenvalues --  -10.20584 -10.20471 -10.19760 -10.19741 -10.19201
 Alpha  occ. eigenvalues --  -10.19082 -10.18962 -10.18316  -1.09799  -1.08839
 Alpha  occ. eigenvalues --   -1.00857  -1.00246  -1.00159  -0.99805  -0.99045
 Alpha  occ. eigenvalues --   -0.98805  -0.92924  -0.90140  -0.83451  -0.82712
 Alpha  occ. eigenvalues --   -0.82394  -0.81847  -0.80549  -0.78689  -0.77586
 Alpha  occ. eigenvalues --   -0.77130  -0.75802  -0.75216  -0.73697  -0.72292
 Alpha  occ. eigenvalues --   -0.71628  -0.71447  -0.69995  -0.68671  -0.67739
 Alpha  occ. eigenvalues --   -0.67116  -0.65992  -0.63530  -0.61426  -0.60397
 Alpha  occ. eigenvalues --   -0.59859  -0.59073  -0.58491  -0.58324  -0.57442
 Alpha  occ. eigenvalues --   -0.56453  -0.55762  -0.54915  -0.53738  -0.52459
 Alpha  occ. eigenvalues --   -0.51582  -0.51132  -0.50215  -0.50112  -0.49529
 Alpha  occ. eigenvalues --   -0.49063  -0.48753  -0.48288  -0.47683  -0.47558
 Alpha  occ. eigenvalues --   -0.47060  -0.46906  -0.46637  -0.46407  -0.46256
 Alpha  occ. eigenvalues --   -0.45451  -0.45285  -0.44498  -0.43800  -0.43289
 Alpha  occ. eigenvalues --   -0.43272  -0.42879  -0.42441  -0.42359  -0.42217
 Alpha  occ. eigenvalues --   -0.41806  -0.41344  -0.41160  -0.40935  -0.40547
 Alpha  occ. eigenvalues --   -0.40236  -0.39971  -0.39836  -0.39587  -0.39474
 Alpha  occ. eigenvalues --   -0.39409  -0.39010  -0.38933  -0.38854  -0.38303
 Alpha  occ. eigenvalues --   -0.37992  -0.37862  -0.37447  -0.36989  -0.36626
 Alpha  occ. eigenvalues --   -0.36496  -0.35412  -0.35296  -0.34844  -0.33729
 Alpha  occ. eigenvalues --   -0.33530  -0.33268  -0.32666  -0.31590  -0.31374
 Alpha  occ. eigenvalues --   -0.30884  -0.30422  -0.29172  -0.28383  -0.27072
 Alpha  occ. eigenvalues --   -0.26621  -0.26498  -0.25346  -0.25261  -0.24804
 Alpha  occ. eigenvalues --   -0.24071  -0.23279  -0.23085  -0.20920  -0.18397
 Alpha virt. eigenvalues --   -0.10983  -0.07214  -0.06037  -0.01441  -0.00817
 Alpha virt. eigenvalues --   -0.00437   0.00181   0.00927   0.01246   0.01482
 Alpha virt. eigenvalues --    0.01729   0.02299   0.03160   0.03367   0.04734

 Mulliken charges:
               1
     1  O   -0.289503
     2  O   -0.145833
     3  O   -0.247981
     4  O   -0.250790
     5  O   -0.212047
     6  O   -0.220478
     7  N   -0.087911
     8  N   -0.177644
     9  N    0.006520
    10  N   -0.284390
    11  C    0.031936
    12  C    0.109290
    13  C   -0.023742
    14  C   -0.159691
    15  C   -0.012696
    16  C    0.012328
    17  C   -0.127485
    18  C   -0.018176
    19  C    0.015464
    20  C   -0.149034
    21  C    0.025450
    22  C    0.170598
    23  C   -0.057120
    24  C    0.103774
    25  C    0.000757
    26  C   -0.176572
    27  C   -0.109066
    28  C    0.064889
    29  C    0.053311
    30  C   -0.098590
    31  C   -0.088700
    32  C    0.151695
    33  C   -0.130095
    34  C    0.148387
    35  C    0.129219
    36  C   -0.063617
    37  C    0.177251
    38  C    0.077961
    39  C   -0.189940
    40  C    0.133784
    41  C   -0.077441
    42  C   -0.021631
    43  C   -0.050918
    44  H    0.043538
    45  H    0.040637
    46  H    0.043707
    47  H    0.156630
    48  H    0.153982
    49  H    0.027801
    50  H    0.047369
    51  H    0.023098
    52  H   -0.005770
    53  H    0.056047
    54  H   -0.005862
    55  H    0.005565
    56  H    0.074329
    57  H    0.072614
    58  H    0.125814
    59  H    0.046433
    60  H    0.115687
    61  H    0.061745
    62  H    0.037271
    63  H    0.028076
    64  H    0.079613
    65  H    0.061571
    66  H    0.008552
    67  H    0.023510
    68  H    0.022131
    69  H   -0.025813
    70  H    0.052446
    71  H    0.038528
    72  H    0.182835
    73  H    0.016639
    74  H    0.055137
    75  H    0.068561
    76  H    0.041141
    77  H    0.226885
    78  H    0.016616
    79  H    0.041420
 Sum of Mulliken charges =   0.00000

 Dipole moment (field-independent basis, Debye):
    X=              1.2600    Y=              3.0989    Z=              5.0069  Tot=              6.0216
 Quadrupole moment (field-independent basis, Debye-Ang):
   XX=           -231.3957   YY=           -243.7718   ZZ=           -263.1515
   XY=            -16.6606   XZ=             33.2468   YZ=              0.8522

 Normal termination of Gaussian 09 at Mon Jul  8 22:02:36 2019.
