 Gaussian 09, Revision D.01,
 Gaussian 09:  ES64L-G09RevD.01 24-Apr-2013

 --------------------------
 # td=(NStates=1) B3LYP/SVP
 --------------------------

 --
 TD
 --
 Symbolic Z-matrix:
 Charge =  0 Multiplicity = 1

                         Standard orientation:
 ---------------------------------------------------------------------
 Center     Atomic      Atomic             Coordinates (Angstroms)
 Number     Number       Type             X           Y           Z
 ---------------------------------------------------------------------
      1          8           0        5.511214   -0.096348   -3.313821
      2          8           0       -2.857668   -3.359765    3.323319
      3          8           0       -3.209604   -1.054028    3.251025
      4          8           0       -1.464526    7.134233    1.614580
      5          8           0       -0.429391    7.035796   -0.294048
      6          8           0       -1.926419   -3.885973   -0.074839
      7          7           0        2.298096    0.824702    0.498691
      8          7           0        4.451590   -0.529208   -1.286250
      9          7           0       -1.981158    0.719392   -0.346030
     10          7           0       -2.731232   -1.735435   -0.530548
     11          6           0        4.904664   -1.238702   -0.007514
     12          6           0        4.495967   -0.268050    1.117491
     13          6           0        2.927261   -0.109068    1.265925
     14          6           0        1.921918   -0.717855    2.077188
     15          6           0        0.688395   -0.057913    1.796593
     16          6           0        0.952420    0.858029    0.789389
     17          6           0        6.326620   -1.362211   -0.117447
     18          6           0       -0.610275   -0.324654    2.567016
     19          6           0        6.760088   -0.911283   -1.383234
     20          6           0        0.142806    1.884990    0.183890
     21          6           0       -1.210091    1.830415   -0.285141
     22          6           0        5.570328   -0.535098   -2.143927
     23          6           0       -1.982407    2.868904   -0.910636
     24          6           0        2.172591   -1.767154    3.162049
     25          6           0        7.183273   -1.899782    0.960413
     26          6           0       -3.174783    2.479937   -1.174495
     27          6           0       -1.050668   -1.803687    2.551445
     28          6           0       -3.286922    1.142314   -0.950438
     29          6           0       -1.439361    4.289563   -0.921578
     30          6           0        8.039257   -0.896802   -2.141329
     31          6           0       -1.645840    5.137764    0.501950
     32          6           0       -4.395761    3.140509   -1.869598
     33          6           0       -4.078822    0.041147   -1.322990
     34          6           0       -2.499075   -1.962921    3.098968
     35          6           0       -3.851094   -1.324522   -1.164479
     36          6           0        9.306896   -0.712967   -1.570714
     37          6           0       -1.070736    6.508587    0.515532
     38          6           0       -4.829008   -2.423236   -1.488168
     39          6           0       -4.112990   -3.529922   -1.114256
     40          6           0       -2.852469   -3.176095   -0.525025
     41          6           0       -6.132082   -2.211606   -2.209189
     42          6           0       -4.343487   -5.102120   -1.247150
     43          6           0       -6.750062   -3.210785   -2.820158
     44          1           0        4.303954   -2.175129    0.077204
     45          1           0        4.904064    0.740545    1.048552
     46          1           0        4.804070   -0.576434    1.992962
     47          1           0        2.892203    1.362863   -0.205697
     48          1           0        3.536214   -0.607573   -1.792658
     49          1           0       -0.286805   -0.160639    3.576677
     50          1           0       -1.438106    0.059442    2.053727
     51          1           0        0.771631    2.731403   -0.129249
     52          1           0        3.168184   -1.466229    3.471370
     53          1           0        1.665440   -1.707896    4.092364
     54          1           0        2.108840   -2.726753    2.757766
     55          1           0        6.921420   -2.736225    1.698042
     56          1           0        7.485237   -0.997336    1.548107
     57          1           0        8.290202   -2.054815    0.526676
     58          1           0       -1.013449   -2.399889    1.536731
     59          1           0       -0.413517   -2.429547    3.252072
     60          1           0       -1.757996   -0.246219   -0.233336
     61          1           0       -2.248082    4.903509   -1.633808
     62          1           0       -0.521561    4.326229   -1.369032
     63          1           0        7.891880   -0.818481   -3.129205
     64          1           0       -1.189053    4.621457    1.277689
     65          1           0       -2.696112    5.279525    0.914263
     66          1           0       -4.262651    4.120088   -1.981945
     67          1           0       -5.129098    3.051371   -1.144936
     68          1           0       -4.823714    2.478922   -2.601142
     69          1           0       -5.036285    0.212857   -1.675037
     70          1           0        9.486816   -0.846938   -0.531529
     71          1           0       10.149645   -0.813367   -2.311519
     72          1           0       -3.720439   -3.275022    3.410038
     73          1           0       -6.659753   -1.276501   -2.006041
     74          1           0       -4.389485   -5.438392   -2.242353
     75          1           0       -3.570419   -5.569066   -0.508794
     76          1           0       -5.351696   -5.323389   -0.871587
     77          1           0       -1.423014    8.041584    1.559348
     78          1           0       -7.803016   -2.955084   -3.201372
     79          1           0       -6.354791   -4.290741   -2.947387
 ---------------------------------------------------------------------

 SCF Done:  E(RB3LYP) =  -1947.84852544     A.U. after   18 cycles

 Excitation energies and oscillator strengths:

 Excited State   1:      Singlet-A      1.9309 eV  642.11 nm  f=0.4607  <S**2>=0.000
     155 ->156         0.70266
     155 <-156        -0.15100
 This state for optimization and/or second-order correction.
 Total Energy, E(TD-HF/TD-KS) =  -1947.77756620
 Copying the excited state density for this state as the 1-particle RhoCI density.

 The electronic state is 1-A.
 Alpha  occ. eigenvalues --  -19.17258 -19.14519 -19.12838 -19.12558 -19.10332
 Alpha  occ. eigenvalues --  -19.09717 -14.38633 -14.35576 -14.34729 -14.28343
 Alpha  occ. eigenvalues --  -10.31596 -10.30577 -10.28183 -10.25972 -10.25887
 Alpha  occ. eigenvalues --  -10.24165 -10.23781 -10.23780 -10.23515 -10.23134
 Alpha  occ. eigenvalues --  -10.22775 -10.22459 -10.22157 -10.22126 -10.21676
 Alpha  occ. eigenvalues --  -10.21516 -10.21301 -10.21044 -10.20983 -10.20874
 Alpha  occ. eigenvalues --  -10.20776 -10.20739 -10.20183 -10.19865 -10.19763
 Alpha  occ. eigenvalues --  -10.19316 -10.19048 -10.19041 -10.18915 -10.18775
 Alpha  occ. eigenvalues --  -10.18642 -10.18612 -10.18545  -1.12186  -1.08355
 Alpha  occ. eigenvalues --   -1.02882  -1.01016  -1.00819  -0.99626  -0.98638
 Alpha  occ. eigenvalues --   -0.97002  -0.92969  -0.90811  -0.83099  -0.82568
 Alpha  occ. eigenvalues --   -0.81207  -0.80690  -0.79985  -0.79630  -0.77732
 Alpha  occ. eigenvalues --   -0.77377  -0.75695  -0.75503  -0.74626  -0.73442
 Alpha  occ. eigenvalues --   -0.72001  -0.71836  -0.70354  -0.69271  -0.68484
 Alpha  occ. eigenvalues --   -0.66608  -0.65998  -0.64467  -0.62115  -0.61422
 Alpha  occ. eigenvalues --   -0.60753  -0.58727  -0.57727  -0.57258  -0.56816
 Alpha  occ. eigenvalues --   -0.56190  -0.55235  -0.54708  -0.54315  -0.53282
 Alpha  occ. eigenvalues --   -0.52331  -0.51741  -0.50839  -0.50434  -0.49834
 Alpha  occ. eigenvalues --   -0.49139  -0.48538  -0.48156  -0.48033  -0.47877
 Alpha  occ. eigenvalues --   -0.47578  -0.47226  -0.46655  -0.46526  -0.45804
 Alpha  occ. eigenvalues --   -0.45155  -0.44861  -0.44768  -0.44095  -0.43767
 Alpha  occ. eigenvalues --   -0.43574  -0.43489  -0.42866  -0.42529  -0.42447
 Alpha  occ. eigenvalues --   -0.42394  -0.42120  -0.41595  -0.41267  -0.41188
 Alpha  occ. eigenvalues --   -0.40776  -0.40612  -0.40233  -0.40107  -0.39719
 Alpha  occ. eigenvalues --   -0.39709  -0.39349  -0.39116  -0.39028  -0.38632
 Alpha  occ. eigenvalues --   -0.38232  -0.38141  -0.37762  -0.37202  -0.36507
 Alpha  occ. eigenvalues --   -0.36139  -0.36008  -0.35285  -0.35231  -0.34209
 Alpha  occ. eigenvalues --   -0.33961  -0.33371  -0.33348  -0.32575  -0.31276
 Alpha  occ. eigenvalues --   -0.31023  -0.30931  -0.28874  -0.28548  -0.27386
 Alpha  occ. eigenvalues --   -0.27303  -0.26552  -0.26302  -0.25336  -0.24826
 Alpha  occ. eigenvalues --   -0.24448  -0.24051  -0.23873  -0.22477  -0.18418
 Alpha virt. eigenvalues --   -0.11259  -0.07344  -0.06373  -0.00866  -0.00505
 Alpha virt. eigenvalues --    0.01189   0.01884   0.02160   0.03259   0.03724
 Alpha virt. eigenvalues --    0.03948   0.04136   0.04568   0.05543   0.06147

 Mulliken charges:
               1
     1  O   -0.263247
     2  O   -0.198752
     3  O   -0.166038
     4  O   -0.149948
     5  O   -0.164266
     6  O   -0.230043
     7  N   -0.084743
     8  N   -0.266623
     9  N   -0.128304
    10  N   -0.308993
    11  C    0.120014
    12  C    0.281227
    13  C   -0.138513
    14  C   -0.174600
    15  C   -0.114061
    16  C    0.046155
    17  C   -0.143403
    18  C    0.240638
    19  C   -0.043699
    20  C   -0.082235
    21  C    0.103295
    22  C    0.145590
    23  C   -0.130018
    24  C    0.149546
    25  C    0.031104
    26  C   -0.114294
    27  C   -0.126688
    28  C    0.141613
    29  C    0.085801
    30  C    0.042839
    31  C    0.015536
    32  C    0.288630
    33  C   -0.068193
    34  C    0.147762
    35  C    0.045625
    36  C   -0.020096
    37  C    0.079091
    38  C    0.038497
    39  C   -0.211027
    40  C    0.178340
    41  C   -0.001668
    42  C    0.084987
    43  C   -0.050784
    44  H    0.043511
    45  H   -0.003406
    46  H   -0.067565
    47  H    0.146871
    48  H    0.150035
    49  H    0.000045
    50  H   -0.000918
    51  H   -0.009215
    52  H   -0.008351
    53  H    0.003926
    54  H    0.025431
    55  H    0.061721
    56  H    0.038879
    57  H    0.036646
    58  H    0.104010
    59  H    0.017889
    60  H    0.125405
    61  H    0.027240
    62  H    0.004863
    63  H   -0.023619
    64  H    0.014941
    65  H    0.043492
    66  H   -0.036812
    67  H   -0.022597
    68  H    0.018629
    69  H   -0.081585
    70  H    0.011797
    71  H    0.044157
    72  H    0.111536
    73  H    0.017039
    74  H    0.024187
    75  H    0.060013
    76  H    0.006325
    77  H    0.147028
    78  H    0.034678
    79  H    0.047719
 Sum of Mulliken charges =   0.00000

 Dipole moment (field-independent basis, Debye):
    X=              0.5369    Y=              2.2347    Z=              2.9846  Tot=              3.7670
 Quadrupole moment (field-independent basis, Debye-Ang):
   XX=           -206.2653   YY=           -248.2207   ZZ=           -264.6509
   XY=            -19.6879   XZ=             37.8921   YZ=              8.6208

 Normal termination of Gaussian 09 at Wed Jul 10 19:35:52 2019.
