 Gaussian 09, Revision D.01,
 Gaussian 09:  ES64L-G09RevD.01 24-Apr-2013

 --------------------------
 # td=(NStates=1) B3LYP/SVP
 --------------------------

 --
 TD
 --
 Symbolic Z-matrix:
 Charge =  0 Multiplicity = 1

                         Standard orientation:
 ---------------------------------------------------------------------
 Center     Atomic      Atomic             Coordinates (Angstroms)
 Number     Number       Type             X           Y           Z
 ---------------------------------------------------------------------
      1          8           0        5.471636   -0.219907   -3.300800
      2          8           0       -2.984797   -3.075764    3.145475
      3          8           0       -3.197923   -0.901042    3.068560
      4          8           0       -1.612541    7.158440    1.453873
      5          8           0       -0.508734    6.980554   -0.459654
      6          8           0       -1.828323   -4.023914   -0.278214
      7          7           0        2.329496    0.908235    0.611295
      8          7           0        4.434328   -0.651996   -1.373634
      9          7           0       -1.904395    0.694010   -0.370014
     10          7           0       -2.678713   -1.769802   -0.584457
     11          6           0        4.843439   -1.179085   -0.073141
     12          6           0        4.515654   -0.308154    1.188338
     13          6           0        3.023539    0.019213    1.281663
     14          6           0        1.995308   -0.677468    2.172564
     15          6           0        0.754674   -0.058050    1.815708
     16          6           0        0.958460    0.963454    0.866285
     17          6           0        6.382186   -1.338355   -0.141596
     18          6           0       -0.515017   -0.380744    2.585207
     19          6           0        6.849082   -0.807067   -1.417432
     20          6           0        0.142323    1.880496    0.199072
     21          6           0       -1.122028    1.834231   -0.215458
     22          6           0        5.594103   -0.540578   -2.172183
     23          6           0       -1.973819    2.956953   -0.829139
     24          6           0        2.268315   -1.726161    3.119532
     25          6           0        7.213761   -2.020700    0.921577
     26          6           0       -3.187461    2.412683   -1.110130
     27          6           0       -1.078258   -1.771707    2.469613
     28          6           0       -3.165305    0.974420   -0.811345
     29          6           0       -1.437502    4.293962   -0.869857
     30          6           0        8.089322   -0.827573   -2.084285
     31          6           0       -1.730347    5.162205    0.351297
     32          6           0       -4.337597    3.005313   -1.912343
     33          6           0       -4.111201   -0.010176   -1.075914
     34          6           0       -2.486335   -1.792862    2.901625
     35          6           0       -3.877350   -1.345518   -0.996334
     36          6           0        9.239778   -0.739511   -1.421468
     37          6           0       -1.153233    6.467260    0.346708
     38          6           0       -4.771528   -2.543828   -1.439914
     39          6           0       -4.138101   -3.667237   -1.028128
     40          6           0       -2.706033   -3.224826   -0.566356
     41          6           0       -6.041024   -2.306933   -1.929055
     42          6           0       -4.640933   -5.062609   -1.186371
     43          6           0       -6.963441   -3.154914   -2.601059
     44          1           0        4.297102   -2.214708    0.180496
     45          1           0        4.803053    0.773253    0.876911
     46          1           0        4.824503   -0.721436    2.322439
     47          1           0        2.735783    1.396815   -0.145051
     48          1           0        3.592985   -0.814140   -1.785713
     49          1           0       -0.314407   -0.184490    3.629626
     50          1           0       -1.512591    0.348669    2.469198
     51          1           0        0.545416    3.027779    0.167083
     52          1           0        3.372283   -1.800195    3.362754
     53          1           0        1.788602   -1.867528    4.153845
     54          1           0        2.102023   -2.751536    2.713649
     55          1           0        6.625813   -2.826555    1.507539
     56          1           0        7.585009   -1.218920    1.738592
     57          1           0        8.159728   -2.454531    0.455871
     58          1           0       -1.056465   -2.057902    1.280789
     59          1           0       -0.519513   -2.655755    2.996842
     60          1           0       -1.573510   -0.077496   -0.270689
     61          1           0       -1.971382    4.886879   -1.586537
     62          1           0       -0.356337    4.161525   -1.195806
     63          1           0        8.031575   -0.918526   -2.987463
     64          1           0       -1.347629    4.776128    1.123218
     65          1           0       -2.833045    5.173977    0.652324
     66          1           0       -4.270901    4.232511   -1.933300
     67          1           0       -5.310494    2.722496   -1.444140
     68          1           0       -4.232619    2.756698   -3.076334
     69          1           0       -5.014422    0.169182   -1.482338
     70          1           0        9.288947   -0.469694   -0.331103
     71          1           0       10.124706   -0.516862   -1.889554
     72          1           0       -4.067453   -2.944569    3.324264
     73          1           0       -6.214221   -1.222134   -1.982915
     74          1           0       -4.724264   -5.401386   -2.303241
     75          1           0       -3.931317   -5.594217   -0.775359
     76          1           0       -5.572622   -5.209355   -0.721778
     77          1           0       -1.080814    7.975992    1.542637
     78          1           0       -7.790591   -2.733124   -2.924176
     79          1           0       -6.763057   -4.273714   -2.704945
 ---------------------------------------------------------------------

 SCF Done:  E(RB3LYP) =  -1947.77818825     A.U. after   17 cycles

 Excitation energies and oscillator strengths:

 Excited State   1:      Singlet-A      2.1612 eV  573.67 nm  f=0.4653  <S**2>=0.000
     154 ->156         0.10680
     155 ->156         0.69319
 This state for optimization and/or second-order correction.
 Total Energy, E(TD-HF/TD-KS) =  -1947.69876394
 Copying the excited state density for this state as the 1-particle RhoCI density.

 The electronic state is 1-A.
 Alpha  occ. eigenvalues --  -19.17161 -19.15217 -19.13708 -19.11345 -19.10722
 Alpha  occ. eigenvalues --  -19.10343 -14.39129 -14.35553 -14.35078 -14.28739
 Alpha  occ. eigenvalues --  -10.31819 -10.29494 -10.28596 -10.27015 -10.26827
 Alpha  occ. eigenvalues --  -10.25276 -10.24443 -10.24395 -10.24048 -10.23994
 Alpha  occ. eigenvalues --  -10.23331 -10.22720 -10.22611 -10.22419 -10.22071
 Alpha  occ. eigenvalues --  -10.21628 -10.21417 -10.21361 -10.20984 -10.20097
 Alpha  occ. eigenvalues --  -10.20083 -10.20018 -10.19678 -10.19598 -10.19573
 Alpha  occ. eigenvalues --  -10.19497 -10.19467 -10.19237 -10.19175 -10.19107
 Alpha  occ. eigenvalues --  -10.18914 -10.17590 -10.17492  -1.11180  -1.08397
 Alpha  occ. eigenvalues --   -1.05010  -1.01913  -1.00819  -0.99937  -0.99249
 Alpha  occ. eigenvalues --   -0.97190  -0.93730  -0.90616  -0.84626  -0.83259
 Alpha  occ. eigenvalues --   -0.82394  -0.80859  -0.80530  -0.80221  -0.79251
 Alpha  occ. eigenvalues --   -0.77804  -0.76518  -0.75904  -0.74549  -0.73019
 Alpha  occ. eigenvalues --   -0.71904  -0.71627  -0.70085  -0.69525  -0.69102
 Alpha  occ. eigenvalues --   -0.66220  -0.65739  -0.64285  -0.62635  -0.61261
 Alpha  occ. eigenvalues --   -0.60311  -0.58784  -0.58288  -0.58028  -0.57610
 Alpha  occ. eigenvalues --   -0.56250  -0.55965  -0.54816  -0.54265  -0.52763
 Alpha  occ. eigenvalues --   -0.52466  -0.51823  -0.51691  -0.51369  -0.50544
 Alpha  occ. eigenvalues --   -0.50248  -0.49285  -0.48669  -0.48391  -0.47502
 Alpha  occ. eigenvalues --   -0.47264  -0.46571  -0.46128  -0.45971  -0.45775
 Alpha  occ. eigenvalues --   -0.45043  -0.44931  -0.44496  -0.43926  -0.43734
 Alpha  occ. eigenvalues --   -0.43609  -0.43437  -0.43086  -0.42975  -0.42372
 Alpha  occ. eigenvalues --   -0.42331  -0.42110  -0.41467  -0.41348  -0.41331
 Alpha  occ. eigenvalues --   -0.41015  -0.40711  -0.40427  -0.40233  -0.39968
 Alpha  occ. eigenvalues --   -0.39880  -0.39607  -0.39558  -0.39048  -0.38813
 Alpha  occ. eigenvalues --   -0.38728  -0.37670  -0.37526  -0.37394  -0.36888
 Alpha  occ. eigenvalues --   -0.36624  -0.36463  -0.35489  -0.35332  -0.35075
 Alpha  occ. eigenvalues --   -0.34366  -0.33222  -0.32847  -0.32602  -0.31470
 Alpha  occ. eigenvalues --   -0.31155  -0.30194  -0.29449  -0.28822  -0.27370
 Alpha  occ. eigenvalues --   -0.26987  -0.26736  -0.26365  -0.26160  -0.24951
 Alpha  occ. eigenvalues --   -0.24069  -0.23319  -0.23022  -0.21473  -0.18949
 Alpha virt. eigenvalues --   -0.10228  -0.07333  -0.06188  -0.00851  -0.00062
 Alpha virt. eigenvalues --    0.00465   0.00568   0.02152   0.02420   0.03098
 Alpha virt. eigenvalues --    0.03312   0.03974   0.04398   0.04752   0.05059

 Mulliken charges:
               1
     1  O   -0.177211
     2  O   -0.298704
     3  O   -0.174023
     4  O   -0.235057
     5  O   -0.149631
     6  O   -0.207215
     7  N    0.010690
     8  N   -0.166053
     9  N    0.083645
    10  N   -0.323953
    11  C    0.054416
    12  C    0.123457
    13  C   -0.137383
    14  C   -0.096963
    15  C   -0.055862
    16  C    0.075628
    17  C   -0.133950
    18  C   -0.008205
    19  C   -0.027214
    20  C   -0.102377
    21  C    0.024229
    22  C    0.100838
    23  C   -0.065758
    24  C    0.038523
    25  C    0.002296
    26  C   -0.118740
    27  C   -0.074434
    28  C    0.163039
    29  C    0.094808
    30  C    0.100967
    31  C    0.114580
    32  C   -0.000003
    33  C   -0.039611
    34  C    0.130907
    35  C    0.040890
    36  C    0.008443
    37  C    0.090723
    38  C    0.115190
    39  C   -0.249738
    40  C    0.194176
    41  C   -0.097021
    42  C    0.174655
    43  C    0.025311
    44  H    0.041499
    45  H    0.003119
    46  H    0.070426
    47  H    0.094337
    48  H    0.103182
    49  H    0.000506
    50  H    0.056955
    51  H    0.026483
    52  H   -0.018503
    53  H    0.029334
    54  H    0.026533
    55  H    0.042669
    56  H    0.060794
    57  H    0.056372
    58  H    0.113929
    59  H    0.045632
    60  H   -0.004836
    61  H   -0.007406
    62  H    0.039722
    63  H   -0.110972
    64  H   -0.054399
    65  H    0.056693
    66  H    0.030149
    67  H    0.048696
    68  H    0.065267
    69  H   -0.104549
    70  H    0.024910
    71  H    0.002949
    72  H    0.223618
    73  H   -0.010031
    74  H    0.039490
    75  H   -0.032211
    76  H    0.012567
    77  H    0.178813
    78  H   -0.017570
    79  H    0.037530
 Sum of Mulliken charges =   0.00000

 Dipole moment (field-independent basis, Debye):
    X=              2.0205    Y=              2.6270    Z=              2.6025  Tot=              4.2138
 Quadrupole moment (field-independent basis, Debye-Ang):
   XX=           -213.7695   YY=           -252.6495   ZZ=           -262.8922
   XY=            -10.2754   XZ=             29.6505   YZ=              3.6070

 Normal termination of Gaussian 09 at Mon Jul  8 01:54:20 2019.
