 Gaussian 09, Revision D.01,
 Gaussian 09:  ES64L-G09RevD.01 24-Apr-2013

 --------------------------
 # td=(NStates=1) B3LYP/SVP
 --------------------------

 --
 TD
 --
 Symbolic Z-matrix:
 Charge =  0 Multiplicity = 1

                         Standard orientation:
 ---------------------------------------------------------------------
 Center     Atomic      Atomic             Coordinates (Angstroms)
 Number     Number       Type             X           Y           Z
 ---------------------------------------------------------------------
      1          8           0        5.571214   -0.479387   -3.478147
      2          8           0       -2.700223   -2.998564    3.308898
      3          8           0       -3.091508   -0.805024    3.200518
      4          8           0       -2.035556    7.186159    1.323801
      5          8           0       -0.954775    6.958059   -0.545704
      6          8           0       -1.798807   -4.032139   -0.065212
      7          7           0        2.372063    0.966299    0.387002
      8          7           0        4.532119   -0.857096   -1.283888
      9          7           0       -1.918830    0.612049   -0.497531
     10          7           0       -2.738329   -1.875186   -0.483806
     11          6           0        5.026703   -1.138975    0.055643
     12          6           0        4.476960    0.009575    1.061540
     13          6           0        3.012202   -0.006540    1.252590
     14          6           0        2.111294   -0.546436    2.128800
     15          6           0        0.809069   -0.045570    1.657994
     16          6           0        1.060553    0.938630    0.651346
     17          6           0        6.521189   -1.106034   -0.071627
     18          6           0       -0.488915   -0.175043    2.407361
     19          6           0        6.848865   -0.912702   -1.377873
     20          6           0        0.164819    1.874515   -0.009588
     21          6           0       -1.216954    1.725376   -0.397001
     22          6           0        5.625436   -0.708547   -2.215627
     23          6           0       -2.089871    2.821130   -0.864252
     24          6           0        2.453522   -1.506733    3.140097
     25          6           0        7.333822   -1.267201    1.232949
     26          6           0       -3.263415    2.319240   -1.245805
     27          6           0       -0.868270   -1.660122    2.644428
     28          6           0       -3.174250    0.878632   -0.981895
     29          6           0       -1.709141    4.333605   -1.021514
     30          6           0        8.194771   -0.769733   -2.047742
     31          6           0       -1.981635    4.902658    0.421078
     32          6           0       -4.507728    3.039567   -1.665210
     33          6           0       -4.196645   -0.142320   -1.190574
     34          6           0       -2.354950   -1.715349    3.046759
     35          6           0       -3.866534   -1.410137   -1.044220
     36          6           0        9.343808   -0.583511   -1.465406
     37          6           0       -1.531916    6.431044    0.358510
     38          6           0       -4.741759   -2.675624   -1.423081
     39          6           0       -4.163402   -3.715383   -1.023047
     40          6           0       -2.746821   -3.317294   -0.496715
     41          6           0       -6.121979   -2.518760   -1.985005
     42          6           0       -4.371354   -5.239635   -1.015888
     43          6           0       -6.969727   -3.473685   -2.401596
     44          1           0        4.680212   -2.179503    0.695702
     45          1           0        4.676853    1.079995    0.606811
     46          1           0        4.991684   -0.029006    2.138335
     47          1           0        2.860830    1.306623   -0.455901
     48          1           0        3.518382   -1.131753   -1.563471
     49          1           0       -0.534975    0.385751    3.503909
     50          1           0       -1.443020    0.357999    1.778901
     51          1           0        0.878704    2.762593   -0.373348
     52          1           0        3.547170   -1.335041    3.142819
     53          1           0        1.995374   -1.412592    4.171658
     54          1           0        2.019746   -2.565887    2.980201
     55          1           0        6.484265   -1.592912    2.037057
     56          1           0        7.940228   -0.422394    1.579217
     57          1           0        8.098351   -2.145858    0.874101
     58          1           0       -0.758385   -2.204486    1.699138
     59          1           0       -0.289108   -2.174855    3.324917
     60          1           0       -1.860498   -0.527118   -0.423110
     61          1           0       -2.364601    4.761549   -1.711509
     62          1           0       -0.646827    4.540520   -1.190434
     63          1           0        8.125869   -0.896658   -3.130175
     64          1           0       -1.390686    4.356011    1.197340
     65          1           0       -2.950331    4.771325    0.754450
     66          1           0       -4.558804    4.050513   -1.267331
     67          1           0       -5.425565    2.333782   -1.077049
     68          1           0       -4.659923    2.971405   -2.859647
     69          1           0       -4.995937    0.156995   -1.748711
     70          1           0        9.668985    0.041059   -0.381681
     71          1           0       10.323105   -0.391150   -2.111460
     72          1           0       -3.697968   -3.057366    3.390154
     73          1           0       -6.501568   -1.320462   -2.128575
     74          1           0       -4.273126   -5.640046   -2.064810
     75          1           0       -3.634330   -5.710186   -0.256510
     76          1           0       -5.360426   -5.563834   -0.690172
     77          1           0       -1.404866    8.000984    1.244823
     78          1           0       -7.834005   -3.399304   -2.871714
     79          1           0       -6.583220   -4.563809   -2.312143
 ---------------------------------------------------------------------

 SCF Done:  E(RB3LYP) =  -1947.81854780     A.U. after   16 cycles

 Excitation energies and oscillator strengths:

 Excited State   1:      Singlet-A      2.1660 eV  572.42 nm  f=0.5211  <S**2>=0.000
     155 ->156         0.70676
     155 <-156        -0.12427
 This state for optimization and/or second-order correction.
 Total Energy, E(TD-HF/TD-KS) =  -1947.73894991
 Copying the excited state density for this state as the 1-particle RhoCI density.

 The electronic state is 1-A.
 Alpha  occ. eigenvalues --  -19.19007 -19.16370 -19.13378 -19.11551 -19.11527
 Alpha  occ. eigenvalues --  -19.10664 -14.38323 -14.37416 -14.36240 -14.29842
 Alpha  occ. eigenvalues --  -10.32519 -10.30545 -10.30323 -10.27450 -10.27363
 Alpha  occ. eigenvalues --  -10.25095 -10.24907 -10.23928 -10.23905 -10.23823
 Alpha  occ. eigenvalues --  -10.23629 -10.23464 -10.23313 -10.22919 -10.22866
 Alpha  occ. eigenvalues --  -10.21769 -10.21753 -10.21558 -10.21555 -10.20946
 Alpha  occ. eigenvalues --  -10.20942 -10.20911 -10.20903 -10.20846 -10.20164
 Alpha  occ. eigenvalues --  -10.20136 -10.20109 -10.19765 -10.19450 -10.19158
 Alpha  occ. eigenvalues --  -10.19067 -10.18392 -10.18290  -1.11560  -1.08338
 Alpha  occ. eigenvalues --   -1.01168  -0.99947  -0.99730  -0.99436  -0.98852
 Alpha  occ. eigenvalues --   -0.98405  -0.93538  -0.91362  -0.82591  -0.82306
 Alpha  occ. eigenvalues --   -0.81951  -0.81239  -0.80382  -0.79227  -0.77429
 Alpha  occ. eigenvalues --   -0.77357  -0.76226  -0.75277  -0.74216  -0.72504
 Alpha  occ. eigenvalues --   -0.71481  -0.70815  -0.69179  -0.68631  -0.67200
 Alpha  occ. eigenvalues --   -0.66204  -0.66085  -0.62906  -0.60820  -0.60000
 Alpha  occ. eigenvalues --   -0.59447  -0.58841  -0.58473  -0.57815  -0.56662
 Alpha  occ. eigenvalues --   -0.55823  -0.55368  -0.54687  -0.53740  -0.52764
 Alpha  occ. eigenvalues --   -0.51481  -0.51135  -0.50696  -0.50538  -0.50010
 Alpha  occ. eigenvalues --   -0.49574  -0.48760  -0.48049  -0.47452  -0.47105
 Alpha  occ. eigenvalues --   -0.47027  -0.46455  -0.46263  -0.45939  -0.45559
 Alpha  occ. eigenvalues --   -0.45368  -0.44925  -0.44808  -0.44112  -0.43804
 Alpha  occ. eigenvalues --   -0.43725  -0.43081  -0.42906  -0.42793  -0.42522
 Alpha  occ. eigenvalues --   -0.42228  -0.41861  -0.41468  -0.41090  -0.40877
 Alpha  occ. eigenvalues --   -0.40330  -0.40040  -0.40002  -0.39597  -0.39353
 Alpha  occ. eigenvalues --   -0.39241  -0.39056  -0.38759  -0.38413  -0.37990
 Alpha  occ. eigenvalues --   -0.37835  -0.37647  -0.37427  -0.36770  -0.36615
 Alpha  occ. eigenvalues --   -0.36412  -0.35517  -0.34938  -0.34836  -0.33879
 Alpha  occ. eigenvalues --   -0.33393  -0.33204  -0.33016  -0.32435  -0.31690
 Alpha  occ. eigenvalues --   -0.31480  -0.30951  -0.29285  -0.28451  -0.27424
 Alpha  occ. eigenvalues --   -0.27184  -0.27140  -0.26304  -0.25996  -0.25458
 Alpha  occ. eigenvalues --   -0.25074  -0.24570  -0.24311  -0.23053  -0.19337
 Alpha virt. eigenvalues --   -0.11026  -0.06849  -0.05655  -0.01200  -0.00509
 Alpha virt. eigenvalues --   -0.00199   0.00338   0.01896   0.02346   0.02815
 Alpha virt. eigenvalues --    0.02997   0.03268   0.03605   0.03798   0.04844

 Mulliken charges:
               1
     1  O   -0.272703
     2  O   -0.210389
     3  O   -0.196967
     4  O   -0.185980
     5  O   -0.222759
     6  O   -0.248940
     7  N   -0.116423
     8  N   -0.270642
     9  N   -0.080652
    10  N   -0.341322
    11  C    0.030149
    12  C    0.022638
    13  C   -0.027007
    14  C   -0.081621
    15  C   -0.065675
    16  C    0.048933
    17  C   -0.107229
    18  C   -0.070535
    19  C   -0.080759
    20  C   -0.110770
    21  C    0.105038
    22  C    0.227317
    23  C   -0.139453
    24  C    0.046422
    25  C    0.006007
    26  C   -0.090705
    27  C    0.018803
    28  C    0.010068
    29  C    0.185006
    30  C    0.064258
    31  C   -0.025810
    32  C   -0.005963
    33  C   -0.039271
    34  C    0.130687
    35  C    0.134981
    36  C   -0.137032
    37  C    0.132605
    38  C    0.080344
    39  C   -0.233647
    40  C    0.195440
    41  C   -0.064251
    42  C    0.071788
    43  C    0.005216
    44  H    0.062180
    45  H    0.020785
    46  H    0.043879
    47  H    0.134936
    48  H    0.170490
    49  H    0.036705
    50  H    0.069033
    51  H    0.032778
    52  H    0.007703
    53  H    0.022731
    54  H    0.052108
    55  H    0.045577
    56  H    0.057711
    57  H    0.074690
    58  H    0.054585
    59  H   -0.002230
    60  H    0.206040
    61  H    0.000877
    62  H    0.021192
    63  H    0.027372
    64  H    0.046476
    65  H    0.010749
    66  H    0.032996
    67  H    0.055444
    68  H    0.062976
    69  H   -0.061541
    70  H    0.052928
    71  H    0.042041
    72  H    0.189305
    73  H    0.027348
    74  H    0.042687
    75  H    0.050306
    76  H    0.015557
    77  H    0.201331
    78  H   -0.018675
    79  H    0.021737
 Sum of Mulliken charges =   0.00000

 Dipole moment (field-independent basis, Debye):
    X=              1.3377    Y=              2.6846    Z=              3.2731  Tot=              4.4396
 Quadrupole moment (field-independent basis, Debye-Ang):
   XX=           -223.4737   YY=           -252.8444   ZZ=           -265.9204
   XY=              2.3579   XZ=             34.5109   YZ=              2.6630

 Normal termination of Gaussian 09 at Wed Jul 10 16:44:02 2019.
