 Gaussian 09, Revision D.01,
 Gaussian 09:  ES64L-G09RevD.01 24-Apr-2013

 --------------------------
 # td=(NStates=1) B3LYP/SVP
 --------------------------

 --
 TD
 --
 Symbolic Z-matrix:
 Charge =  0 Multiplicity = 1

                         Standard orientation:
 ---------------------------------------------------------------------
 Center     Atomic      Atomic             Coordinates (Angstroms)
 Number     Number       Type             X           Y           Z
 ---------------------------------------------------------------------
      1          8           0        5.325651   -0.166790   -3.315557
      2          8           0       -2.945744   -3.147592    3.243469
      3          8           0       -3.372574   -0.879246    3.319101
      4          8           0       -1.166373    7.243199    1.591560
      5          8           0       -0.515884    7.005640   -0.561503
      6          8           0       -2.009001   -3.954713   -0.132236
      7          7           0        2.283542    0.676526    0.528840
      8          7           0        4.426694   -0.665798   -1.264997
      9          7           0       -1.863865    0.682729   -0.419185
     10          7           0       -2.750392   -1.713706   -0.519120
     11          6           0        4.867503   -1.351572    0.029997
     12          6           0        4.394420   -0.618422    1.214169
     13          6           0        2.867744   -0.388893    1.254780
     14          6           0        1.903459   -0.914519    2.175679
     15          6           0        0.673536   -0.207013    1.877564
     16          6           0        0.982343    0.735175    0.832781
     17          6           0        6.333135   -1.405394   -0.310379
     18          6           0       -0.651682   -0.355815    2.683318
     19          6           0        6.666532   -0.855441   -1.470667
     20          6           0        0.276179    1.772927    0.265287
     21          6           0       -0.972925    1.794909   -0.286239
     22          6           0        5.454946   -0.581753   -2.180237
     23          6           0       -1.792837    2.964317   -0.778967
     24          6           0        2.142999   -1.902342    3.249896
     25          6           0        7.140578   -1.919911    0.886841
     26          6           0       -3.006641    2.529396   -1.162572
     27          6           0       -1.188901   -1.798320    2.581363
     28          6           0       -3.082733    1.033557   -0.927914
     29          6           0       -1.208661    4.342131   -0.759256
     30          6           0        7.909860   -0.696378   -2.044947
     31          6           0       -1.395313    5.088178    0.573757
     32          6           0       -4.240362    3.305911   -1.657819
     33          6           0       -4.038965    0.131574   -1.313438
     34          6           0       -2.612661   -1.820055    3.106877
     35          6           0       -3.808521   -1.269522   -1.155555
     36          6           0        9.148769   -0.772261   -1.564945
     37          6           0       -0.966937    6.487821    0.431409
     38          6           0       -4.724271   -2.379229   -1.640699
     39          6           0       -4.154739   -3.527124   -1.363404
     40          6           0       -2.828346   -3.174727   -0.598112
     41          6           0       -6.141667   -1.998306   -2.035247
     42          6           0       -4.690577   -4.879209   -1.410257
     43          6           0       -6.741845   -2.891060   -2.953575
     44          1           0        4.651442   -2.436055   -0.085316
     45          1           0        4.961027    0.350968    1.228941
     46          1           0        4.485738   -1.060282    2.218344
     47          1           0        2.852520    1.162749   -0.386630
     48          1           0        3.369405   -1.102462   -1.549953
     49          1           0       -0.599195   -0.262030    3.779378
     50          1           0       -1.617089    0.173163    2.261288
     51          1           0        1.019924    2.532804   -0.049471
     52          1           0        3.284680   -1.773820    3.601851
     53          1           0        1.352688   -1.653552    4.221211
     54          1           0        1.807820   -2.940096    2.942656
     55          1           0        6.591265   -2.689622    1.355646
     56          1           0        7.346910   -1.108987    1.697142
     57          1           0        8.125819   -2.310778    0.585245
     58          1           0       -1.264612   -2.027221    1.515912
     59          1           0       -0.756303   -2.645835    3.131094
     60          1           0       -1.755035   -0.502963   -0.404672
     61          1           0       -1.538735    4.752818   -1.655529
     62          1           0       -0.101796    4.263412   -0.875783
     63          1           0        7.860466   -0.142272   -3.121682
     64          1           0       -0.814840    4.636141    1.425680
     65          1           0       -2.442766    4.965387    0.923749
     66          1           0       -4.155447    4.296942   -1.678582
     67          1           0       -5.188112    2.973199   -1.052182
     68          1           0       -4.310632    2.893399   -2.556133
     69          1           0       -4.967977    0.464367   -1.777244
     70          1           0        9.413841   -0.948202   -0.498802
     71          1           0       10.049286   -0.532212   -2.267597
     72          1           0       -3.792865   -2.724363    3.590358
     73          1           0       -6.681121   -1.111841   -1.478261
     74          1           0       -4.607577   -5.290533   -2.494840
     75          1           0       -4.395645   -5.674323   -0.753547
     76          1           0       -5.796336   -4.809341   -1.341678
     77          1           0       -0.689153    8.059992    1.401225
     78          1           0       -7.858886   -2.500549   -3.084322
     79          1           0       -6.119677   -3.812014   -3.501867
 ---------------------------------------------------------------------

 SCF Done:  E(RB3LYP) =  -1947.84652386     A.U. after   16 cycles

 Excitation energies and oscillator strengths:

 Excited State   1:      Singlet-A      2.2129 eV  560.27 nm  f=0.4349  <S**2>=0.000
     155 ->156         0.70507
 This state for optimization and/or second-order correction.
 Total Energy, E(TD-HF/TD-KS) =  -1947.76519953
 Copying the excited state density for this state as the 1-particle RhoCI density.

 The electronic state is 1-A.
 Alpha  occ. eigenvalues --  -19.17722 -19.17591 -19.13582 -19.13448 -19.11886
 Alpha  occ. eigenvalues --  -19.10247 -14.38838 -14.36232 -14.34733 -14.30761
 Alpha  occ. eigenvalues --  -10.32472 -10.31441 -10.28412 -10.28322 -10.24909
 Alpha  occ. eigenvalues --  -10.24009 -10.23681 -10.23554 -10.23182 -10.22880
 Alpha  occ. eigenvalues --  -10.22646 -10.22475 -10.22438 -10.22385 -10.22203
 Alpha  occ. eigenvalues --  -10.21747 -10.21399 -10.20567 -10.20555 -10.20442
 Alpha  occ. eigenvalues --  -10.20419 -10.20284 -10.20258 -10.20217 -10.20029
 Alpha  occ. eigenvalues --  -10.19879 -10.19824 -10.19770 -10.19733 -10.19447
 Alpha  occ. eigenvalues --  -10.18975 -10.18643 -10.18316  -1.09644  -1.09146
 Alpha  occ. eigenvalues --   -1.02936  -1.01950  -1.00594  -0.99975  -0.97641
 Alpha  occ. eigenvalues --   -0.95450  -0.93841  -0.92458  -0.82888  -0.82489
 Alpha  occ. eigenvalues --   -0.81540  -0.81132  -0.80173  -0.79572  -0.77954
 Alpha  occ. eigenvalues --   -0.77332  -0.76157  -0.75590  -0.74484  -0.72498
 Alpha  occ. eigenvalues --   -0.72094  -0.70422  -0.69807  -0.68479  -0.67614
 Alpha  occ. eigenvalues --   -0.66105  -0.65076  -0.63586  -0.61276  -0.59444
 Alpha  occ. eigenvalues --   -0.58876  -0.57817  -0.57457  -0.56208  -0.55030
 Alpha  occ. eigenvalues --   -0.54938  -0.54678  -0.53388  -0.53041  -0.52656
 Alpha  occ. eigenvalues --   -0.52029  -0.51664  -0.50697  -0.50180  -0.49986
 Alpha  occ. eigenvalues --   -0.49079  -0.48493  -0.48350  -0.48215  -0.47548
 Alpha  occ. eigenvalues --   -0.47313  -0.47010  -0.46482  -0.46236  -0.45760
 Alpha  occ. eigenvalues --   -0.45314  -0.44585  -0.43993  -0.43576  -0.43373
 Alpha  occ. eigenvalues --   -0.43243  -0.42957  -0.42759  -0.42635  -0.42183
 Alpha  occ. eigenvalues --   -0.42092  -0.41916  -0.41821  -0.41703  -0.41069
 Alpha  occ. eigenvalues --   -0.40967  -0.40767  -0.40487  -0.40294  -0.40081
 Alpha  occ. eigenvalues --   -0.39873  -0.39520  -0.39332  -0.38827  -0.38497
 Alpha  occ. eigenvalues --   -0.38063  -0.37812  -0.37579  -0.36632  -0.36358
 Alpha  occ. eigenvalues --   -0.35748  -0.35562  -0.35283  -0.34800  -0.34212
 Alpha  occ. eigenvalues --   -0.34043  -0.33721  -0.33026  -0.32651  -0.32637
 Alpha  occ. eigenvalues --   -0.31905  -0.30627  -0.29092  -0.28742  -0.28528
 Alpha  occ. eigenvalues --   -0.28184  -0.27486  -0.25906  -0.25510  -0.25011
 Alpha  occ. eigenvalues --   -0.24475  -0.24405  -0.24085  -0.23263  -0.18605
 Alpha virt. eigenvalues --   -0.09828  -0.06502  -0.05654  -0.01855  -0.00916
 Alpha virt. eigenvalues --   -0.00332   0.00382   0.01188   0.01535   0.02332
 Alpha virt. eigenvalues --    0.03182   0.03711   0.03977   0.04336   0.04867

 Mulliken charges:
               1
     1  O   -0.207850
     2  O   -0.189525
     3  O   -0.259975
     4  O   -0.216693
     5  O   -0.216313
     6  O   -0.190863
     7  N   -0.151740
     8  N   -0.293187
     9  N   -0.209852
    10  N   -0.318522
    11  C    0.081682
    12  C    0.249594
    13  C   -0.118873
    14  C   -0.100339
    15  C   -0.050385
    16  C    0.076366
    17  C   -0.234243
    18  C    0.047638
    19  C    0.036185
    20  C   -0.147688
    21  C    0.155970
    22  C    0.148824
    23  C   -0.119551
    24  C   -0.021242
    25  C    0.091165
    26  C   -0.169884
    27  C   -0.023556
    28  C    0.123207
    29  C    0.146535
    30  C   -0.058319
    31  C    0.008341
    32  C    0.207894
    33  C   -0.115343
    34  C    0.150150
    35  C    0.056473
    36  C   -0.080149
    37  C    0.146786
    38  C    0.031732
    39  C   -0.172670
    40  C    0.191193
    41  C   -0.069714
    42  C    0.065882
    43  C   -0.088161
    44  H    0.028104
    45  H    0.007589
    46  H   -0.014815
    47  H    0.202019
    48  H    0.180182
    49  H    0.006399
    50  H    0.058275
    51  H   -0.005907
    52  H    0.044433
    53  H    0.040879
    54  H    0.061737
    55  H    0.002515
    56  H    0.052679
    57  H    0.030176
    58  H    0.068583
    59  H    0.025938
    60  H    0.229258
    61  H    0.003078
    62  H   -0.000644
    63  H    0.042995
    64  H    0.052116
    65  H    0.049189
    66  H   -0.019822
    67  H    0.036364
    68  H   -0.008086
    69  H   -0.033107
    70  H    0.019587
    71  H    0.046603
    72  H    0.149334
    73  H    0.065381
    74  H    0.028595
    75  H    0.030020
    76  H    0.017026
    77  H    0.173075
    78  H    0.050775
    79  H    0.088496
 Sum of Mulliken charges =   0.00000

 Dipole moment (field-independent basis, Debye):
    X=              0.7341    Y=              0.3052    Z=              2.6147  Tot=              2.7329
 Quadrupole moment (field-independent basis, Debye-Ang):
   XX=           -217.1013   YY=           -253.5864   ZZ=           -265.9919
   XY=             -6.1184   XZ=             34.7058   YZ=              5.4510

 Normal termination of Gaussian 09 at Wed Jul 10 21:50:46 2019.
