 Gaussian 09, Revision D.01,
 Gaussian 09:  ES64L-G09RevD.01 24-Apr-2013

 --------------------------
 # td=(NStates=1) B3LYP/SVP
 --------------------------

 --
 TD
 --
 Symbolic Z-matrix:
 Charge =  0 Multiplicity = 1

                         Standard orientation:
 ---------------------------------------------------------------------
 Center     Atomic      Atomic             Coordinates (Angstroms)
 Number     Number       Type             X           Y           Z
 ---------------------------------------------------------------------
      1          8           0        5.132389   -0.407483   -3.425442
      2          8           0       -2.607261   -3.212274    3.409924
      3          8           0       -3.022810   -1.055617    3.201597
      4          8           0       -1.925303    7.140614    1.415249
      5          8           0       -0.524318    6.868033   -0.383951
      6          8           0       -2.025764   -4.057404   -0.038459
      7          7           0        2.347630    1.010642    0.598581
      8          7           0        4.395702   -0.614918   -1.284455
      9          7           0       -1.944362    0.655930   -0.265165
     10          7           0       -2.735653   -1.846881   -0.508946
     11          6           0        4.851911   -0.984778    0.044414
     12          6           0        4.599374    0.067779    1.225335
     13          6           0        3.066464    0.107498    1.376030
     14          6           0        2.160673   -0.590140    2.131575
     15          6           0        0.830153   -0.042593    1.866852
     16          6           0        0.946724    0.901457    0.813414
     17          6           0        6.272875   -1.195227   -0.180219
     18          6           0       -0.400288   -0.402715    2.603542
     19          6           0        6.600808   -0.840581   -1.471438
     20          6           0        0.079325    1.840603    0.168822
     21          6           0       -1.181214    1.835857   -0.176035
     22          6           0        5.322911   -0.601621   -2.226680
     23          6           0       -1.886865    2.909357   -0.892531
     24          6           0        2.605785   -1.566272    3.210777
     25          6           0        7.311232   -1.741531    0.911282
     26          6           0       -3.121584    2.378521   -1.226071
     27          6           0       -0.843483   -1.787558    2.540018
     28          6           0       -3.092876    0.882355   -0.979269
     29          6           0       -1.592980    4.355954   -0.900833
     30          6           0        7.822761   -0.934252   -2.340020
     31          6           0       -1.935063    5.076479    0.417751
     32          6           0       -4.231605    3.076288   -1.989465
     33          6           0       -4.083197   -0.083259   -1.226317
     34          6           0       -2.238103   -1.983228    3.076767
     35          6           0       -3.844173   -1.374814   -1.013089
     36          6           0        9.085422   -0.677051   -1.855758
     37          6           0       -1.343504    6.424904    0.400092
     38          6           0       -4.816047   -2.565233   -1.433060
     39          6           0       -4.018210   -3.666246   -1.146294
     40          6           0       -2.797549   -3.267943   -0.599284
     41          6           0       -6.120385   -2.229770   -2.012323
     42          6           0       -4.355942   -5.076445   -1.347046
     43          6           0       -6.985687   -3.234646   -2.420889
     44          1           0        4.482569   -2.033096    0.245097
     45          1           0        5.219214    0.844904    0.768868
     46          1           0        5.103964   -0.338670    2.119124
     47          1           0        2.801689    1.581617   -0.110802
     48          1           0        3.381750   -0.612964   -1.597043
     49          1           0       -0.327224    0.114956    3.635151
     50          1           0       -1.109216    0.272154    2.237113
     51          1           0        0.677879    2.748563    0.038006
     52          1           0        3.691217   -1.573177    3.420808
     53          1           0        2.134293   -1.407777    4.277623
     54          1           0        2.069217   -2.590860    2.959226
     55          1           0        6.829006   -2.500387    1.782093
     56          1           0        7.675703   -1.085540    1.628286
     57          1           0        7.891017   -2.411151    0.188470
     58          1           0       -0.978896   -2.293908    1.551180
     59          1           0       -0.030083   -2.458868    3.179371
     60          1           0       -1.467111   -0.160477   -0.227602
     61          1           0       -2.089930    4.799025   -1.849180
     62          1           0       -0.434470    4.657568   -0.981276
     63          1           0        7.580733   -1.208521   -3.445099
     64          1           0       -1.641147    4.475306    1.321731
     65          1           0       -2.887965    5.357031    0.650438
     66          1           0       -4.236408    4.203796   -1.769612
     67          1           0       -5.146150    2.750080   -1.419515
     68          1           0       -4.407265    2.970430   -3.186769
     69          1           0       -5.056301    0.226030   -1.664165
     70          1           0        9.199887    0.067385   -0.743171
     71          1           0        9.975351   -0.850543   -2.459589
     72          1           0       -3.441214   -3.080948    3.714073
     73          1           0       -6.468952   -1.270709   -1.988090
     74          1           0       -4.695673   -5.436065   -2.406334
     75          1           0       -3.416618   -5.687329   -0.947130
     76          1           0       -5.218527   -5.426001   -0.735782
     77          1           0       -1.392934    7.993505    1.585960
     78          1           0       -8.047300   -3.054010   -2.785975
     79          1           0       -6.884761   -4.288607   -2.297238
 ---------------------------------------------------------------------

 SCF Done:  E(RB3LYP) =  -1947.87015323     A.U. after   18 cycles

 Excitation energies and oscillator strengths:

 Excited State   1:      Singlet-A      2.1595 eV  574.13 nm  f=0.4015  <S**2>=0.000
     154 ->156         0.18973
     155 ->156         0.67316
 This state for optimization and/or second-order correction.
 Total Energy, E(TD-HF/TD-KS) =  -1947.79079314
 Copying the excited state density for this state as the 1-particle RhoCI density.

 The electronic state is 1-A.
 Alpha  occ. eigenvalues --  -19.19483 -19.16598 -19.14290 -19.10362 -19.10006
 Alpha  occ. eigenvalues --  -19.09215 -14.38186 -14.36747 -14.35920 -14.28026
 Alpha  occ. eigenvalues --  -10.33177 -10.30210 -10.27601 -10.25904 -10.25498
 Alpha  occ. eigenvalues --  -10.25259 -10.24077 -10.23830 -10.23556 -10.23505
 Alpha  occ. eigenvalues --  -10.22637 -10.22591 -10.22530 -10.22214 -10.22067
 Alpha  occ. eigenvalues --  -10.21957 -10.21839 -10.21834 -10.21637 -10.21445
 Alpha  occ. eigenvalues --  -10.21369 -10.21257 -10.20926 -10.20522 -10.20520
 Alpha  occ. eigenvalues --  -10.20508 -10.19939 -10.19936 -10.19471 -10.18775
 Alpha  occ. eigenvalues --  -10.18657 -10.18581 -10.18472  -1.10473  -1.09626
 Alpha  occ. eigenvalues --   -1.02236  -1.01478  -1.00385  -0.98767  -0.98715
 Alpha  occ. eigenvalues --   -0.97428  -0.94746  -0.91529  -0.83829  -0.82508
 Alpha  occ. eigenvalues --   -0.81510  -0.81266  -0.79960  -0.79662  -0.79146
 Alpha  occ. eigenvalues --   -0.77561  -0.76989  -0.75280  -0.74360  -0.72737
 Alpha  occ. eigenvalues --   -0.71386  -0.70352  -0.69320  -0.69076  -0.67917
 Alpha  occ. eigenvalues --   -0.67699  -0.66639  -0.64402  -0.61364  -0.60519
 Alpha  occ. eigenvalues --   -0.60177  -0.59639  -0.58586  -0.57981  -0.57295
 Alpha  occ. eigenvalues --   -0.56538  -0.56200  -0.55595  -0.54347  -0.53289
 Alpha  occ. eigenvalues --   -0.52609  -0.51734  -0.51455  -0.50242  -0.49988
 Alpha  occ. eigenvalues --   -0.49284  -0.48820  -0.48139  -0.47699  -0.47323
 Alpha  occ. eigenvalues --   -0.47129  -0.47006  -0.46843  -0.46534  -0.46234
 Alpha  occ. eigenvalues --   -0.45443  -0.45333  -0.44401  -0.43978  -0.43977
 Alpha  occ. eigenvalues --   -0.43048  -0.43028  -0.42734  -0.42424  -0.42090
 Alpha  occ. eigenvalues --   -0.41748  -0.41545  -0.41245  -0.40917  -0.40845
 Alpha  occ. eigenvalues --   -0.40520  -0.40306  -0.40068  -0.39611  -0.39519
 Alpha  occ. eigenvalues --   -0.39315  -0.39138  -0.39056  -0.38474  -0.37941
 Alpha  occ. eigenvalues --   -0.37824  -0.37746  -0.37466  -0.36966  -0.36356
 Alpha  occ. eigenvalues --   -0.36067  -0.35536  -0.35170  -0.34999  -0.34402
 Alpha  occ. eigenvalues --   -0.34097  -0.33866  -0.33659  -0.31765  -0.31477
 Alpha  occ. eigenvalues --   -0.30570  -0.30471  -0.29826  -0.29156  -0.26737
 Alpha  occ. eigenvalues --   -0.26439  -0.26335  -0.26189  -0.25263  -0.24334
 Alpha  occ. eigenvalues --   -0.24193  -0.23847  -0.23710  -0.21956  -0.19569
 Alpha virt. eigenvalues --   -0.10660  -0.06777  -0.05660  -0.01501  -0.01072
 Alpha virt. eigenvalues --    0.00196   0.00803   0.01904   0.02570   0.02829
 Alpha virt. eigenvalues --    0.03171   0.03723   0.04024   0.04426   0.04522

 Mulliken charges:
               1
     1  O   -0.245638
     2  O   -0.096606
     3  O   -0.262423
     4  O   -0.233226
     5  O   -0.221149
     6  O   -0.233796
     7  N   -0.124459
     8  N   -0.173715
     9  N   -0.015430
    10  N   -0.267705
    11  C    0.118343
    12  C    0.188316
    13  C   -0.042172
    14  C   -0.103407
    15  C   -0.139593
    16  C    0.070925
    17  C   -0.214453
    18  C    0.167340
    19  C   -0.090069
    20  C   -0.088607
    21  C    0.096946
    22  C    0.112481
    23  C   -0.030743
    24  C    0.013738
    25  C    0.028758
    26  C   -0.117930
    27  C   -0.013206
    28  C    0.116044
    29  C    0.002084
    30  C   -0.026974
    31  C    0.047098
    32  C    0.013730
    33  C   -0.127210
    34  C    0.106698
    35  C    0.057744
    36  C   -0.084216
    37  C    0.138758
    38  C    0.075148
    39  C   -0.156619
    40  C    0.164238
    41  C    0.027438
    42  C    0.005719
    43  C   -0.036661
    44  H    0.034503
    45  H    0.009315
    46  H    0.008006
    47  H    0.113058
    48  H    0.143464
    49  H    0.013809
    50  H   -0.039554
    51  H   -0.006171
    52  H    0.015465
    53  H    0.027852
    54  H    0.051764
    55  H    0.013833
    56  H    0.028256
    57  H    0.077902
    58  H    0.078599
    59  H    0.036812
    60  H    0.106380
    61  H    0.043095
    62  H    0.052690
    63  H    0.063916
    64  H    0.058752
    65  H    0.002742
    66  H    0.021242
    67  H    0.030836
    68  H    0.073570
    69  H   -0.019164
    70  H    0.061779
    71  H    0.034841
    72  H    0.128771
    73  H   -0.033515
    74  H    0.036602
    75  H    0.048609
    76  H    0.022580
    77  H    0.208798
    78  H    0.028493
    79  H    0.016532
 Sum of Mulliken charges =   0.00000

 Dipole moment (field-independent basis, Debye):
    X=              0.0867    Y=              4.4547    Z=              3.4932  Tot=              5.6616
 Quadrupole moment (field-independent basis, Debye-Ang):
   XX=           -219.4426   YY=           -245.9573   ZZ=           -262.9205
   XY=             -9.0048   XZ=             34.0761   YZ=              6.4697

 Normal termination of Gaussian 09 at Wed Jul 10 01:49:31 2019.
