 Gaussian 09, Revision D.01,
 Gaussian 09:  ES64L-G09RevD.01 24-Apr-2013

 --------------------------
 # td=(NStates=1) B3LYP/SVP
 --------------------------

 --
 TD
 --
 Symbolic Z-matrix:
 Charge =  0 Multiplicity = 1

                         Standard orientation:
 ---------------------------------------------------------------------
 Center     Atomic      Atomic             Coordinates (Angstroms)
 Number     Number       Type             X           Y           Z
 ---------------------------------------------------------------------
      1          8           0        5.477495    0.181746   -3.255877
      2          8           0       -2.882663   -3.205756    3.083928
      3          8           0       -3.241966   -1.032162    3.237078
      4          8           0       -1.715300    7.176891    1.649590
      5          8           0       -0.634104    6.982213   -0.383873
      6          8           0       -1.857994   -4.109833   -0.114801
      7          7           0        2.356828    0.822779    0.570511
      8          7           0        4.504300   -0.423176   -1.385131
      9          7           0       -1.923612    0.654339   -0.260223
     10          7           0       -2.630953   -1.841328   -0.511449
     11          6           0        4.712548   -1.185607   -0.154428
     12          6           0        4.482007   -0.491241    1.155238
     13          6           0        2.939716   -0.149525    1.270165
     14          6           0        2.068350   -0.810113    2.098088
     15          6           0        0.801832   -0.088746    1.778318
     16          6           0        1.024741    0.805222    0.797979
     17          6           0        6.161093   -1.459980   -0.315433
     18          6           0       -0.583736   -0.381490    2.339142
     19          6           0        6.645107   -0.767279   -1.348653
     20          6           0        0.288203    1.871767    0.167897
     21          6           0       -1.090409    1.821558   -0.208698
     22          6           0        5.455966   -0.232349   -2.122702
     23          6           0       -1.948448    2.997591   -0.679182
     24          6           0        2.241260   -1.841169    3.198267
     25          6           0        6.984529   -2.094826    0.782165
     26          6           0       -3.194957    2.421679   -1.149420
     27          6           0       -1.057981   -1.884756    2.480832
     28          6           0       -3.141573    1.028107   -0.874959
     29          6           0       -1.494413    4.362159   -0.738412
     30          6           0        8.046281   -0.622922   -1.932757
     31          6           0       -1.887581    5.174579    0.492704
     32          6           0       -4.160491    3.102109   -1.945150
     33          6           0       -3.989085    0.010066   -1.301892
     34          6           0       -2.541619   -1.965212    2.843326
     35          6           0       -3.710155   -1.343696   -1.064290
     36          6           0        9.150710   -0.613415   -1.296790
     37          6           0       -1.328812    6.580953    0.528016
     38          6           0       -4.585885   -2.517575   -1.554516
     39          6           0       -4.022922   -3.705034   -1.134618
     40          6           0       -2.681284   -3.241865   -0.544222
     41          6           0       -5.948437   -2.251576   -2.083659
     42          6           0       -4.356181   -5.070758   -1.355068
     43          6           0       -6.818592   -3.106786   -2.585661
     44          1           0        4.027918   -2.113777   -0.063841
     45          1           0        5.035654    0.497011    1.220970
     46          1           0        4.766764   -1.110655    1.870082
     47          1           0        2.692758    1.468142   -0.039116
     48          1           0        3.518857   -0.351659   -1.771889
     49          1           0       -0.677499   -0.062811    3.516132
     50          1           0       -1.512246    0.223699    1.810036
     51          1           0        0.697746    2.904262   -0.097482
     52          1           0        3.380220   -1.866212    3.342720
     53          1           0        1.812444   -1.451350    4.165486
     54          1           0        1.823759   -2.777737    3.024105
     55          1           0        6.428762   -2.743525    1.240926
     56          1           0        7.399664   -1.472013    1.665701
     57          1           0        7.830334   -2.667072    0.344848
     58          1           0       -0.921217   -2.223723    1.494632
     59          1           0       -0.472860   -2.593688    3.350962
     60          1           0       -1.699661   -0.248805    0.001054
     61          1           0       -1.758628    4.823499   -1.752239
     62          1           0       -0.355951    4.301681   -0.726932
     63          1           0        8.046319   -0.274599   -3.072358
     64          1           0       -1.268650    4.717041    1.461525
     65          1           0       -2.996334    5.309471    0.691070
     66          1           0       -4.064142    4.160233   -2.342346
     67          1           0       -5.123569    3.205640   -1.455604
     68          1           0       -4.179303    2.624820   -2.950949
     69          1           0       -4.783218    0.473935   -1.913674
     70          1           0        9.439520   -0.862691   -0.169042
     71          1           0       10.176293   -0.447617   -1.939279
     72          1           0       -3.791974   -3.066945    3.358591
     73          1           0       -6.472017   -1.319699   -2.089125
     74          1           0       -4.333235   -5.444508   -2.467978
     75          1           0       -3.620558   -5.659018   -0.960041
     76          1           0       -5.397969   -5.430563   -0.930179
     77          1           0       -1.158511    8.088358    1.831987
     78          1           0       -7.776178   -2.899902   -2.759086
     79          1           0       -6.781646   -4.241539   -2.763746
 ---------------------------------------------------------------------

 SCF Done:  E(RB3LYP) =  -1947.82366416     A.U. after   17 cycles

 Excitation energies and oscillator strengths:

 Excited State   1:      Singlet-A      2.1644 eV  572.82 nm  f=0.4245  <S**2>=0.000
     154 ->156         0.14873
     155 ->156         0.68604
     155 <-156        -0.11428
 This state for optimization and/or second-order correction.
 Total Energy, E(TD-HF/TD-KS) =  -1947.74412229
 Copying the excited state density for this state as the 1-particle RhoCI density.

 The electronic state is 1-A.
 Alpha  occ. eigenvalues --  -19.20936 -19.17417 -19.13508 -19.11012 -19.10636
 Alpha  occ. eigenvalues --  -19.08056 -14.38061 -14.36372 -14.36300 -14.29801
 Alpha  occ. eigenvalues --  -10.32998 -10.30555 -10.27184 -10.26539 -10.25604
 Alpha  occ. eigenvalues --  -10.25545 -10.25140 -10.23922 -10.23636 -10.23340
 Alpha  occ. eigenvalues --  -10.23142 -10.22937 -10.22475 -10.22086 -10.21740
 Alpha  occ. eigenvalues --  -10.21644 -10.20890 -10.20841 -10.20596 -10.20473
 Alpha  occ. eigenvalues --  -10.20334 -10.20214 -10.20135 -10.19853 -10.19715
 Alpha  occ. eigenvalues --  -10.19680 -10.19520 -10.19501 -10.19484 -10.19411
 Alpha  occ. eigenvalues --  -10.19256 -10.18410 -10.18071  -1.10543  -1.10243
 Alpha  occ. eigenvalues --   -1.04382  -1.01838  -1.01418  -0.98994  -0.98433
 Alpha  occ. eigenvalues --   -0.96556  -0.96169  -0.92058  -0.83635  -0.83465
 Alpha  occ. eigenvalues --   -0.81854  -0.81364  -0.80383  -0.80035  -0.78387
 Alpha  occ. eigenvalues --   -0.77377  -0.76016  -0.75527  -0.75260  -0.73443
 Alpha  occ. eigenvalues --   -0.72296  -0.72003  -0.70346  -0.69725  -0.69173
 Alpha  occ. eigenvalues --   -0.66907  -0.66327  -0.64645  -0.60876  -0.60635
 Alpha  occ. eigenvalues --   -0.60159  -0.59013  -0.58914  -0.58324  -0.57804
 Alpha  occ. eigenvalues --   -0.57176  -0.55206  -0.54904  -0.54012  -0.52977
 Alpha  occ. eigenvalues --   -0.52532  -0.52213  -0.51071  -0.50388  -0.50184
 Alpha  occ. eigenvalues --   -0.49319  -0.48955  -0.48518  -0.48210  -0.47749
 Alpha  occ. eigenvalues --   -0.47444  -0.47018  -0.46907  -0.46162  -0.46089
 Alpha  occ. eigenvalues --   -0.45413  -0.45331  -0.45105  -0.44562  -0.44124
 Alpha  occ. eigenvalues --   -0.43873  -0.43537  -0.43080  -0.42667  -0.42566
 Alpha  occ. eigenvalues --   -0.42457  -0.42156  -0.41930  -0.41550  -0.41511
 Alpha  occ. eigenvalues --   -0.40857  -0.40729  -0.40611  -0.40165  -0.39912
 Alpha  occ. eigenvalues --   -0.39458  -0.39218  -0.39015  -0.38477  -0.38312
 Alpha  occ. eigenvalues --   -0.37946  -0.37809  -0.37451  -0.37248  -0.36919
 Alpha  occ. eigenvalues --   -0.36104  -0.35790  -0.34460  -0.33811  -0.33696
 Alpha  occ. eigenvalues --   -0.33475  -0.32896  -0.32494  -0.32006  -0.31739
 Alpha  occ. eigenvalues --   -0.31005  -0.30604  -0.28973  -0.28621  -0.27124
 Alpha  occ. eigenvalues --   -0.26843  -0.26680  -0.25546  -0.25042  -0.24609
 Alpha  occ. eigenvalues --   -0.24515  -0.24172  -0.23743  -0.22449  -0.19706
 Alpha virt. eigenvalues --   -0.11325  -0.06592  -0.04339  -0.00765  -0.00286
 Alpha virt. eigenvalues --    0.00349   0.00626   0.01643   0.02798   0.03130
 Alpha virt. eigenvalues --    0.03497   0.03796   0.04438   0.04714   0.05070

 Mulliken charges:
               1
     1  O   -0.234125
     2  O   -0.120343
     3  O   -0.271999
     4  O   -0.224764
     5  O   -0.225805
     6  O   -0.255919
     7  N    0.038926
     8  N   -0.043553
     9  N   -0.110467
    10  N   -0.262205
    11  C    0.038037
    12  C    0.310660
    13  C   -0.159897
    14  C   -0.120252
    15  C   -0.032063
    16  C    0.058468
    17  C   -0.185787
    18  C   -0.098262
    19  C   -0.072746
    20  C   -0.084986
    21  C    0.058877
    22  C    0.022972
    23  C   -0.069093
    24  C    0.109017
    25  C    0.136233
    26  C   -0.080286
    27  C   -0.033088
    28  C    0.105906
    29  C    0.087927
    30  C    0.017498
    31  C   -0.068539
    32  C    0.043090
    33  C   -0.111605
    34  C    0.136129
    35  C    0.129504
    36  C   -0.115081
    37  C    0.142120
    38  C    0.067674
    39  C   -0.161093
    40  C    0.184688
    41  C    0.003176
    42  C    0.076523
    43  C   -0.044416
    44  H    0.036632
    45  H    0.003427
    46  H   -0.075314
    47  H    0.074284
    48  H    0.135448
    49  H    0.021631
    50  H    0.072330
    51  H    0.009185
    52  H    0.006747
    53  H    0.032009
    54  H    0.032245
    55  H   -0.047580
    56  H    0.042415
    57  H    0.032974
    58  H    0.044401
    59  H    0.066409
    60  H    0.115265
    61  H    0.042567
    62  H    0.010615
    63  H    0.055879
    64  H    0.067834
    65  H    0.057422
    66  H    0.015456
    67  H    0.028517
    68  H    0.040541
    69  H   -0.019489
    70  H    0.043743
    71  H    0.039061
    72  H    0.157048
    73  H   -0.016791
    74  H    0.037698
    75  H   -0.010923
    76  H    0.037193
    77  H    0.239181
    78  H   -0.022814
    79  H    0.013704
 Sum of Mulliken charges =   0.00000

 Dipole moment (field-independent basis, Debye):
    X=             -0.5904    Y=              4.1196    Z=              3.6094  Tot=              5.5089
 Quadrupole moment (field-independent basis, Debye-Ang):
   XX=           -233.1531   YY=           -236.3833   ZZ=           -264.4310
   XY=            -14.9495   XZ=             37.9712   YZ=              6.9958

 Normal termination of Gaussian 09 at Sun Jul  7 17:50:48 2019.
