 Gaussian 09, Revision D.01,
 Gaussian 09:  ES64L-G09RevD.01 24-Apr-2013

 --------------------------
 # td=(NStates=1) B3LYP/SVP
 --------------------------

 --
 TD
 --
 Symbolic Z-matrix:
 Charge =  0 Multiplicity = 1

                         Standard orientation:
 ---------------------------------------------------------------------
 Center     Atomic      Atomic             Coordinates (Angstroms)
 Number     Number       Type             X           Y           Z
 ---------------------------------------------------------------------
      1          8           0        5.439634   -0.275357   -3.287742
      2          8           0       -2.922282   -3.199410    3.072604
      3          8           0       -3.199342   -0.997489    3.419594
      4          8           0       -1.804798    7.209778    1.461538
      5          8           0       -0.490525    6.948609   -0.437822
      6          8           0       -1.840563   -4.043391   -0.322027
      7          7           0        2.365104    0.983030    0.511846
      8          7           0        4.500737   -0.570534   -1.267519
      9          7           0       -1.950715    0.673949   -0.474084
     10          7           0       -2.706254   -1.846677   -0.473278
     11          6           0        4.966885   -1.123623    0.042433
     12          6           0        4.406053   -0.166518    1.209019
     13          6           0        2.972106    0.078132    1.238226
     14          6           0        2.036437   -0.732116    1.942421
     15          6           0        0.749055   -0.171103    1.723282
     16          6           0        0.992201    0.934771    0.758699
     17          6           0        6.393100   -1.314136   -0.132373
     18          6           0       -0.568990   -0.447136    2.445601
     19          6           0        6.767737   -0.876165   -1.410698
     20          6           0        0.125036    1.885072    0.228585
     21          6           0       -1.179756    1.803606   -0.287678
     22          6           0        5.551959   -0.473151   -2.155144
     23          6           0       -1.974876    3.022022   -0.831744
     24          6           0        2.364215   -1.874549    2.838773
     25          6           0        7.306688   -1.843181    0.968932
     26          6           0       -3.151892    2.376533   -1.212261
     27          6           0       -1.073315   -1.799401    2.582306
     28          6           0       -3.066948    0.898306   -1.090966
     29          6           0       -1.619824    4.329770   -0.828577
     30          6           0        8.097640   -0.814685   -1.995303
     31          6           0       -1.741155    5.113351    0.598809
     32          6           0       -4.289164    3.100831   -1.910971
     33          6           0       -4.152077   -0.014850   -1.237528
     34          6           0       -2.516361   -1.881793    3.104003
     35          6           0       -3.870372   -1.309172   -1.032320
     36          6           0        9.310014   -0.681954   -1.367162
     37          6           0       -1.274497    6.539482    0.373550
     38          6           0       -4.790564   -2.443240   -1.344503
     39          6           0       -4.177014   -3.699614   -1.092508
     40          6           0       -2.775530   -3.262358   -0.581691
     41          6           0       -6.142719   -2.290972   -1.964406
     42          6           0       -4.366022   -5.076315   -1.286090
     43          6           0       -6.897286   -3.221952   -2.494821
     44          1           0        4.378949   -2.061420    0.276366
     45          1           0        4.952055    0.788943    1.001983
     46          1           0        4.580545   -0.597068    2.079934
     47          1           0        2.945142    1.556859   -0.139158
     48          1           0        3.497171   -0.608615   -1.642076
     49          1           0       -0.423920    0.170805    3.411917
     50          1           0       -1.151878    0.340065    2.102009
     51          1           0        0.531854    2.961034   -0.025424
     52          1           0        3.441236   -1.925294    3.172970
     53          1           0        1.874853   -1.672504    3.948712
     54          1           0        1.996588   -2.722999    2.326612
     55          1           0        6.782563   -2.799251    1.401726
     56          1           0        7.376243   -0.984416    1.912340
     57          1           0        8.161604   -2.241166    0.602520
     58          1           0       -1.360139   -2.113749    1.587406
     59          1           0       -0.541843   -2.483731    3.130116
     60          1           0       -1.793286   -0.433508   -0.160858
     61          1           0       -2.264327    4.843583   -1.632780
     62          1           0       -0.572406    4.576050   -1.179392
     63          1           0        7.964343   -0.754243   -3.113796
     64          1           0       -0.803802    4.637020    1.143324
     65          1           0       -2.665789    5.287340    1.242724
     66          1           0       -3.993805    4.081513   -2.038104
     67          1           0       -5.096183    3.103942   -1.260748
     68          1           0       -4.356310    2.658721   -2.696271
     69          1           0       -5.128292    0.364586   -1.637663
     70          1           0        9.358255   -0.793913   -0.288627
     71          1           0       10.337328   -0.465490   -1.763327
     72          1           0       -3.818502   -3.132963    3.268352
     73          1           0       -6.537646   -1.186323   -1.692203
     74          1           0       -4.289396   -5.474817   -2.246844
     75          1           0       -3.577317   -5.494350   -0.669690
     76          1           0       -5.340118   -5.539907   -0.670202
     77          1           0       -1.213591    8.137093    1.616166
     78          1           0       -7.909955   -3.025047   -2.945856
     79          1           0       -6.723898   -4.200448   -2.537463
 ---------------------------------------------------------------------

 SCF Done:  E(RB3LYP) =  -1947.80234072     A.U. after   18 cycles

 Excitation energies and oscillator strengths:

 Excited State   1:      Singlet-A      2.1166 eV  585.76 nm  f=0.4357  <S**2>=0.000
     154 ->156         0.23147
     155 ->156         0.66606
     155 <-156        -0.10104
 This state for optimization and/or second-order correction.
 Total Energy, E(TD-HF/TD-KS) =  -1947.72455609
 Copying the excited state density for this state as the 1-particle RhoCI density.

 The electronic state is 1-A.
 Alpha  occ. eigenvalues --  -19.19773 -19.15941 -19.14544 -19.12209 -19.10245
 Alpha  occ. eigenvalues --  -19.09213 -14.39948 -14.36789 -14.35302 -14.28952
 Alpha  occ. eigenvalues --  -10.33017 -10.30489 -10.28043 -10.25719 -10.25618
 Alpha  occ. eigenvalues --  -10.24543 -10.24382 -10.23878 -10.23243 -10.23179
 Alpha  occ. eigenvalues --  -10.22918 -10.22815 -10.22695 -10.22625 -10.21901
 Alpha  occ. eigenvalues --  -10.21261 -10.21156 -10.21050 -10.20984 -10.20796
 Alpha  occ. eigenvalues --  -10.20768 -10.20593 -10.20249 -10.20179 -10.19816
 Alpha  occ. eigenvalues --  -10.19470 -10.19427 -10.19157 -10.19085 -10.18159
 Alpha  occ. eigenvalues --  -10.17958 -10.17821 -10.16725  -1.09739  -1.08959
 Alpha  occ. eigenvalues --   -1.06013  -1.01446  -1.01388  -1.00479  -0.99118
 Alpha  occ. eigenvalues --   -0.98604  -0.93798  -0.89342  -0.83611  -0.82469
 Alpha  occ. eigenvalues --   -0.81990  -0.81811  -0.79975  -0.79075  -0.78086
 Alpha  occ. eigenvalues --   -0.77691  -0.77158  -0.75808  -0.74939  -0.73434
 Alpha  occ. eigenvalues --   -0.71824  -0.71473  -0.69945  -0.68964  -0.68624
 Alpha  occ. eigenvalues --   -0.68299  -0.66898  -0.63384  -0.61444  -0.59891
 Alpha  occ. eigenvalues --   -0.59351  -0.58850  -0.57849  -0.57611  -0.57154
 Alpha  occ. eigenvalues --   -0.55787  -0.55556  -0.55220  -0.53975  -0.53202
 Alpha  occ. eigenvalues --   -0.51465  -0.51283  -0.50707  -0.50220  -0.49817
 Alpha  occ. eigenvalues --   -0.49555  -0.48909  -0.48464  -0.48217  -0.47880
 Alpha  occ. eigenvalues --   -0.47529  -0.47385  -0.47098  -0.46676  -0.46438
 Alpha  occ. eigenvalues --   -0.46081  -0.44916  -0.44618  -0.44176  -0.44022
 Alpha  occ. eigenvalues --   -0.43814  -0.43617  -0.43378  -0.43325  -0.42892
 Alpha  occ. eigenvalues --   -0.42648  -0.42528  -0.42317  -0.41975  -0.41774
 Alpha  occ. eigenvalues --   -0.41560  -0.41396  -0.41178  -0.40486  -0.40296
 Alpha  occ. eigenvalues --   -0.39941  -0.39733  -0.39697  -0.39236  -0.39075
 Alpha  occ. eigenvalues --   -0.38323  -0.37913  -0.37672  -0.37354  -0.37083
 Alpha  occ. eigenvalues --   -0.36873  -0.36296  -0.35173  -0.34553  -0.33917
 Alpha  occ. eigenvalues --   -0.33654  -0.33431  -0.33260  -0.31927  -0.31825
 Alpha  occ. eigenvalues --   -0.31485  -0.30436  -0.29564  -0.28430  -0.27194
 Alpha  occ. eigenvalues --   -0.26841  -0.26543  -0.26068  -0.25221  -0.24949
 Alpha  occ. eigenvalues --   -0.24152  -0.23311  -0.22989  -0.21274  -0.18873
 Alpha virt. eigenvalues --   -0.10441  -0.06933  -0.05734  -0.01909  -0.00210
 Alpha virt. eigenvalues --    0.00524   0.00771   0.01806   0.02511   0.02900
 Alpha virt. eigenvalues --    0.03233   0.03614   0.03926   0.04597   0.04972

 Mulliken charges:
               1
     1  O   -0.148913
     2  O   -0.174530
     3  O   -0.168407
     4  O   -0.282425
     5  O   -0.202973
     6  O   -0.248916
     7  N   -0.012866
     8  N   -0.268373
     9  N   -0.073820
    10  N   -0.381943
    11  C    0.083782
    12  C    0.284340
    13  C   -0.166750
    14  C   -0.154743
    15  C   -0.103022
    16  C    0.088630
    17  C   -0.130890
    18  C    0.148802
    19  C   -0.096177
    20  C   -0.133144
    21  C    0.031374
    22  C    0.129825
    23  C    0.049082
    24  C    0.053803
    25  C    0.070025
    26  C   -0.260016
    27  C    0.132088
    28  C    0.070064
    29  C   -0.040976
    30  C   -0.008014
    31  C   -0.039916
    32  C    0.332750
    33  C   -0.163712
    34  C    0.067392
    35  C    0.204948
    36  C   -0.047647
    37  C    0.158432
    38  C   -0.013165
    39  C   -0.168052
    40  C    0.175286
    41  C   -0.007434
    42  C    0.066572
    43  C   -0.001856
    44  H    0.022760
    45  H   -0.012447
    46  H   -0.060624
    47  H    0.136627
    48  H    0.154612
    49  H    0.003123
    50  H   -0.053864
    51  H    0.006130
    52  H    0.012090
    53  H    0.039925
    54  H    0.052504
    55  H    0.027469
    56  H    0.070166
    57  H    0.009200
    58  H    0.057348
    59  H    0.006649
    60  H    0.224654
    61  H    0.029028
    62  H    0.040310
    63  H    0.022455
    64  H    0.063689
    65  H    0.070537
    66  H   -0.041948
    67  H    0.001271
    68  H   -0.052802
    69  H    0.002003
    70  H    0.011753
    71  H    0.045013
    72  H    0.139301
    73  H    0.018773
    74  H    0.029918
    75  H    0.020254
    76  H    0.027619
    77  H    0.234097
    78  H    0.023590
    79  H   -0.029694
 Sum of Mulliken charges =   0.00000

 Dipole moment (field-independent basis, Debye):
    X=              2.3243    Y=              4.2241    Z=              4.0353  Tot=              6.2872
 Quadrupole moment (field-independent basis, Debye-Ang):
   XX=           -224.6271   YY=           -243.9665   ZZ=           -264.1972
   XY=             -9.3041   XZ=             30.9703   YZ=              4.5137

 Normal termination of Gaussian 09 at Mon Jul  8 04:51:55 2019.
