 Gaussian 09, Revision D.01,
 Gaussian 09:  ES64L-G09RevD.01 24-Apr-2013

 --------------------------
 # td=(NStates=1) B3LYP/SVP
 --------------------------

 --
 TD
 --
 Symbolic Z-matrix:
 Charge =  0 Multiplicity = 1

                         Standard orientation:
 ---------------------------------------------------------------------
 Center     Atomic      Atomic             Coordinates (Angstroms)
 Number     Number       Type             X           Y           Z
 ---------------------------------------------------------------------
      1          8           0        5.469035   -0.190661   -3.386797
      2          8           0       -2.772550   -3.216939    3.370664
      3          8           0       -3.098845   -0.969346    3.620250
      4          8           0       -1.737314    7.300144    1.387629
      5          8           0       -0.569885    6.994463   -0.437685
      6          8           0       -2.052362   -4.058350   -0.074319
      7          7           0        2.368494    0.794414    0.549213
      8          7           0        4.486152   -0.612055   -1.271031
      9          7           0       -1.948322    0.786568   -0.363696
     10          7           0       -2.715384   -1.818233   -0.639055
     11          6           0        4.987367   -1.083023    0.018946
     12          6           0        4.444170   -0.375173    1.226797
     13          6           0        2.974202   -0.104500    1.319297
     14          6           0        1.954636   -0.788565    1.954937
     15          6           0        0.676823   -0.128139    1.705917
     16          6           0        1.055742    0.910552    0.745944
     17          6           0        6.407987   -1.293306   -0.226745
     18          6           0       -0.530804   -0.379794    2.476649
     19          6           0        6.797961   -0.893859   -1.469601
     20          6           0        0.189591    1.949423    0.265221
     21          6           0       -1.095496    1.832172   -0.212012
     22          6           0        5.532326   -0.455630   -2.190888
     23          6           0       -1.979644    2.949615   -0.711801
     24          6           0        2.307606   -1.765103    2.977577
     25          6           0        7.277916   -1.825274    0.876776
     26          6           0       -3.152308    2.453476   -1.216206
     27          6           0       -1.079447   -1.766226    2.490596
     28          6           0       -3.111441    0.990533   -0.939793
     29          6           0       -1.626082    4.353241   -0.809003
     30          6           0        8.071211   -0.724474   -2.104130
     31          6           0       -1.768528    5.096560    0.581203
     32          6           0       -4.313620    3.115982   -1.748054
     33          6           0       -4.053740   -0.020069   -1.375962
     34          6           0       -2.431400   -1.914428    3.228749
     35          6           0       -3.833536   -1.376969   -1.226327
     36          6           0        9.221915   -0.603815   -1.413815
     37          6           0       -1.275003    6.562358    0.428816
     38          6           0       -4.777380   -2.527651   -1.562830
     39          6           0       -4.048968   -3.633385   -1.257187
     40          6           0       -2.898779   -3.253456   -0.564886
     41          6           0       -6.118176   -2.296891   -2.081147
     42          6           0       -4.530645   -5.132209   -1.241175
     43          6           0       -6.927788   -3.212993   -2.698923
     44          1           0        4.531351   -2.186030    0.122981
     45          1           0        5.207439    0.466502    1.270739
     46          1           0        4.785562   -1.091794    2.095507
     47          1           0        2.940100    1.318803    0.008161
     48          1           0        3.590669   -0.585314   -1.706953
     49          1           0       -0.418095   -0.125557    3.519422
     50          1           0       -1.240709    0.333297    2.099535
     51          1           0        0.439272    2.935260    0.199919
     52          1           0        3.379731   -1.913682    3.046393
     53          1           0        1.896465   -1.288529    4.049101
     54          1           0        2.027837   -2.945788    2.821650
     55          1           0        6.712055   -2.659209    1.414648
     56          1           0        7.652686   -1.060409    1.469183
     57          1           0        8.177904   -2.301747    0.758765
     58          1           0       -1.133369   -2.080470    1.338930
     59          1           0       -0.418413   -2.355951    2.984714
     60          1           0       -1.817635   -0.306615   -0.050205
     61          1           0       -2.208697    4.813071   -1.605849
     62          1           0       -0.612602    4.497812   -1.375870
     63          1           0        8.082956   -0.621464   -3.155622
     64          1           0       -1.185024    4.660879    1.410745
     65          1           0       -2.876091    4.911202    1.074953
     66          1           0       -4.303020    4.195844   -1.702972
     67          1           0       -5.475308    2.851395   -1.368831
     68          1           0       -4.371288    2.670535   -2.845262
     69          1           0       -5.028897    0.203237   -1.900267
     70          1           0        9.423245   -0.749249   -0.340725
     71          1           0       10.145466   -0.403678   -2.054361
     72          1           0       -3.664069   -3.152228    3.808017
     73          1           0       -6.584090   -1.156561   -2.098370
     74          1           0       -3.972274   -5.844990   -2.267230
     75          1           0       -3.990516   -5.593656   -0.233633
     76          1           0       -5.770733   -5.134353   -1.218738
     77          1           0       -1.140411    8.043431    1.329008
     78          1           0       -7.817990   -3.004473   -3.088939
     79          1           0       -6.284735   -4.222748   -3.056146
 ---------------------------------------------------------------------

 SCF Done:  E(RB3LYP) =  -1947.82826494     A.U. after   17 cycles

 Excitation energies and oscillator strengths:

 Excited State   1:      Singlet-A      2.0550 eV  603.33 nm  f=0.3756  <S**2>=0.000
     153 ->156        -0.12586
     154 ->156         0.11257
     155 ->156         0.68314
 This state for optimization and/or second-order correction.
 Total Energy, E(TD-HF/TD-KS) =  -1947.75274498
 Copying the excited state density for this state as the 1-particle RhoCI density.

 The electronic state is 1-A.
 Alpha  occ. eigenvalues --  -19.19750 -19.17759 -19.13593 -19.11834 -19.10080
 Alpha  occ. eigenvalues --  -19.10002 -14.38612 -14.37298 -14.35405 -14.29340
 Alpha  occ. eigenvalues --  -10.32963 -10.31089 -10.28325 -10.26024 -10.25822
 Alpha  occ. eigenvalues --  -10.25560 -10.24933 -10.23831 -10.23232 -10.23229
 Alpha  occ. eigenvalues --  -10.22955 -10.22937 -10.22708 -10.22403 -10.22108
 Alpha  occ. eigenvalues --  -10.21938 -10.21916 -10.21226 -10.21150 -10.20941
 Alpha  occ. eigenvalues --  -10.20848 -10.20794 -10.20717 -10.20266 -10.20134
 Alpha  occ. eigenvalues --  -10.20087 -10.19907 -10.19808 -10.19738 -10.19700
 Alpha  occ. eigenvalues --  -10.18635 -10.18253 -10.17993  -1.13879  -1.08299
 Alpha  occ. eigenvalues --   -1.02578  -1.01879  -1.01475  -0.99788  -0.99281
 Alpha  occ. eigenvalues --   -0.98904  -0.94243  -0.91592  -0.83153  -0.82798
 Alpha  occ. eigenvalues --   -0.82627  -0.81961  -0.80525  -0.79954  -0.78062
 Alpha  occ. eigenvalues --   -0.77393  -0.77016  -0.76187  -0.74392  -0.72790
 Alpha  occ. eigenvalues --   -0.72376  -0.71418  -0.69547  -0.68222  -0.68100
 Alpha  occ. eigenvalues --   -0.67683  -0.66166  -0.64391  -0.61798  -0.61290
 Alpha  occ. eigenvalues --   -0.60629  -0.59518  -0.58563  -0.58048  -0.57393
 Alpha  occ. eigenvalues --   -0.56241  -0.55543  -0.55046  -0.54901  -0.54169
 Alpha  occ. eigenvalues --   -0.52803  -0.51365  -0.51194  -0.50788  -0.50254
 Alpha  occ. eigenvalues --   -0.49616  -0.49154  -0.48686  -0.47788  -0.47732
 Alpha  occ. eigenvalues --   -0.47560  -0.47349  -0.47233  -0.46347  -0.45859
 Alpha  occ. eigenvalues --   -0.45490  -0.45308  -0.45038  -0.44699  -0.44563
 Alpha  occ. eigenvalues --   -0.44100  -0.43243  -0.42977  -0.42544  -0.42457
 Alpha  occ. eigenvalues --   -0.42242  -0.41835  -0.41775  -0.41646  -0.41217
 Alpha  occ. eigenvalues --   -0.40884  -0.40724  -0.40534  -0.39746  -0.39306
 Alpha  occ. eigenvalues --   -0.38938  -0.38691  -0.38461  -0.38263  -0.37791
 Alpha  occ. eigenvalues --   -0.37690  -0.37554  -0.36856  -0.36550  -0.36353
 Alpha  occ. eigenvalues --   -0.36041  -0.35173  -0.35024  -0.34566  -0.34072
 Alpha  occ. eigenvalues --   -0.33917  -0.33826  -0.33003  -0.32681  -0.31952
 Alpha  occ. eigenvalues --   -0.31427  -0.31067  -0.29734  -0.28825  -0.27720
 Alpha  occ. eigenvalues --   -0.27100  -0.26222  -0.25442  -0.25288  -0.24298
 Alpha  occ. eigenvalues --   -0.24155  -0.23955  -0.23715  -0.22597  -0.19586
 Alpha virt. eigenvalues --   -0.11175  -0.07159  -0.05938  -0.01229  -0.00267
 Alpha virt. eigenvalues --    0.00815   0.01045   0.01416   0.02628   0.02882
 Alpha virt. eigenvalues --    0.03183   0.04234   0.04505   0.04552   0.05283

 Mulliken charges:
               1
     1  O   -0.234396
     2  O   -0.176077
     3  O   -0.245102
     4  O   -0.108374
     5  O   -0.219549
     6  O   -0.255087
     7  N    0.082681
     8  N   -0.220994
     9  N   -0.073598
    10  N   -0.323194
    11  C    0.093137
    12  C    0.123975
    13  C   -0.079330
    14  C   -0.105316
    15  C   -0.098070
    16  C    0.072290
    17  C   -0.165842
    18  C    0.144007
    19  C   -0.026103
    20  C   -0.040974
    21  C    0.077810
    22  C    0.135217
    23  C   -0.100137
    24  C    0.004229
    25  C    0.125431
    26  C   -0.066255
    27  C   -0.016077
    28  C    0.092864
    29  C    0.038563
    30  C    0.017412
    31  C   -0.059679
    32  C   -0.002948
    33  C   -0.104599
    34  C    0.142053
    35  C    0.052685
    36  C   -0.049378
    37  C    0.116306
    38  C    0.081914
    39  C   -0.118377
    40  C    0.176760
    41  C   -0.089772
    42  C   -0.096259
    43  C   -0.020540
    44  H    0.028464
    45  H    0.003274
    46  H    0.025398
    47  H    0.066538
    48  H    0.125043
    49  H   -0.009053
    50  H   -0.020205
    51  H   -0.058267
    52  H   -0.020564
    53  H    0.043173
    54  H    0.049477
    55  H    0.026172
    56  H    0.010383
    57  H   -0.008278
    58  H    0.106049
    59  H   -0.010255
    60  H    0.213572
    61  H    0.002770
    62  H    0.041627
    63  H   -0.002853
    64  H    0.044383
    65  H    0.063565
    66  H    0.022195
    67  H    0.052947
    68  H    0.046823
    69  H   -0.020079
    70  H    0.017939
    71  H    0.033764
    72  H    0.182559
    73  H    0.039799
    74  H    0.060203
    75  H    0.077113
    76  H    0.063568
    77  H    0.161637
    78  H   -0.010228
    79  H    0.070042
 Sum of Mulliken charges =   0.00000

 Dipole moment (field-independent basis, Debye):
    X=              0.5141    Y=              3.5058    Z=              3.2425  Tot=              4.8030
 Quadrupole moment (field-independent basis, Debye-Ang):
   XX=           -213.8409   YY=           -251.3713   ZZ=           -265.1230
   XY=            -10.1673   XZ=             36.5998   YZ=              4.4093

 Normal termination of Gaussian 09 at Mon Jul  8 15:22:05 2019.
