 Gaussian 09, Revision D.01,
 Gaussian 09:  ES64L-G09RevD.01 24-Apr-2013

 --------------------------
 # td=(NStates=1) B3LYP/SVP
 --------------------------

 --
 TD
 --
 Symbolic Z-matrix:
 Charge =  0 Multiplicity = 1

                         Standard orientation:
 ---------------------------------------------------------------------
 Center     Atomic      Atomic             Coordinates (Angstroms)
 Number     Number       Type             X           Y           Z
 ---------------------------------------------------------------------
      1          8           0        5.238606   -0.546976   -3.353642
      2          8           0       -2.863413   -3.125814    3.230613
      3          8           0       -3.111763   -0.881251    3.210140
      4          8           0       -1.885926    7.358876    1.327093
      5          8           0       -0.225143    6.907867   -0.378294
      6          8           0       -1.929417   -4.039963   -0.034395
      7          7           0        2.299041    0.945673    0.519150
      8          7           0        4.405392   -0.755897   -1.230713
      9          7           0       -1.975802    0.594449   -0.430971
     10          7           0       -2.750624   -1.866345   -0.493760
     11          6           0        4.800088   -1.228008    0.102307
     12          6           0        4.470749   -0.203025    1.204949
     13          6           0        2.964617    0.052782    1.400919
     14          6           0        2.118121   -0.588372    2.150567
     15          6           0        0.866476   -0.100560    1.829013
     16          6           0        0.936319    0.884858    0.751409
     17          6           0        6.333775   -1.189863   -0.172659
     18          6           0       -0.529742   -0.274677    2.441639
     19          6           0        6.668517   -0.964312   -1.405781
     20          6           0        0.115230    1.828934    0.163237
     21          6           0       -1.193024    1.726436   -0.307467
     22          6           0        5.356874   -0.712327   -2.202257
     23          6           0       -2.011840    2.846802   -0.766598
     24          6           0        2.444894   -1.642274    3.185833
     25          6           0        7.377610   -1.617944    0.895639
     26          6           0       -3.132655    2.429825   -1.154429
     27          6           0       -1.049652   -1.799241    2.516654
     28          6           0       -3.179613    0.926337   -1.009341
     29          6           0       -1.417368    4.293793   -0.815876
     30          6           0        7.950996   -0.797063   -2.106077
     31          6           0       -1.873591    5.185703    0.383121
     32          6           0       -4.292859    3.182436   -1.759297
     33          6           0       -4.040007   -0.074419   -1.418592
     34          6           0       -2.439397   -1.823193    2.971648
     35          6           0       -3.735237   -1.414486   -1.156286
     36          6           0        9.200969   -0.491579   -1.640261
     37          6           0       -1.226037    6.618438    0.308327
     38          6           0       -4.679726   -2.552058   -1.522589
     39          6           0       -4.084634   -3.637414   -1.085031
     40          6           0       -2.740456   -3.234739   -0.452661
     41          6           0       -6.011805   -2.280694   -2.105235
     42          6           0       -4.458000   -5.145069   -1.107228
     43          6           0       -6.866141   -3.344392   -2.457506
     44          1           0        4.445755   -2.279984    0.366061
     45          1           0        5.198667    0.767111    1.098446
     46          1           0        4.641185   -0.673324    2.144120
     47          1           0        2.811560    1.180265   -0.270613
     48          1           0        3.415176   -0.741175   -1.662976
     49          1           0       -0.511136    0.176394    3.582348
     50          1           0       -1.243951    0.302868    1.884226
     51          1           0        0.434248    2.988553   -0.018204
     52          1           0        3.389648   -1.550139    3.703977
     53          1           0        1.796715   -1.724105    4.138124
     54          1           0        2.432739   -2.606405    2.635576
     55          1           0        6.887104   -2.356969    1.660573
     56          1           0        7.762369   -1.013161    1.600740
     57          1           0        8.159713   -2.044990    0.254167
     58          1           0       -1.202449   -2.176229    1.594686
     59          1           0       -0.428038   -2.743952    3.099429
     60          1           0       -1.719757   -0.426886   -0.229310
     61          1           0       -2.125274    4.749613   -1.692382
     62          1           0       -0.380289    4.376178   -0.836873
     63          1           0        8.055913   -1.141024   -3.175145
     64          1           0       -1.655337    4.737085    1.429774
     65          1           0       -2.964316    5.351528    0.388821
     66          1           0       -3.839022    4.186870   -1.876061
     67          1           0       -5.292603    3.053692   -1.225500
     68          1           0       -4.690767    2.784470   -2.894514
     69          1           0       -4.850764    0.387545   -1.868072
     70          1           0        9.388485   -0.517850   -0.598690
     71          1           0       10.215096   -0.308130   -2.105887
     72          1           0       -3.656712   -3.124574    3.753019
     73          1           0       -6.454731   -1.135752   -2.176506
     74          1           0       -4.566954   -5.407536   -2.177082
     75          1           0       -3.582539   -5.726341   -0.665168
     76          1           0       -5.431316   -5.169532   -0.369805
     77          1           0       -1.742662    8.365324    1.130332
     78          1           0       -7.834484   -3.263337   -2.637248
     79          1           0       -6.351584   -4.246987   -2.503005
 ---------------------------------------------------------------------

 SCF Done:  E(RB3LYP) =  -1947.81841652     A.U. after   16 cycles

 Excitation energies and oscillator strengths:

 Excited State   1:      Singlet-A      2.2726 eV  545.57 nm  f=0.4683  <S**2>=0.000
     155 ->156         0.70008
 This state for optimization and/or second-order correction.
 Total Energy, E(TD-HF/TD-KS) =  -1947.73490154
 Copying the excited state density for this state as the 1-particle RhoCI density.

 The electronic state is 1-A.
 Alpha  occ. eigenvalues --  -19.19803 -19.15435 -19.15128 -19.11310 -19.11298
 Alpha  occ. eigenvalues --  -19.10745 -14.36855 -14.36143 -14.35841 -14.29408
 Alpha  occ. eigenvalues --  -10.34410 -10.29973 -10.28379 -10.27082 -10.26293
 Alpha  occ. eigenvalues --  -10.24779 -10.23907 -10.23584 -10.22779 -10.22594
 Alpha  occ. eigenvalues --  -10.22541 -10.22494 -10.22409 -10.22315 -10.22119
 Alpha  occ. eigenvalues --  -10.21754 -10.21709 -10.21052 -10.20721 -10.20570
 Alpha  occ. eigenvalues --  -10.20555 -10.20544 -10.20238 -10.19947 -10.19934
 Alpha  occ. eigenvalues --  -10.19750 -10.19748 -10.19302 -10.19142 -10.18790
 Alpha  occ. eigenvalues --  -10.18562 -10.18472 -10.18278  -1.07558  -1.07199
 Alpha  occ. eigenvalues --   -1.05263  -1.02233  -1.00766  -0.99389  -0.98387
 Alpha  occ. eigenvalues --   -0.97828  -0.94594  -0.94502  -0.83650  -0.82361
 Alpha  occ. eigenvalues --   -0.81895  -0.81249  -0.79863  -0.79402  -0.77869
 Alpha  occ. eigenvalues --   -0.77132  -0.76394  -0.74928  -0.73690  -0.72514
 Alpha  occ. eigenvalues --   -0.71205  -0.71016  -0.69457  -0.68745  -0.68025
 Alpha  occ. eigenvalues --   -0.67113  -0.66012  -0.64628  -0.60764  -0.60079
 Alpha  occ. eigenvalues --   -0.59451  -0.58948  -0.58439  -0.57998  -0.57522
 Alpha  occ. eigenvalues --   -0.56426  -0.55730  -0.54440  -0.53854  -0.53010
 Alpha  occ. eigenvalues --   -0.51817  -0.51393  -0.51314  -0.50209  -0.49995
 Alpha  occ. eigenvalues --   -0.48861  -0.48130  -0.47931  -0.47691  -0.47561
 Alpha  occ. eigenvalues --   -0.46945  -0.46554  -0.46123  -0.45943  -0.45541
 Alpha  occ. eigenvalues --   -0.45317  -0.44938  -0.44789  -0.44312  -0.43923
 Alpha  occ. eigenvalues --   -0.43819  -0.43497  -0.43093  -0.42812  -0.42752
 Alpha  occ. eigenvalues --   -0.42183  -0.41591  -0.41256  -0.41201  -0.40793
 Alpha  occ. eigenvalues --   -0.40496  -0.40348  -0.40107  -0.39942  -0.39510
 Alpha  occ. eigenvalues --   -0.38924  -0.38826  -0.38591  -0.38473  -0.38302
 Alpha  occ. eigenvalues --   -0.38134  -0.37684  -0.37481  -0.37047  -0.36354
 Alpha  occ. eigenvalues --   -0.36054  -0.35588  -0.35485  -0.35002  -0.34448
 Alpha  occ. eigenvalues --   -0.34251  -0.34164  -0.33370  -0.33284  -0.30838
 Alpha  occ. eigenvalues --   -0.30784  -0.30488  -0.29704  -0.28974  -0.27664
 Alpha  occ. eigenvalues --   -0.27463  -0.27399  -0.26769  -0.26145  -0.25672
 Alpha  occ. eigenvalues --   -0.24692  -0.24222  -0.23851  -0.22442  -0.19196
 Alpha virt. eigenvalues --   -0.10215  -0.05669  -0.05063  -0.03226  -0.01339
 Alpha virt. eigenvalues --    0.00780   0.01250   0.01818   0.01898   0.02770
 Alpha virt. eigenvalues --    0.03620   0.04254   0.04801   0.05204   0.05378

 Mulliken charges:
               1
     1  O   -0.155045
     2  O   -0.223986
     3  O   -0.196593
     4  O   -0.263127
     5  O   -0.231449
     6  O   -0.199008
     7  N   -0.081643
     8  N   -0.244386
     9  N   -0.117292
    10  N   -0.230740
    11  C    0.137464
    12  C    0.160586
    13  C   -0.129950
    14  C   -0.056502
    15  C   -0.092652
    16  C    0.116473
    17  C   -0.205627
    18  C    0.070996
    19  C   -0.008544
    20  C   -0.140943
    21  C    0.040573
    22  C    0.111895
    23  C   -0.043048
    24  C    0.062402
    25  C    0.088482
    26  C   -0.084593
    27  C    0.031132
    28  C    0.047958
    29  C    0.090736
    30  C   -0.027387
    31  C   -0.059405
    32  C    0.017700
    33  C   -0.085667
    34  C    0.108636
    35  C    0.144132
    36  C   -0.064298
    37  C    0.208945
    38  C    0.056569
    39  C   -0.254436
    40  C    0.168826
    41  C   -0.105856
    42  C    0.040298
    43  C    0.070320
    44  H    0.044430
    45  H    0.039117
    46  H   -0.024270
    47  H    0.089702
    48  H    0.144564
    49  H    0.031688
    50  H    0.008191
    51  H    0.029714
    52  H    0.009117
    53  H    0.032799
    54  H    0.037121
    55  H    0.007610
    56  H    0.000712
    57  H    0.043730
    58  H   -0.008032
    59  H    0.065858
    60  H    0.176549
    61  H    0.040383
    62  H    0.014804
    63  H    0.035774
    64  H    0.067984
    65  H    0.034653
    66  H    0.012692
    67  H    0.051008
    68  H    0.045516
    69  H   -0.079946
    70  H   -0.007610
    71  H    0.042567
    72  H    0.162850
    73  H    0.035964
    74  H    0.050204
    75  H    0.043429
    76  H    0.057684
    77  H    0.214300
    78  H   -0.018119
    79  H   -0.004681
 Sum of Mulliken charges =   0.00000

 Dipole moment (field-independent basis, Debye):
    X=             -0.1458    Y=              3.1922    Z=              2.8991  Tot=              4.3146
 Quadrupole moment (field-independent basis, Debye-Ang):
   XX=           -221.3754   YY=           -240.3738   ZZ=           -261.9880
   XY=            -20.0382   XZ=             29.7083   YZ=             -3.1819

 Normal termination of Gaussian 09 at Tue Jul  9 11:47:51 2019.
