 Gaussian 09, Revision D.01,
 Gaussian 09:  ES64L-G09RevD.01 24-Apr-2013

 --------------------------
 # td=(NStates=1) B3LYP/SVP
 --------------------------

 --
 TD
 --
 Symbolic Z-matrix:
 Charge =  0 Multiplicity = 1

                         Standard orientation:
 ---------------------------------------------------------------------
 Center     Atomic      Atomic             Coordinates (Angstroms)
 Number     Number       Type             X           Y           Z
 ---------------------------------------------------------------------
      1          8           0        5.156777   -0.472981   -3.342796
      2          8           0       -2.875459   -3.180980    3.062917
      3          8           0       -3.158162   -0.887850    3.417784
      4          8           0       -1.846752    7.275306    1.459811
      5          8           0       -0.562842    7.045283   -0.492561
      6          8           0       -1.889512   -4.087937   -0.035748
      7          7           0        2.312072    0.961237    0.536892
      8          7           0        4.412812   -0.796062   -1.246271
      9          7           0       -1.877740    0.697396   -0.421460
     10          7           0       -2.559272   -1.938787   -0.694625
     11          6           0        4.910570   -1.153352    0.117279
     12          6           0        4.393229   -0.206459    1.240743
     13          6           0        2.943847   -0.015391    1.404595
     14          6           0        2.045449   -0.647729    2.089875
     15          6           0        0.715019   -0.002306    1.748731
     16          6           0        0.935689    0.966227    0.739795
     17          6           0        6.340576   -1.259687   -0.130927
     18          6           0       -0.612699   -0.196314    2.402173
     19          6           0        6.620338   -0.904282   -1.371542
     20          6           0        0.201833    1.995651    0.220898
     21          6           0       -1.058082    1.761010   -0.295754
     22          6           0        5.343708   -0.626309   -2.149877
     23          6           0       -1.905081    2.929978   -0.892391
     24          6           0        2.365457   -1.672435    3.242875
     25          6           0        7.308348   -1.682503    0.923730
     26          6           0       -3.053327    2.441569   -1.203821
     27          6           0       -1.006601   -1.698723    2.543069
     28          6           0       -3.044572    0.944309   -1.049187
     29          6           0       -1.460242    4.298118   -0.855912
     30          6           0        7.922376   -0.810434   -2.120381
     31          6           0       -1.804474    5.081346    0.379093
     32          6           0       -4.290970    2.978392   -1.909512
     33          6           0       -3.980956   -0.092232   -1.331864
     34          6           0       -2.476240   -1.875607    3.102590
     35          6           0       -3.683424   -1.462376   -1.082288
     36          6           0        9.202903   -0.593600   -1.700707
     37          6           0       -1.350191    6.537370    0.412646
     38          6           0       -4.630554   -2.526424   -1.432180
     39          6           0       -4.067149   -3.707799   -1.026315
     40          6           0       -2.712728   -3.354179   -0.518096
     41          6           0       -6.056434   -2.252369   -1.982042
     42          6           0       -4.429261   -5.168666   -1.198045
     43          6           0       -6.922839   -3.159856   -2.458199
     44          1           0        4.486473   -2.222133    0.265132
     45          1           0        4.948465    0.833775    1.351405
     46          1           0        4.699039   -0.715345    2.073663
     47          1           0        2.941387    1.381811   -0.054202
     48          1           0        3.500706   -0.758279   -1.408324
     49          1           0       -0.241585    0.069113    3.302163
     50          1           0       -1.459964    0.377424    2.001485
     51          1           0        0.826544    2.974269    0.114291
     52          1           0        3.472623   -1.694596    3.364990
     53          1           0        1.860923   -1.448451    4.140474
     54          1           0        1.989768   -2.709944    2.941230
     55          1           0        6.958009   -2.440962    1.787708
     56          1           0        7.665257   -0.727382    1.539183
     57          1           0        8.208253   -2.230517    0.400728
     58          1           0       -0.933445   -2.077840    1.465617
     59          1           0       -0.361681   -2.283121    3.230917
     60          1           0       -1.551431   -0.299220   -0.257619
     61          1           0       -1.863199    4.890132   -1.793688
     62          1           0       -0.421257    4.398444   -1.248084
     63          1           0        7.596018   -0.979263   -3.165068
     64          1           0       -1.531269    4.472816    1.318724
     65          1           0       -2.895459    5.192399    0.512264
     66          1           0       -4.145146    4.040057   -1.875046
     67          1           0       -5.244405    2.789219   -1.277617
     68          1           0       -4.281274    2.699521   -2.920354
     69          1           0       -4.795111    0.282932   -1.725712
     70          1           0        9.238326   -0.297367   -0.538405
     71          1           0       10.065703   -0.489932   -2.272060
     72          1           0       -3.750484   -3.351207    3.325542
     73          1           0       -6.156226   -1.232348   -1.752794
     74          1           0       -4.388497   -5.462888   -2.196774
     75          1           0       -3.737014   -5.855664   -0.731615
     76          1           0       -5.504536   -5.508536   -0.700375
     77          1           0       -1.292538    8.290826    1.254994
     78          1           0       -8.080512   -2.937436   -2.821093
     79          1           0       -6.651073   -4.153135   -2.583004
 ---------------------------------------------------------------------

 SCF Done:  E(RB3LYP) =  -1947.84758275     A.U. after   16 cycles

 Excitation energies and oscillator strengths:

 Excited State   1:      Singlet-A      2.1237 eV  583.82 nm  f=0.3427  <S**2>=0.000
     153 ->156        -0.12354
     155 ->156         0.69534
 This state for optimization and/or second-order correction.
 Total Energy, E(TD-HF/TD-KS) =  -1947.76953865
 Copying the excited state density for this state as the 1-particle RhoCI density.

 The electronic state is 1-A.
 Alpha  occ. eigenvalues --  -19.21157 -19.17721 -19.13691 -19.12051 -19.11520
 Alpha  occ. eigenvalues --  -19.08917 -14.37629 -14.36010 -14.34382 -14.29136
 Alpha  occ. eigenvalues --  -10.34090 -10.32004 -10.27545 -10.27014 -10.25655
 Alpha  occ. eigenvalues --  -10.25284 -10.24836 -10.23411 -10.23058 -10.22849
 Alpha  occ. eigenvalues --  -10.22224 -10.22063 -10.21873 -10.21752 -10.21429
 Alpha  occ. eigenvalues --  -10.21235 -10.20819 -10.20799 -10.20673 -10.20660
 Alpha  occ. eigenvalues --  -10.20616 -10.20492 -10.20428 -10.20339 -10.20294
 Alpha  occ. eigenvalues --  -10.19870 -10.19840 -10.19832 -10.19796 -10.19447
 Alpha  occ. eigenvalues --  -10.19405 -10.18761 -10.18099  -1.07867  -1.07230
 Alpha  occ. eigenvalues --   -1.02887  -1.02626  -0.99689  -0.99249  -0.97377
 Alpha  occ. eigenvalues --   -0.96626  -0.94766  -0.93625  -0.84135  -0.83002
 Alpha  occ. eigenvalues --   -0.82507  -0.81050  -0.80040  -0.79692  -0.78433
 Alpha  occ. eigenvalues --   -0.77379  -0.76304  -0.75132  -0.74685  -0.72690
 Alpha  occ. eigenvalues --   -0.71413  -0.70948  -0.69943  -0.69237  -0.68618
 Alpha  occ. eigenvalues --   -0.67957  -0.66894  -0.64734  -0.62258  -0.61819
 Alpha  occ. eigenvalues --   -0.60476  -0.59676  -0.58679  -0.58406  -0.57631
 Alpha  occ. eigenvalues --   -0.56162  -0.55416  -0.54805  -0.54019  -0.53020
 Alpha  occ. eigenvalues --   -0.52569  -0.51462  -0.50478  -0.50163  -0.49262
 Alpha  occ. eigenvalues --   -0.49019  -0.48884  -0.48458  -0.47785  -0.47519
 Alpha  occ. eigenvalues --   -0.47412  -0.46996  -0.46573  -0.46268  -0.45657
 Alpha  occ. eigenvalues --   -0.45091  -0.44941  -0.44740  -0.44045  -0.43817
 Alpha  occ. eigenvalues --   -0.43752  -0.43410  -0.43034  -0.42939  -0.42919
 Alpha  occ. eigenvalues --   -0.42447  -0.42113  -0.41853  -0.41689  -0.41447
 Alpha  occ. eigenvalues --   -0.41158  -0.40874  -0.40553  -0.40467  -0.40181
 Alpha  occ. eigenvalues --   -0.39785  -0.39123  -0.39068  -0.38838  -0.38557
 Alpha  occ. eigenvalues --   -0.37897  -0.37685  -0.37560  -0.37212  -0.36900
 Alpha  occ. eigenvalues --   -0.36149  -0.35495  -0.35342  -0.34703  -0.34182
 Alpha  occ. eigenvalues --   -0.33837  -0.33380  -0.32991  -0.31952  -0.31618
 Alpha  occ. eigenvalues --   -0.30893  -0.30841  -0.29354  -0.28786  -0.27976
 Alpha  occ. eigenvalues --   -0.27707  -0.26905  -0.26278  -0.25097  -0.25063
 Alpha  occ. eigenvalues --   -0.24592  -0.24337  -0.23544  -0.22801  -0.19316
 Alpha virt. eigenvalues --   -0.10690  -0.06014  -0.05120  -0.02930  -0.01413
 Alpha virt. eigenvalues --   -0.00416   0.00479   0.01427   0.01722   0.02942
 Alpha virt. eigenvalues --    0.03607   0.04525   0.05039   0.05193   0.05511

 Mulliken charges:
               1
     1  O   -0.231778
     2  O   -0.165563
     3  O   -0.251881
     4  O   -0.271421
     5  O   -0.312755
     6  O   -0.165539
     7  N   -0.125979
     8  N   -0.106057
     9  N   -0.053788
    10  N   -0.259387
    11  C    0.117089
    12  C    0.227626
    13  C   -0.111955
    14  C   -0.100452
    15  C   -0.168921
    16  C    0.119926
    17  C   -0.156748
    18  C    0.187105
    19  C   -0.110243
    20  C   -0.181353
    21  C    0.116749
    22  C    0.124183
    23  C   -0.098325
    24  C    0.090588
    25  C   -0.034603
    26  C   -0.134872
    27  C   -0.084020
    28  C    0.028761
    29  C    0.056179
    30  C    0.007970
    31  C    0.021888
    32  C    0.141272
    33  C   -0.042381
    34  C    0.169844
    35  C    0.140987
    36  C   -0.026999
    37  C    0.203203
    38  C   -0.044938
    39  C   -0.196831
    40  C    0.151383
    41  C    0.073541
    42  C    0.072468
    43  C   -0.027715
    44  H    0.036858
    45  H    0.024812
    46  H   -0.056998
    47  H    0.076580
    48  H    0.071515
    49  H   -0.028434
    50  H    0.031087
    51  H    0.043359
    52  H    0.008324
    53  H    0.014556
    54  H    0.043623
    55  H    0.037534
    56  H    0.057017
    57  H    0.063142
    58  H    0.086914
    59  H    0.028212
    60  H    0.171616
    61  H    0.016841
    62  H    0.021778
    63  H    0.019241
    64  H    0.062628
    65  H    0.036417
    66  H   -0.011778
    67  H    0.044114
    68  H    0.032218
    69  H   -0.107327
    70  H    0.035792
    71  H    0.018794
    72  H    0.163119
    73  H   -0.024281
    74  H    0.021484
    75  H    0.013381
    76  H    0.035312
    77  H    0.266087
    78  H    0.054425
    79  H    0.005779
 Sum of Mulliken charges =   0.00000

 Dipole moment (field-independent basis, Debye):
    X=             -0.8890    Y=              2.0547    Z=              4.0369  Tot=              4.6162
 Quadrupole moment (field-independent basis, Debye-Ang):
   XX=           -223.9650   YY=           -241.0019   ZZ=           -266.1662
   XY=             -2.9634   XZ=             34.7867   YZ=              0.3208

 Normal termination of Gaussian 09 at Tue Jul  9 05:55:01 2019.
