 Gaussian 09, Revision D.01,
 Gaussian 09:  ES64L-G09RevD.01 24-Apr-2013

 --------------------------
 # td=(NStates=1) B3LYP/SVP
 --------------------------

 --
 TD
 --
 Symbolic Z-matrix:
 Charge =  0 Multiplicity = 1

                         Standard orientation:
 ---------------------------------------------------------------------
 Center     Atomic      Atomic             Coordinates (Angstroms)
 Number     Number       Type             X           Y           Z
 ---------------------------------------------------------------------
      1          8           0        5.424349   -0.034522   -3.347343
      2          8           0       -2.890215   -3.209460    3.292436
      3          8           0       -3.107854   -0.993865    3.431185
      4          8           0       -1.697721    7.145824    1.604370
      5          8           0       -0.615502    7.034550   -0.357421
      6          8           0       -1.993223   -4.059389   -0.211239
      7          7           0        2.468152    0.873798    0.594224
      8          7           0        4.476377   -0.704266   -1.229160
      9          7           0       -1.861822    0.693923   -0.328156
     10          7           0       -2.725248   -1.895321   -0.573015
     11          6           0        4.822395   -1.288211   -0.085633
     12          6           0        4.477241   -0.415342    1.208559
     13          6           0        3.020767   -0.156918    1.247825
     14          6           0        1.979379   -0.754888    2.073997
     15          6           0        0.776587   -0.150101    1.741785
     16          6           0        1.080659    0.878144    0.766347
     17          6           0        6.343155   -1.377381   -0.233044
     18          6           0       -0.521821   -0.292504    2.523503
     19          6           0        6.694646   -0.785065   -1.397918
     20          6           0        0.241959    1.785942    0.084623
     21          6           0       -1.078750    1.780126   -0.312470
     22          6           0        5.438035   -0.422043   -2.170563
     23          6           0       -1.884424    2.911578   -0.837890
     24          6           0        2.347602   -1.743155    3.033268
     25          6           0        7.266740   -1.993049    0.860496
     26          6           0       -3.134724    2.420612   -1.119653
     27          6           0       -0.971962   -1.790234    2.498163
     28          6           0       -3.053137    1.006528   -0.828210
     29          6           0       -1.304240    4.324028   -0.816906
     30          6           0        8.072206   -0.622109   -2.021011
     31          6           0       -1.719916    5.084751    0.483852
     32          6           0       -4.311635    3.090015   -1.884800
     33          6           0       -4.113924    0.114953   -1.235879
     34          6           0       -2.488449   -1.888397    3.079419
     35          6           0       -3.874571   -1.426365   -1.054971
     36          6           0        9.346592   -0.733379   -1.493307
     37          6           0       -1.252137    6.492451    0.521878
     38          6           0       -4.879760   -2.405372   -1.396407
     39          6           0       -4.195430   -3.572054   -1.143610
     40          6           0       -2.843189   -3.304546   -0.578718
     41          6           0       -6.092003   -2.194717   -2.152664
     42          6           0       -4.746813   -4.967430   -1.358219
     43          6           0       -7.075595   -3.085166   -2.589755
     44          1           0        4.361662   -2.183655    0.279069
     45          1           0        5.043498    0.511043    1.097067
     46          1           0        4.755906   -0.844470    2.205633
     47          1           0        2.889014    1.201351   -0.456248
     48          1           0        3.411671   -0.666966   -1.417242
     49          1           0       -0.331498   -0.004504    3.551202
     50          1           0       -1.374277    0.353230    1.993698
     51          1           0        0.564112    2.874132    0.111173
     52          1           0        3.361896   -1.697026    3.344771
     53          1           0        1.845600   -1.841469    4.000652
     54          1           0        2.182656   -2.751878    2.344222
     55          1           0        6.759677   -2.891511    1.340430
     56          1           0        7.846827   -1.312579    1.420241
     57          1           0        8.169859   -2.456792    0.303629
     58          1           0       -0.937913   -2.008658    1.504977
     59          1           0       -0.340853   -2.331635    3.085525
     60          1           0       -1.737576   -0.385784   -0.083716
     61          1           0       -1.608948    4.966344   -1.900456
     62          1           0       -0.199755    4.530940   -0.806875
     63          1           0        7.916416   -0.057999   -3.049046
     64          1           0       -1.614293    4.557520    1.459836
     65          1           0       -2.784171    5.144691    0.631545
     66          1           0       -3.972900    4.071688   -2.338456
     67          1           0       -5.163278    3.304285   -1.163123
     68          1           0       -4.507913    2.488679   -2.761358
     69          1           0       -5.076482    0.640207   -1.625821
     70          1           0        9.667694   -1.102059   -0.581256
     71          1           0       10.000909   -0.445983   -2.236062
     72          1           0       -3.673333   -2.989624    3.577094
     73          1           0       -6.289005   -1.237733   -2.252362
     74          1           0       -4.762166   -5.171568   -2.430964
     75          1           0       -3.948511   -5.695370   -0.948063
     76          1           0       -5.866499   -5.155089   -1.025390
     77          1           0       -1.598944    8.241795    1.411866
     78          1           0       -7.699310   -2.527873   -3.236660
     79          1           0       -6.943569   -4.091916   -2.365209
 ---------------------------------------------------------------------

 SCF Done:  E(RB3LYP) =  -1947.82927843     A.U. after   16 cycles

 Excitation energies and oscillator strengths:

 Excited State   1:      Singlet-A      1.9406 eV  638.91 nm  f=0.4871  <S**2>=0.000
     155 ->156         0.70168
     155 <-156        -0.12009
 This state for optimization and/or second-order correction.
 Total Energy, E(TD-HF/TD-KS) =  -1947.75796449
 Copying the excited state density for this state as the 1-particle RhoCI density.

 The electronic state is 1-A.
 Alpha  occ. eigenvalues --  -19.19354 -19.15811 -19.13545 -19.12848 -19.11474
 Alpha  occ. eigenvalues --  -19.11149 -14.39923 -14.37777 -14.36584 -14.29471
 Alpha  occ. eigenvalues --  -10.32318 -10.31309 -10.30169 -10.26848 -10.24968
 Alpha  occ. eigenvalues --  -10.24400 -10.24059 -10.23837 -10.23190 -10.23176
 Alpha  occ. eigenvalues --  -10.23108 -10.22337 -10.21902 -10.21805 -10.21787
 Alpha  occ. eigenvalues --  -10.21536 -10.21436 -10.21226 -10.21133 -10.20936
 Alpha  occ. eigenvalues --  -10.20626 -10.20564 -10.20364 -10.19989 -10.19849
 Alpha  occ. eigenvalues --  -10.19847 -10.19815 -10.19632 -10.19501 -10.19412
 Alpha  occ. eigenvalues --  -10.19243 -10.19155 -10.18337  -1.11813  -1.09203
 Alpha  occ. eigenvalues --   -1.03189  -1.03122  -1.02978  -1.00068  -0.99735
 Alpha  occ. eigenvalues --   -0.98870  -0.97488  -0.92617  -0.82111  -0.81956
 Alpha  occ. eigenvalues --   -0.81638  -0.81208  -0.80458  -0.79566  -0.77851
 Alpha  occ. eigenvalues --   -0.76951  -0.75669  -0.75167  -0.74203  -0.72077
 Alpha  occ. eigenvalues --   -0.71473  -0.71149  -0.69957  -0.69279  -0.67767
 Alpha  occ. eigenvalues --   -0.66445  -0.65395  -0.63711  -0.62379  -0.60571
 Alpha  occ. eigenvalues --   -0.59391  -0.58784  -0.58196  -0.57446  -0.56987
 Alpha  occ. eigenvalues --   -0.56391  -0.55625  -0.55391  -0.55206  -0.54085
 Alpha  occ. eigenvalues --   -0.52950  -0.52235  -0.51253  -0.50885  -0.49789
 Alpha  occ. eigenvalues --   -0.49218  -0.48769  -0.48535  -0.48207  -0.48073
 Alpha  occ. eigenvalues --   -0.47689  -0.47675  -0.47504  -0.46082  -0.45796
 Alpha  occ. eigenvalues --   -0.45684  -0.45278  -0.44679  -0.44635  -0.43672
 Alpha  occ. eigenvalues --   -0.43574  -0.43350  -0.43182  -0.42897  -0.42681
 Alpha  occ. eigenvalues --   -0.42213  -0.42138  -0.41842  -0.41649  -0.41027
 Alpha  occ. eigenvalues --   -0.40733  -0.40592  -0.40385  -0.40232  -0.40065
 Alpha  occ. eigenvalues --   -0.39414  -0.39037  -0.38951  -0.38821  -0.38656
 Alpha  occ. eigenvalues --   -0.38259  -0.38211  -0.37879  -0.37583  -0.37099
 Alpha  occ. eigenvalues --   -0.36588  -0.36422  -0.35787  -0.34787  -0.34314
 Alpha  occ. eigenvalues --   -0.34154  -0.33696  -0.33303  -0.32602  -0.32367
 Alpha  occ. eigenvalues --   -0.31268  -0.30351  -0.28869  -0.28788  -0.28549
 Alpha  occ. eigenvalues --   -0.28429  -0.27411  -0.26567  -0.26434  -0.25509
 Alpha  occ. eigenvalues --   -0.24640  -0.24411  -0.23178  -0.22132  -0.18278
 Alpha virt. eigenvalues --   -0.10790  -0.06759  -0.05823  -0.01540  -0.00959
 Alpha virt. eigenvalues --   -0.00785   0.00187   0.01106   0.01254   0.02063
 Alpha virt. eigenvalues --    0.02605   0.03426   0.04494   0.05424   0.05620

 Mulliken charges:
               1
     1  O   -0.230035
     2  O   -0.138952
     3  O   -0.152794
     4  O   -0.253273
     5  O   -0.232336
     6  O   -0.158989
     7  N   -0.097723
     8  N   -0.148651
     9  N   -0.056288
    10  N   -0.305387
    11  C    0.042961
    12  C    0.193017
    13  C   -0.148577
    14  C   -0.091445
    15  C   -0.094638
    16  C    0.054132
    17  C   -0.154991
    18  C    0.035204
    19  C   -0.090576
    20  C   -0.074049
    21  C   -0.001771
    22  C    0.190424
    23  C   -0.004159
    24  C    0.050965
    25  C    0.071875
    26  C   -0.167031
    27  C    0.052053
    28  C    0.052023
    29  C   -0.011919
    30  C   -0.050005
    31  C    0.013898
    32  C    0.086088
    33  C   -0.141763
    34  C    0.122805
    35  C    0.065773
    36  C    0.030568
    37  C    0.146410
    38  C    0.052600
    39  C   -0.225428
    40  C    0.162431
    41  C   -0.013394
    42  C    0.033626
    43  C    0.066790
    44  H   -0.000948
    45  H   -0.015255
    46  H    0.014587
    47  H    0.178371
    48  H    0.151499
    49  H    0.011492
    50  H    0.044012
    51  H    0.009452
    52  H   -0.010643
    53  H    0.024152
    54  H    0.059405
    55  H    0.038356
    56  H    0.030660
    57  H    0.029478
    58  H    0.025089
    59  H    0.001165
    60  H    0.199023
    61  H    0.054768
    62  H    0.041320
    63  H    0.047056
    64  H    0.036912
    65  H    0.015616
    66  H    0.017875
    67  H    0.047501
    68  H    0.037959
    69  H    0.024614
    70  H   -0.005239
    71  H    0.015554
    72  H    0.092318
    73  H   -0.071944
    74  H    0.025435
    75  H    0.040324
    76  H    0.057163
    77  H    0.246702
    78  H    0.020765
    79  H   -0.014061
 Sum of Mulliken charges =   0.00000

 Dipole moment (field-independent basis, Debye):
    X=              0.2130    Y=              2.5683    Z=              3.4881  Tot=              4.3368
 Quadrupole moment (field-independent basis, Debye-Ang):
   XX=           -224.3851   YY=           -248.8560   ZZ=           -263.2839
   XY=            -19.9373   XZ=             33.9886   YZ=              3.2892

 Normal termination of Gaussian 09 at Mon Jul  8 08:15:10 2019.
