 Gaussian 09, Revision D.01,
 Gaussian 09:  ES64L-G09RevD.01 24-Apr-2013

 --------------------------
 # td=(NStates=1) B3LYP/SVP
 --------------------------

 --
 TD
 --
 Symbolic Z-matrix:
 Charge =  0 Multiplicity = 1

                         Standard orientation:
 ---------------------------------------------------------------------
 Center     Atomic      Atomic             Coordinates (Angstroms)
 Number     Number       Type             X           Y           Z
 ---------------------------------------------------------------------
      1          8           0        5.222687   -0.321220   -3.312005
      2          8           0       -2.920348   -2.842619    3.228504
      3          8           0       -3.153138   -0.625733    3.227999
      4          8           0       -1.892212    7.091376    1.312275
      5          8           0       -0.651598    6.952491   -0.644151
      6          8           0       -1.943954   -4.107480    0.107601
      7          7           0        2.475943    0.931016    0.472500
      8          7           0        4.375601   -0.693925   -1.146652
      9          7           0       -1.786336    0.637975   -0.333081
     10          7           0       -2.605350   -1.877041   -0.418989
     11          6           0        4.921995   -1.084887    0.106698
     12          6           0        4.568480   -0.098474    1.303914
     13          6           0        3.096638    0.112160    1.400505
     14          6           0        2.078345   -0.500921    2.221831
     15          6           0        0.876870    0.106902    1.771871
     16          6           0        1.041732    0.892925    0.746093
     17          6           0        6.385610   -1.314650   -0.188745
     18          6           0       -0.456610   -0.063747    2.523304
     19          6           0        6.640538   -0.865373   -1.441349
     20          6           0        0.230065    1.986860    0.148882
     21          6           0       -1.079958    1.815724   -0.302162
     22          6           0        5.323374   -0.580416   -2.166273
     23          6           0       -2.074119    2.885400   -0.859695
     24          6           0        2.257388   -1.632180    3.193759
     25          6           0        7.309649   -1.837635    0.901994
     26          6           0       -3.095723    2.172041   -1.231848
     27          6           0       -1.076280   -1.488469    2.536605
     28          6           0       -2.944245    0.787084   -0.895671
     29          6           0       -1.491798    4.311236   -0.992525
     30          6           0        7.935119   -0.833846   -2.160851
     31          6           0       -1.882518    5.037372    0.223493
     32          6           0       -4.395407    2.864459   -1.842083
     33          6           0       -3.998459   -0.123541   -1.301466
     34          6           0       -2.470601   -1.557812    2.996705
     35          6           0       -3.813195   -1.472582   -0.968951
     36          6           0        9.127737   -0.840032   -1.577139
     37          6           0       -1.430563    6.512543    0.120471
     38          6           0       -4.748597   -2.651660   -1.432948
     39          6           0       -4.046494   -3.787693   -1.043908
     40          6           0       -2.702563   -3.323333   -0.389618
     41          6           0       -6.055098   -2.535785   -1.989451
     42          6           0       -4.476932   -5.200354   -1.144075
     43          6           0       -6.820003   -3.399467   -2.568758
     44          1           0        4.331852   -1.968824    0.448103
     45          1           0        5.071336    0.646237    0.873989
     46          1           0        4.974509   -0.586434    2.315184
     47          1           0        2.838922    1.673992   -0.243660
     48          1           0        3.343689   -0.562470   -1.481406
     49          1           0       -0.122991    0.342549    3.397070
     50          1           0       -1.306200    0.652503    2.021371
     51          1           0        0.769457    2.952806   -0.101705
     52          1           0        3.227998   -1.799525    3.538925
     53          1           0        1.523380   -1.367413    4.152565
     54          1           0        1.898028   -2.568398    3.049994
     55          1           0        6.882447   -2.350859    1.646582
     56          1           0        7.907400   -0.974671    1.467228
     57          1           0        8.229234   -2.435172    0.488190
     58          1           0       -1.014367   -1.900450    1.540552
     59          1           0       -0.414726   -2.227049    3.152254
     60          1           0       -1.376915   -0.277873   -0.090330
     61          1           0       -1.970428    4.851463   -1.816853
     62          1           0       -0.265876    4.164755   -1.050620
     63          1           0        7.794815   -0.694825   -3.488641
     64          1           0       -1.195274    4.675365    1.125162
     65          1           0       -2.894483    4.919872    0.488797
     66          1           0       -3.930097    3.699849   -2.122799
     67          1           0       -5.126879    3.098128   -0.932215
     68          1           0       -4.815781    2.244373   -2.646226
     69          1           0       -5.004094    0.147129   -1.761005
     70          1           0        9.411227   -0.884469   -0.592613
     71          1           0        9.925518   -1.051120   -2.390231
     72          1           0       -3.845070   -2.990424    3.350826
     73          1           0       -6.455897   -1.321029   -1.948667
     74          1           0       -4.322327   -5.532289   -2.320997
     75          1           0       -3.671544   -5.720041   -0.649779
     76          1           0       -5.373134   -5.371565   -0.763340
     77          1           0       -1.682632    8.065049    1.435857
     78          1           0       -7.688833   -3.013377   -2.978628
     79          1           0       -6.569026   -4.447599   -2.682829
 ---------------------------------------------------------------------

 SCF Done:  E(RB3LYP) =  -1947.80681821     A.U. after   16 cycles

 Excitation energies and oscillator strengths:

 Excited State   1:      Singlet-A      2.2791 eV  544.01 nm  f=0.4094  <S**2>=0.000
     153 ->156         0.13527
     155 ->156         0.68721
 This state for optimization and/or second-order correction.
 Total Energy, E(TD-HF/TD-KS) =  -1947.72306372
 Copying the excited state density for this state as the 1-particle RhoCI density.

 The electronic state is 1-A.
 Alpha  occ. eigenvalues --  -19.18247 -19.15017 -19.14901 -19.10969 -19.10663
 Alpha  occ. eigenvalues --  -19.10641 -14.38505 -14.38502 -14.35591 -14.29547
 Alpha  occ. eigenvalues --  -10.33205 -10.30265 -10.28355 -10.26815 -10.25596
 Alpha  occ. eigenvalues --  -10.25208 -10.24729 -10.24002 -10.23730 -10.23171
 Alpha  occ. eigenvalues --  -10.22753 -10.22278 -10.22033 -10.21727 -10.21716
 Alpha  occ. eigenvalues --  -10.21621 -10.21564 -10.21455 -10.20907 -10.20732
 Alpha  occ. eigenvalues --  -10.20526 -10.20080 -10.19913 -10.19838 -10.19835
 Alpha  occ. eigenvalues --  -10.19766 -10.19749 -10.19458 -10.19263 -10.19115
 Alpha  occ. eigenvalues --  -10.18677 -10.18554 -10.18256  -1.09653  -1.07581
 Alpha  occ. eigenvalues --   -1.04356  -1.02179  -1.01989  -1.01414  -0.99237
 Alpha  occ. eigenvalues --   -0.96786  -0.94394  -0.89407  -0.83979  -0.82099
 Alpha  occ. eigenvalues --   -0.81323  -0.80889  -0.80602  -0.79787  -0.78456
 Alpha  occ. eigenvalues --   -0.76622  -0.76175  -0.75664  -0.74636  -0.72779
 Alpha  occ. eigenvalues --   -0.71381  -0.71177  -0.69902  -0.69119  -0.68356
 Alpha  occ. eigenvalues --   -0.67256  -0.65927  -0.63644  -0.60895  -0.60158
 Alpha  occ. eigenvalues --   -0.59875  -0.59390  -0.58260  -0.58147  -0.57334
 Alpha  occ. eigenvalues --   -0.57093  -0.55732  -0.54231  -0.53438  -0.52780
 Alpha  occ. eigenvalues --   -0.51717  -0.51571  -0.51220  -0.50641  -0.50459
 Alpha  occ. eigenvalues --   -0.49365  -0.48840  -0.48293  -0.47453  -0.47123
 Alpha  occ. eigenvalues --   -0.46743  -0.46491  -0.46152  -0.45999  -0.45593
 Alpha  occ. eigenvalues --   -0.45064  -0.44897  -0.44831  -0.44406  -0.43950
 Alpha  occ. eigenvalues --   -0.43777  -0.43543  -0.43193  -0.43101  -0.42603
 Alpha  occ. eigenvalues --   -0.42358  -0.42169  -0.42013  -0.41748  -0.41212
 Alpha  occ. eigenvalues --   -0.40702  -0.40472  -0.40202  -0.39817  -0.39702
 Alpha  occ. eigenvalues --   -0.39324  -0.39130  -0.38903  -0.38701  -0.38532
 Alpha  occ. eigenvalues --   -0.37954  -0.37707  -0.37413  -0.36757  -0.36530
 Alpha  occ. eigenvalues --   -0.36085  -0.35609  -0.34859  -0.34616  -0.34252
 Alpha  occ. eigenvalues --   -0.33631  -0.33326  -0.33191  -0.32812  -0.31520
 Alpha  occ. eigenvalues --   -0.31391  -0.30713  -0.30091  -0.29043  -0.28434
 Alpha  occ. eigenvalues --   -0.27760  -0.26613  -0.26227  -0.25945  -0.25302
 Alpha  occ. eigenvalues --   -0.24065  -0.23800  -0.23152  -0.22045  -0.19692
 Alpha virt. eigenvalues --   -0.10414  -0.05802  -0.05347  -0.01280  -0.00372
 Alpha virt. eigenvalues --    0.01015   0.01732   0.02151   0.02291   0.02599
 Alpha virt. eigenvalues --    0.03374   0.03724   0.03961   0.04622   0.04887

 Mulliken charges:
               1
     1  O   -0.172274
     2  O   -0.215398
     3  O   -0.188584
     4  O   -0.258174
     5  O   -0.166128
     6  O   -0.184622
     7  N   -0.194028
     8  N   -0.254809
     9  N    0.025024
    10  N   -0.363042
    11  C    0.069314
    12  C    0.254609
    13  C   -0.077102
    14  C   -0.106203
    15  C   -0.074841
    16  C    0.025454
    17  C   -0.115799
    18  C    0.055943
    19  C   -0.087841
    20  C   -0.086960
    21  C    0.022527
    22  C    0.145616
    23  C   -0.037675
    24  C    0.116446
    25  C    0.067412
    26  C   -0.239057
    27  C    0.001510
    28  C    0.147650
    29  C    0.098806
    30  C   -0.067017
    31  C   -0.048908
    32  C    0.141963
    33  C   -0.164654
    34  C    0.138026
    35  C    0.096514
    36  C   -0.017529
    37  C    0.163570
    38  C    0.069853
    39  C   -0.254612
    40  C    0.185973
    41  C   -0.076661
    42  C    0.129077
    43  C    0.007327
    44  H    0.005410
    45  H   -0.069594
    46  H    0.032400
    47  H    0.158046
    48  H    0.160843
    49  H   -0.003800
    50  H    0.045963
    51  H    0.009971
    52  H   -0.018697
    53  H    0.016037
    54  H    0.010594
    55  H   -0.015078
    56  H    0.042028
    57  H    0.047053
    58  H    0.054127
    59  H    0.035811
    60  H    0.164456
    61  H    0.020570
    62  H    0.058246
    63  H    0.070959
    64  H    0.065990
    65  H    0.029244
    66  H   -0.028612
    67  H    0.058183
    68  H    0.039492
    69  H    0.005252
    70  H   -0.008039
    71  H    0.039330
    72  H    0.169119
    73  H    0.015455
    74  H    0.047756
    75  H    0.014129
    76  H    0.004679
    77  H    0.194497
    78  H    0.004042
    79  H    0.013444
 Sum of Mulliken charges =   0.00000

 Dipole moment (field-independent basis, Debye):
    X=             -0.2440    Y=              3.4488    Z=              2.4368  Tot=              4.2298
 Quadrupole moment (field-independent basis, Debye-Ang):
   XX=           -224.4702   YY=           -240.2979   ZZ=           -266.1139
   XY=            -10.2432   XZ=             33.4273   YZ=              2.5299

 Normal termination of Gaussian 09 at Mon Jul  8 10:52:20 2019.
