 Gaussian 09, Revision D.01,
 Gaussian 09:  ES64L-G09RevD.01 24-Apr-2013

 --------------------------
 # td=(NStates=1) B3LYP/SVP
 --------------------------

 --
 TD
 --
 Symbolic Z-matrix:
 Charge =  0 Multiplicity = 1

                         Standard orientation:
 ---------------------------------------------------------------------
 Center     Atomic      Atomic             Coordinates (Angstroms)
 Number     Number       Type             X           Y           Z
 ---------------------------------------------------------------------
      1          8           0        5.338671   -0.383264   -3.299169
      2          8           0       -2.884709   -2.967842    3.323360
      3          8           0       -3.184694   -0.793847    3.237292
      4          8           0       -1.465839    7.235078    1.460667
      5          8           0       -0.468666    6.942355   -0.565471
      6          8           0       -2.088923   -4.044133   -0.038766
      7          7           0        2.357309    0.805602    0.523879
      8          7           0        4.433290   -0.738384   -1.196492
      9          7           0       -1.915670    0.732114   -0.339004
     10          7           0       -2.763727   -1.847780   -0.410343
     11          6           0        4.963263   -1.271457    0.020670
     12          6           0        4.587003   -0.332052    1.200361
     13          6           0        2.992898   -0.077156    1.292395
     14          6           0        2.014135   -0.688772    2.089636
     15          6           0        0.801009   -0.096454    1.822454
     16          6           0        0.967639    0.830137    0.762807
     17          6           0        6.435590   -1.308179   -0.157227
     18          6           0       -0.556740   -0.263761    2.539235
     19          6           0        6.701884   -0.982778   -1.451872
     20          6           0        0.154807    1.903605    0.145251
     21          6           0       -1.122569    1.764414   -0.201979
     22          6           0        5.381125   -0.677452   -2.178336
     23          6           0       -1.942584    2.861354   -0.783718
     24          6           0        2.421044   -1.717077    3.097605
     25          6           0        7.338941   -1.621992    0.898930
     26          6           0       -3.152448    2.334436   -1.088676
     27          6           0       -1.087362   -1.675937    2.513956
     28          6           0       -3.121582    0.979635   -0.922049
     29          6           0       -1.556020    4.340956   -0.896887
     30          6           0        7.964280   -0.815879   -2.134062
     31          6           0       -1.734794    5.159286    0.336626
     32          6           0       -4.344725    3.126470   -1.894076
     33          6           0       -4.055505    0.007569   -1.232792
     34          6           0       -2.509599   -1.693008    3.013707
     35          6           0       -3.839238   -1.419755   -0.950164
     36          6           0        9.203832   -0.792153   -1.619715
     37          6           0       -1.121815    6.528592    0.297802
     38          6           0       -4.742431   -2.558662   -1.463540
     39          6           0       -4.149222   -3.706679   -0.976306
     40          6           0       -2.898095   -3.243807   -0.441927
     41          6           0       -6.011286   -2.278322   -2.171219
     42          6           0       -4.614251   -5.099757   -1.133891
     43          6           0       -6.843854   -3.145915   -2.783240
     44          1           0        4.469651   -2.235285    0.537253
     45          1           0        4.911084    0.733229    1.073659
     46          1           0        4.975574   -0.537818    2.123887
     47          1           0        2.673392    1.255057   -0.301010
     48          1           0        3.400682   -0.929381   -1.481007
     49          1           0       -0.477266    0.090216    3.560030
     50          1           0       -1.279405    0.519578    2.103543
     51          1           0        0.699515    2.787326   -0.040160
     52          1           0        3.572977   -1.609240    3.215877
     53          1           0        1.963492   -1.422186    4.025703
     54          1           0        1.843638   -2.664350    2.593456
     55          1           0        6.962108   -2.551113    1.644430
     56          1           0        7.698308   -0.662032    1.478264
     57          1           0        8.317749   -1.807209    0.717056
     58          1           0       -1.035121   -2.248093    1.422614
     59          1           0       -0.620046   -2.364685    3.310929
     60          1           0       -1.729776   -0.212403   -0.198191
     61          1           0       -2.092912    4.760763   -1.544983
     62          1           0       -0.463830    4.295329   -1.463222
     63          1           0        7.854862   -0.581625   -3.255396
     64          1           0       -1.515836    4.658067    1.308922
     65          1           0       -2.805688    5.096020    0.499486
     66          1           0       -3.930193    4.192365   -2.103501
     67          1           0       -5.270192    3.052767   -1.266285
     68          1           0       -4.705471    2.588345   -2.790365
     69          1           0       -5.028755    0.396700   -1.717194
     70          1           0        9.440861   -1.108365   -0.652869
     71          1           0       10.002858   -0.740561   -2.441060
     72          1           0       -3.777715   -2.763319    3.657931
     73          1           0       -6.313742   -1.260208   -2.017379
     74          1           0       -4.421330   -5.630977   -2.138414
     75          1           0       -4.074590   -5.791097   -0.462677
     76          1           0       -5.728315   -5.087471   -0.887694
     77          1           0       -1.089542    8.088809    1.354681
     78          1           0       -7.822155   -2.881520   -3.099587
     79          1           0       -6.489967   -4.209979   -3.054880
 ---------------------------------------------------------------------

 SCF Done:  E(RB3LYP) =  -1947.87968631     A.U. after   16 cycles

 Excitation energies and oscillator strengths:

 Excited State   1:      Singlet-A      2.0919 eV  592.69 nm  f=0.4497  <S**2>=0.000
     155 ->156         0.70287
     155 <-156        -0.10303
 This state for optimization and/or second-order correction.
 Total Energy, E(TD-HF/TD-KS) =  -1947.80281132
 Copying the excited state density for this state as the 1-particle RhoCI density.

 The electronic state is 1-A.
 Alpha  occ. eigenvalues --  -19.17714 -19.15685 -19.14609 -19.11714 -19.10974
 Alpha  occ. eigenvalues --  -19.10535 -14.37610 -14.36630 -14.35666 -14.29739
 Alpha  occ. eigenvalues --  -10.32869 -10.29517 -10.28583 -10.26328 -10.25842
 Alpha  occ. eigenvalues --  -10.23983 -10.23682 -10.23506 -10.22431 -10.22067
 Alpha  occ. eigenvalues --  -10.21830 -10.21769 -10.21651 -10.21538 -10.21136
 Alpha  occ. eigenvalues --  -10.21098 -10.21004 -10.20719 -10.20623 -10.20518
 Alpha  occ. eigenvalues --  -10.20323 -10.20278 -10.20102 -10.20013 -10.19829
 Alpha  occ. eigenvalues --  -10.19588 -10.19536 -10.19528 -10.19398 -10.19192
 Alpha  occ. eigenvalues --  -10.18994 -10.18501 -10.17706  -1.11070  -1.10234
 Alpha  occ. eigenvalues --   -1.06055  -1.02943  -1.02752  -1.00901  -1.00643
 Alpha  occ. eigenvalues --   -0.98518  -0.95856  -0.94064  -0.83225  -0.82948
 Alpha  occ. eigenvalues --   -0.82087  -0.80889  -0.80689  -0.79246  -0.78525
 Alpha  occ. eigenvalues --   -0.77215  -0.76326  -0.75698  -0.74819  -0.71868
 Alpha  occ. eigenvalues --   -0.71746  -0.70362  -0.69531  -0.69242  -0.68700
 Alpha  occ. eigenvalues --   -0.66442  -0.66120  -0.64319  -0.61491  -0.61155
 Alpha  occ. eigenvalues --   -0.60662  -0.58958  -0.57662  -0.57575  -0.56993
 Alpha  occ. eigenvalues --   -0.56384  -0.55474  -0.55053  -0.54451  -0.53416
 Alpha  occ. eigenvalues --   -0.52552  -0.52213  -0.51329  -0.50935  -0.49867
 Alpha  occ. eigenvalues --   -0.49241  -0.49055  -0.48426  -0.47876  -0.47591
 Alpha  occ. eigenvalues --   -0.47431  -0.47298  -0.46979  -0.46439  -0.46055
 Alpha  occ. eigenvalues --   -0.45825  -0.45571  -0.44612  -0.44276  -0.44186
 Alpha  occ. eigenvalues --   -0.43928  -0.43693  -0.43157  -0.42928  -0.42355
 Alpha  occ. eigenvalues --   -0.42203  -0.41826  -0.41692  -0.41337  -0.41142
 Alpha  occ. eigenvalues --   -0.40703  -0.40597  -0.40315  -0.40212  -0.40054
 Alpha  occ. eigenvalues --   -0.39619  -0.39337  -0.38891  -0.38589  -0.38394
 Alpha  occ. eigenvalues --   -0.38109  -0.37908  -0.37342  -0.37094  -0.36690
 Alpha  occ. eigenvalues --   -0.36136  -0.35518  -0.35099  -0.34772  -0.34402
 Alpha  occ. eigenvalues --   -0.34138  -0.33737  -0.33306  -0.32668  -0.31959
 Alpha  occ. eigenvalues --   -0.31477  -0.31271  -0.30175  -0.29686  -0.28544
 Alpha  occ. eigenvalues --   -0.27818  -0.27315  -0.26345  -0.26201  -0.24761
 Alpha  occ. eigenvalues --   -0.24446  -0.23857  -0.23557  -0.22897  -0.18747
 Alpha virt. eigenvalues --   -0.10556  -0.06282  -0.05888  -0.00442  -0.00128
 Alpha virt. eigenvalues --    0.01568   0.01912   0.02761   0.03285   0.03769
 Alpha virt. eigenvalues --    0.04270   0.04615   0.05481   0.05855   0.06100

 Mulliken charges:
               1
     1  O   -0.143652
     2  O   -0.196803
     3  O   -0.170745
     4  O   -0.209560
     5  O   -0.150500
     6  O   -0.183179
     7  N   -0.041227
     8  N   -0.208140
     9  N    0.040276
    10  N   -0.219127
    11  C    0.063236
    12  C    0.196930
    13  C   -0.140608
    14  C   -0.171892
    15  C   -0.073243
    16  C   -0.005335
    17  C   -0.082584
    18  C    0.102372
    19  C   -0.073460
    20  C   -0.109121
    21  C    0.133152
    22  C    0.130599
    23  C   -0.166209
    24  C    0.068425
    25  C    0.066347
    26  C   -0.110045
    27  C   -0.086650
    28  C    0.079696
    29  C    0.190952
    30  C   -0.042626
    31  C    0.007549
    32  C    0.051995
    33  C   -0.128434
    34  C    0.101359
    35  C    0.047582
    36  C   -0.019858
    37  C    0.148190
    38  C    0.006314
    39  C   -0.152165
    40  C    0.120291
    41  C   -0.006391
    42  C    0.047783
    43  C   -0.025117
    44  H    0.041762
    45  H   -0.013885
    46  H   -0.021429
    47  H    0.100123
    48  H    0.162697
    49  H   -0.007099
    50  H    0.021506
    51  H   -0.018468
    52  H    0.018922
    53  H    0.014845
    54  H    0.072138
    55  H    0.053060
    56  H    0.035881
    57  H   -0.028165
    58  H    0.114118
    59  H    0.039663
    60  H    0.098316
    61  H   -0.088079
    62  H    0.036399
    63  H    0.027167
    64  H    0.037737
    65  H    0.021892
    66  H    0.044196
    67  H    0.026766
    68  H    0.032885
    69  H   -0.005305
    70  H   -0.012113
    71  H    0.039443
    72  H    0.156690
    73  H   -0.011906
    74  H    0.045559
    75  H    0.021320
    76  H    0.036871
    77  H    0.157589
    78  H    0.017869
    79  H    0.044660
 Sum of Mulliken charges =   0.00000

 Dipole moment (field-independent basis, Debye):
    X=             -0.0429    Y=              2.3742    Z=              1.9360  Tot=              3.0638
 Quadrupole moment (field-independent basis, Debye-Ang):
   XX=           -218.0857   YY=           -248.4819   ZZ=           -262.3620
   XY=             -8.1376   XZ=             33.0045   YZ=              4.4381

 Normal termination of Gaussian 09 at Wed Jul 10 09:05:20 2019.
