 Gaussian 09, Revision D.01,
 Gaussian 09:  ES64L-G09RevD.01 24-Apr-2013

 --------------------------
 # td=(NStates=1) B3LYP/SVP
 --------------------------

 --
 TD
 --
 Symbolic Z-matrix:
 Charge =  0 Multiplicity = 1

                         Standard orientation:
 ---------------------------------------------------------------------
 Center     Atomic      Atomic             Coordinates (Angstroms)
 Number     Number       Type             X           Y           Z
 ---------------------------------------------------------------------
      1          8           0        5.296117   -0.327335   -3.352421
      2          8           0       -2.813894   -3.221470    3.192026
      3          8           0       -3.016486   -0.955380    3.348647
      4          8           0       -1.890041    7.200033    1.394151
      5          8           0       -0.626617    7.001920   -0.405759
      6          8           0       -1.811529   -4.011894    0.022994
      7          7           0        2.415033    1.015465    0.496193
      8          7           0        4.336183   -0.547469   -1.224752
      9          7           0       -1.871930    0.708343   -0.402192
     10          7           0       -2.600397   -1.840760   -0.433983
     11          6           0        4.768470   -1.096976    0.048297
     12          6           0        4.432575   -0.144035    1.189653
     13          6           0        3.028806    0.036444    1.319943
     14          6           0        1.980566   -0.565965    2.171799
     15          6           0        0.785554    0.006300    1.786895
     16          6           0        0.941898    0.904800    0.701579
     17          6           0        6.252757   -1.280062   -0.102485
     18          6           0       -0.491985   -0.287859    2.493386
     19          6           0        6.627840   -0.894144   -1.422054
     20          6           0        0.186857    1.988762    0.159146
     21          6           0       -1.139307    1.812252   -0.294497
     22          6           0        5.375379   -0.530709   -2.132153
     23          6           0       -2.008739    2.900490   -0.839005
     24          6           0        2.197973   -1.477423    3.258748
     25          6           0        7.215130   -1.714580    0.951018
     26          6           0       -3.146852    2.330694   -1.298353
     27          6           0       -0.967899   -1.738299    2.533554
     28          6           0       -3.048900    0.918831   -1.096264
     29          6           0       -1.480562    4.280276   -0.844290
     30          6           0        7.784821   -0.916661   -2.174211
     31          6           0       -1.826947    5.095561    0.373526
     32          6           0       -4.351231    3.087201   -1.969142
     33          6           0       -3.955852   -0.075367   -1.356818
     34          6           0       -2.322284   -2.002768    3.061694
     35          6           0       -3.702728   -1.417573   -0.978010
     36          6           0        9.090309   -0.794465   -1.695115
     37          6           0       -1.299120    6.505725    0.375420
     38          6           0       -4.604779   -2.601481   -1.475757
     39          6           0       -3.987307   -3.739009   -1.055238
     40          6           0       -2.620490   -3.296085   -0.419051
     41          6           0       -5.938919   -2.419678   -2.022749
     42          6           0       -4.252663   -5.155250   -1.281660
     43          6           0       -6.795751   -3.405810   -2.545448
     44          1           0        4.158766   -2.096126    0.304036
     45          1           0        5.003729    0.790547    1.199080
     46          1           0        4.680842   -0.445052    2.211702
     47          1           0        2.764065    1.621547   -0.299249
     48          1           0        3.332166   -0.435795   -1.485977
     49          1           0       -0.416022   -0.079235    3.555218
     50          1           0       -1.288101    0.275718    1.893485
     51          1           0        0.612849    3.002069   -0.048776
     52          1           0        3.212040   -1.429573    3.652651
     53          1           0        1.935654   -1.135029    4.205853
     54          1           0        2.056523   -2.632102    3.073657
     55          1           0        6.590996   -2.428313    1.516661
     56          1           0        7.419790   -0.980333    1.683674
     57          1           0        8.068103   -2.085982    0.489726
     58          1           0       -0.815061   -2.231623    1.450665
     59          1           0       -0.318822   -2.217004    3.224500
     60          1           0       -1.810146   -0.318507   -0.256358
     61          1           0       -2.083455    4.799906   -1.589476
     62          1           0       -0.446679    4.160931   -1.165620
     63          1           0        7.600983   -0.775009   -3.301695
     64          1           0       -1.642701    4.530884    1.390059
     65          1           0       -2.858281    5.099308    0.472063
     66          1           0       -4.083525    4.210834   -2.162920
     67          1           0       -5.357149    3.151856   -1.338420
     68          1           0       -4.786244    2.534517   -2.908820
     69          1           0       -4.978791    0.085159   -1.692891
     70          1           0        9.261317   -0.600974   -0.634851
     71          1           0        9.887671   -0.580253   -2.450801
     72          1           0       -3.770870   -2.803321    3.562245
     73          1           0       -6.372728   -1.475900   -1.957222
     74          1           0       -4.742941   -5.495455   -2.481026
     75          1           0       -3.247511   -5.772866   -1.127401
     76          1           0       -5.175817   -5.540806   -0.390992
     77          1           0       -1.525789    8.195513    1.581576
     78          1           0       -7.743712   -3.090932   -2.656125
     79          1           0       -6.533489   -4.523442   -2.696355
 ---------------------------------------------------------------------

 SCF Done:  E(RB3LYP) =  -1947.84980111     A.U. after   16 cycles

 Excitation energies and oscillator strengths:

 Excited State   1:      Singlet-A      2.1029 eV  589.58 nm  f=0.5153  <S**2>=0.000
     155 ->156         0.70337
     155 <-156        -0.11172
 This state for optimization and/or second-order correction.
 Total Energy, E(TD-HF/TD-KS) =  -1947.77251983
 Copying the excited state density for this state as the 1-particle RhoCI density.

 The electronic state is 1-A.
 Alpha  occ. eigenvalues --  -19.19373 -19.17498 -19.13380 -19.12234 -19.10699
 Alpha  occ. eigenvalues --  -19.09631 -14.38691 -14.36066 -14.35634 -14.30035
 Alpha  occ. eigenvalues --  -10.31955 -10.31106 -10.28241 -10.27906 -10.26315
 Alpha  occ. eigenvalues --  -10.24240 -10.24062 -10.23921 -10.23574 -10.23191
 Alpha  occ. eigenvalues --  -10.23153 -10.22741 -10.22586 -10.22035 -10.21234
 Alpha  occ. eigenvalues --  -10.21025 -10.20736 -10.20673 -10.20493 -10.20464
 Alpha  occ. eigenvalues --  -10.20356 -10.20303 -10.20275 -10.20221 -10.20059
 Alpha  occ. eigenvalues --  -10.19802 -10.19791 -10.19790 -10.19743 -10.19550
 Alpha  occ. eigenvalues --  -10.19119 -10.18746 -10.18698  -1.10709  -1.08717
 Alpha  occ. eigenvalues --   -1.05354  -1.01391  -1.00874  -0.99082  -0.96090
 Alpha  occ. eigenvalues --   -0.95597  -0.93772  -0.92335  -0.83328  -0.82466
 Alpha  occ. eigenvalues --   -0.82299  -0.81803  -0.80358  -0.79990  -0.77907
 Alpha  occ. eigenvalues --   -0.77470  -0.76590  -0.75767  -0.74418  -0.72794
 Alpha  occ. eigenvalues --   -0.71666  -0.70957  -0.69035  -0.68476  -0.67939
 Alpha  occ. eigenvalues --   -0.66523  -0.65942  -0.63130  -0.62033  -0.60717
 Alpha  occ. eigenvalues --   -0.59808  -0.58770  -0.58316  -0.57502  -0.56455
 Alpha  occ. eigenvalues --   -0.56025  -0.55492  -0.54269  -0.53517  -0.53136
 Alpha  occ. eigenvalues --   -0.51985  -0.51804  -0.50990  -0.50331  -0.49886
 Alpha  occ. eigenvalues --   -0.49062  -0.48713  -0.48422  -0.48315  -0.48008
 Alpha  occ. eigenvalues --   -0.47593  -0.47460  -0.46890  -0.46556  -0.45979
 Alpha  occ. eigenvalues --   -0.45760  -0.45144  -0.44903  -0.44368  -0.44222
 Alpha  occ. eigenvalues --   -0.43733  -0.43584  -0.43291  -0.42890  -0.42234
 Alpha  occ. eigenvalues --   -0.42149  -0.41703  -0.41573  -0.41515  -0.41276
 Alpha  occ. eigenvalues --   -0.40939  -0.40458  -0.40244  -0.39889  -0.39318
 Alpha  occ. eigenvalues --   -0.39139  -0.38966  -0.38624  -0.38446  -0.38333
 Alpha  occ. eigenvalues --   -0.38016  -0.37853  -0.37428  -0.37294  -0.36472
 Alpha  occ. eigenvalues --   -0.36251  -0.35841  -0.35491  -0.34926  -0.34622
 Alpha  occ. eigenvalues --   -0.34210  -0.33983  -0.32848  -0.31896  -0.31682
 Alpha  occ. eigenvalues --   -0.30665  -0.29878  -0.29195  -0.29018  -0.28831
 Alpha  occ. eigenvalues --   -0.26515  -0.26070  -0.26025  -0.25727  -0.25137
 Alpha  occ. eigenvalues --   -0.24683  -0.24021  -0.22926  -0.22365  -0.18581
 Alpha virt. eigenvalues --   -0.10445  -0.07098  -0.06324  -0.01493  -0.00253
 Alpha virt. eigenvalues --    0.00453   0.00550   0.00952   0.02010   0.02735
 Alpha virt. eigenvalues --    0.03301   0.03350   0.03607   0.03708   0.04440

 Mulliken charges:
               1
     1  O   -0.249572
     2  O   -0.200489
     3  O   -0.337794
     4  O   -0.279984
     5  O   -0.137715
     6  O   -0.135523
     7  N   -0.206465
     8  N   -0.209040
     9  N   -0.046237
    10  N   -0.307164
    11  C    0.083246
    12  C    0.208296
    13  C   -0.082334
    14  C   -0.095311
    15  C   -0.071155
    16  C    0.096922
    17  C   -0.177988
    18  C    0.130288
    19  C   -0.025985
    20  C   -0.106328
    21  C    0.064328
    22  C    0.156065
    23  C   -0.142564
    24  C    0.103752
    25  C    0.166513
    26  C   -0.065658
    27  C   -0.022648
    28  C    0.108963
    29  C    0.148155
    30  C   -0.077342
    31  C   -0.008845
    32  C   -0.005477
    33  C   -0.101014
    34  C    0.172390
    35  C    0.044682
    36  C   -0.044415
    37  C    0.137343
    38  C    0.053303
    39  C   -0.135758
    40  C    0.161912
    41  C   -0.042923
    42  C   -0.109205
    43  C    0.004368
    44  H    0.047397
    45  H   -0.006035
    46  H   -0.018322
    47  H    0.147723
    48  H    0.143626
    49  H   -0.006105
    50  H    0.026928
    51  H    0.011247
    52  H   -0.034443
    53  H   -0.005862
    54  H    0.061216
    55  H    0.008513
    56  H    0.020287
    57  H    0.023089
    58  H    0.093881
    59  H    0.002634
    60  H    0.143099
    61  H   -0.009876
    62  H    0.025321
    63  H    0.047177
    64  H    0.047524
    65  H    0.005417
    66  H    0.036587
    67  H    0.039526
    68  H    0.043232
    69  H   -0.025294
    70  H    0.024024
    71  H    0.041210
    72  H    0.224372
    73  H   -0.026015
    74  H    0.062014
    75  H    0.067819
    76  H    0.058704
    77  H    0.228439
    78  H   -0.006374
    79  H    0.041729
 Sum of Mulliken charges =   0.00000

 Dipole moment (field-independent basis, Debye):
    X=              0.6268    Y=              2.7109    Z=              4.0638  Tot=              4.9251
 Quadrupole moment (field-independent basis, Debye-Ang):
   XX=           -224.0288   YY=           -245.6188   ZZ=           -264.1563
   XY=             -4.4318   XZ=             35.5639   YZ=              2.9717

 Normal termination of Gaussian 09 at Tue Jul  9 23:32:43 2019.
