 Gaussian 09, Revision D.01,
 Gaussian 09:  ES64L-G09RevD.01 24-Apr-2013

 --------------------------
 # td=(NStates=1) B3LYP/SVP
 --------------------------

 --
 TD
 --
 Symbolic Z-matrix:
 Charge =  0 Multiplicity = 1

                         Standard orientation:
 ---------------------------------------------------------------------
 Center     Atomic      Atomic             Coordinates (Angstroms)
 Number     Number       Type             X           Y           Z
 ---------------------------------------------------------------------
      1          8           0        5.334036   -0.057381   -3.302125
      2          8           0       -2.819963   -3.417068    2.961232
      3          8           0       -3.156323   -1.217087    3.138477
      4          8           0       -1.367175    7.278333    1.600715
      5          8           0       -0.108281    6.831944   -0.235693
      6          8           0       -2.278769   -4.113083   -0.163167
      7          7           0        2.367382    0.799154    0.612876
      8          7           0        4.426478   -0.660411   -1.254231
      9          7           0       -1.944830    0.697926   -0.239513
     10          7           0       -2.788808   -1.814037   -0.554638
     11          6           0        4.859734   -1.250236    0.012145
     12          6           0        4.495249   -0.435294    1.299863
     13          6           0        3.121166   -0.126660    1.383668
     14          6           0        1.995303   -0.734572    2.177211
     15          6           0        0.772950   -0.188794    1.803268
     16          6           0        1.011110    0.768369    0.810990
     17          6           0        6.360296   -1.412913   -0.257520
     18          6           0       -0.530971   -0.533065    2.506614
     19          6           0        6.728521   -1.015905   -1.527332
     20          6           0        0.236958    1.867092    0.240294
     21          6           0       -1.070051    1.805587   -0.181692
     22          6           0        5.401437   -0.555889   -2.174409
     23          6           0       -1.805059    2.927717   -0.746364
     24          6           0        2.200959   -1.857808    3.090428
     25          6           0        7.286042   -1.887983    0.838254
     26          6           0       -3.099016    2.562215   -1.081026
     27          6           0       -0.973793   -1.995231    2.447040
     28          6           0       -3.101744    1.066666   -0.899380
     29          6           0       -1.320064    4.362886   -0.722975
     30          6           0        7.993969   -0.917014   -2.182043
     31          6           0       -1.744595    5.060641    0.544194
     32          6           0       -4.177694    3.310101   -1.729585
     33          6           0       -4.044061    0.136405   -1.244844
     34          6           0       -2.425032   -2.116527    2.897127
     35          6           0       -3.795751   -1.274397   -1.087704
     36          6           0        9.243156   -0.882895   -1.747216
     37          6           0       -0.945034    6.494400    0.598426
     38          6           0       -4.819337   -2.267810   -1.609023
     39          6           0       -4.364495   -3.472530   -1.272592
     40          6           0       -2.926238   -3.165348   -0.612896
     41          6           0       -6.100941   -1.818703   -2.099366
     42          6           0       -5.067963   -4.784514   -1.337050
     43          6           0       -7.138857   -2.573434   -2.556095
     44          1           0        4.366203   -2.272345    0.090469
     45          1           0        4.873229    0.678948    1.118175
     46          1           0        5.009297   -0.825782    2.187601
     47          1           0        2.689112    1.466595   -0.039323
     48          1           0        3.453771   -0.529458   -1.509143
     49          1           0       -0.402265   -0.397945    3.433785
     50          1           0       -1.409712   -0.038183    2.074192
     51          1           0        0.812840    2.811170   -0.009161
     52          1           0        3.313328   -1.793398    3.538205
     53          1           0        1.701787   -1.591341    4.180542
     54          1           0        2.106900   -2.971016    2.726136
     55          1           0        6.848920   -2.534836    1.763247
     56          1           0        7.898160   -1.056551    1.398239
     57          1           0        8.034639   -2.643401    0.286320
     58          1           0       -1.003167   -2.355055    1.312224
     59          1           0       -0.481788   -2.542124    3.253542
     60          1           0       -1.701710   -0.147474   -0.314708
     61          1           0       -1.730609    4.948849   -1.557979
     62          1           0       -0.179991    4.649232   -0.861018
     63          1           0        7.763798   -0.703230   -3.441903
     64          1           0       -1.511413    4.547125    1.423024
     65          1           0       -2.800295    5.189923    0.573841
     66          1           0       -3.908735    4.487247   -1.897346
     67          1           0       -5.106769    3.096891   -0.929187
     68          1           0       -4.619821    2.940428   -2.766741
     69          1           0       -5.122786    0.436352   -1.616736
     70          1           0        9.669532   -0.903595   -0.831214
     71          1           0       10.126032   -0.720543   -2.473998
     72          1           0       -3.849514   -3.534664    3.139118
     73          1           0       -6.169648   -0.659417   -1.841421
     74          1           0       -5.279859   -4.945195   -2.435166
     75          1           0       -4.124698   -5.457720   -0.947526
     76          1           0       -5.978036   -4.850087   -0.620461
     77          1           0       -0.917044    7.963174    1.558539
     78          1           0       -8.146954   -2.135213   -2.873035
     79          1           0       -7.009400   -3.778405   -2.520582
 ---------------------------------------------------------------------

 SCF Done:  E(RB3LYP) =  -1947.80945394     A.U. after   16 cycles

 Excitation energies and oscillator strengths:

 Excited State   1:      Singlet-A      2.2413 eV  553.19 nm  f=0.5385  <S**2>=0.000
     155 ->156         0.70311
 This state for optimization and/or second-order correction.
 Total Energy, E(TD-HF/TD-KS) =  -1947.72708917
 Copying the excited state density for this state as the 1-particle RhoCI density.

 The electronic state is 1-A.
 Alpha  occ. eigenvalues --  -19.19652 -19.16080 -19.14892 -19.11601 -19.10821
 Alpha  occ. eigenvalues --  -19.09642 -14.38872 -14.36260 -14.36087 -14.30223
 Alpha  occ. eigenvalues --  -10.34399 -10.29709 -10.28660 -10.27843 -10.26151
 Alpha  occ. eigenvalues --  -10.25483 -10.24804 -10.24113 -10.23988 -10.23843
 Alpha  occ. eigenvalues --  -10.23281 -10.23210 -10.23056 -10.22685 -10.22672
 Alpha  occ. eigenvalues --  -10.22109 -10.22018 -10.21622 -10.21514 -10.21405
 Alpha  occ. eigenvalues --  -10.21387 -10.20850 -10.20752 -10.20684 -10.20311
 Alpha  occ. eigenvalues --  -10.19759 -10.19487 -10.19344 -10.18966 -10.18917
 Alpha  occ. eigenvalues --  -10.18850 -10.18538 -10.16880  -1.14337  -1.07203
 Alpha  occ. eigenvalues --   -1.03001  -1.01786  -1.01746  -0.99084  -0.98505
 Alpha  occ. eigenvalues --   -0.98269  -0.94998  -0.94340  -0.83897  -0.82292
 Alpha  occ. eigenvalues --   -0.81906  -0.81588  -0.80771  -0.80418  -0.78618
 Alpha  occ. eigenvalues --   -0.76919  -0.76368  -0.75660  -0.73928  -0.72642
 Alpha  occ. eigenvalues --   -0.71004  -0.70490  -0.69863  -0.69239  -0.68692
 Alpha  occ. eigenvalues --   -0.66549  -0.66530  -0.64508  -0.63078  -0.62321
 Alpha  occ. eigenvalues --   -0.59790  -0.59185  -0.58148  -0.58055  -0.57339
 Alpha  occ. eigenvalues --   -0.56502  -0.55491  -0.54701  -0.54164  -0.53025
 Alpha  occ. eigenvalues --   -0.52060  -0.51149  -0.51024  -0.50921  -0.50479
 Alpha  occ. eigenvalues --   -0.50053  -0.49108  -0.48663  -0.47663  -0.47382
 Alpha  occ. eigenvalues --   -0.47177  -0.46852  -0.46396  -0.45976  -0.45858
 Alpha  occ. eigenvalues --   -0.45440  -0.45124  -0.44552  -0.44229  -0.43874
 Alpha  occ. eigenvalues --   -0.43533  -0.43133  -0.42894  -0.42617  -0.42385
 Alpha  occ. eigenvalues --   -0.42275  -0.41900  -0.41697  -0.41638  -0.41426
 Alpha  occ. eigenvalues --   -0.41004  -0.40884  -0.40711  -0.40246  -0.40032
 Alpha  occ. eigenvalues --   -0.39522  -0.39343  -0.38827  -0.38607  -0.38089
 Alpha  occ. eigenvalues --   -0.37695  -0.37343  -0.36371  -0.36248  -0.36111
 Alpha  occ. eigenvalues --   -0.35425  -0.35400  -0.35153  -0.34859  -0.34396
 Alpha  occ. eigenvalues --   -0.34374  -0.33018  -0.32692  -0.32028  -0.31751
 Alpha  occ. eigenvalues --   -0.31220  -0.30624  -0.30100  -0.29428  -0.28241
 Alpha  occ. eigenvalues --   -0.26731  -0.26447  -0.26148  -0.25321  -0.24986
 Alpha  occ. eigenvalues --   -0.24318  -0.24115  -0.23794  -0.22824  -0.19318
 Alpha virt. eigenvalues --   -0.10509  -0.06315  -0.05901  -0.01634  -0.01305
 Alpha virt. eigenvalues --   -0.00218   0.01497   0.02428   0.02786   0.03048
 Alpha virt. eigenvalues --    0.03581   0.03753   0.04134   0.04549   0.04851

 Mulliken charges:
               1
     1  O   -0.244221
     2  O   -0.243644
     3  O   -0.206738
     4  O   -0.052288
     5  O   -0.237851
     6  O   -0.207431
     7  N   -0.088153
     8  N   -0.174589
     9  N    0.014533
    10  N   -0.164734
    11  C    0.111468
    12  C    0.157243
    13  C   -0.030146
    14  C   -0.135535
    15  C   -0.059470
    16  C    0.011101
    17  C   -0.159385
    18  C    0.222815
    19  C   -0.014426
    20  C   -0.103687
    21  C    0.122358
    22  C    0.138258
    23  C   -0.058751
    24  C   -0.018463
    25  C   -0.057318
    26  C   -0.053399
    27  C   -0.052763
    28  C    0.096578
    29  C    0.005480
    30  C   -0.028393
    31  C    0.038332
    32  C   -0.052879
    33  C   -0.155717
    34  C    0.110348
    35  C    0.015911
    36  C   -0.046494
    37  C    0.130031
    38  C    0.048021
    39  C   -0.247349
    40  C    0.162914
    41  C   -0.024693
    42  C   -0.014688
    43  C   -0.096167
    44  H    0.038951
    45  H    0.016497
    46  H    0.019402
    47  H    0.096237
    48  H    0.128447
    49  H   -0.078454
    50  H    0.015599
    51  H    0.010568
    52  H   -0.002304
    53  H    0.031090
    54  H    0.073864
    55  H    0.039859
    56  H    0.062164
    57  H    0.062664
    58  H    0.094782
    59  H    0.023281
    60  H    0.052434
    61  H    0.009488
    62  H    0.051926
    63  H    0.063708
    64  H    0.019905
    65  H    0.022171
    66  H    0.052190
    67  H    0.056498
    68  H    0.067349
    69  H    0.013964
    70  H   -0.019302
    71  H    0.036215
    72  H    0.213975
    73  H    0.017937
    74  H    0.055781
    75  H    0.059404
    76  H    0.060407
    77  H    0.087993
    78  H    0.042012
    79  H    0.047273
 Sum of Mulliken charges =   0.00000

 Dipole moment (field-independent basis, Debye):
    X=              0.1610    Y=              3.7111    Z=              3.6075  Tot=              5.1781
 Quadrupole moment (field-independent basis, Debye-Ang):
   XX=           -224.2479   YY=           -245.3680   ZZ=           -267.3419
   XY=            -14.5255   XZ=             33.8188   YZ=              1.9306

 Normal termination of Gaussian 09 at Tue Jul  9 22:10:09 2019.
