 Gaussian 09, Revision D.01,
 Gaussian 09:  ES64L-G09RevD.01 24-Apr-2013

 --------------------------
 # td=(NStates=1) B3LYP/SVP
 --------------------------

 --
 TD
 --
 Symbolic Z-matrix:
 Charge =  0 Multiplicity = 1

                         Standard orientation:
 ---------------------------------------------------------------------
 Center     Atomic      Atomic             Coordinates (Angstroms)
 Number     Number       Type             X           Y           Z
 ---------------------------------------------------------------------
      1          8           0        5.355944   -0.134517   -3.271760
      2          8           0       -2.844660   -3.248263    2.943039
      3          8           0       -3.128876   -0.941787    3.130433
      4          8           0       -1.447644    7.360726    1.465824
      5          8           0        0.050538    6.841297   -0.152330
      6          8           0       -2.254974   -3.989050   -0.092522
      7          7           0        2.360820    0.856920    0.450713
      8          7           0        4.404994   -0.570977   -1.318352
      9          7           0       -1.923279    0.680628   -0.276496
     10          7           0       -2.740682   -1.781762   -0.641956
     11          6           0        4.779462   -1.244169   -0.125432
     12          6           0        4.453205   -0.343939    1.180347
     13          6           0        3.006753   -0.001238    1.261903
     14          6           0        2.078133   -0.711004    2.126828
     15          6           0        0.811524   -0.060365    1.840607
     16          6           0        1.024887    0.875335    0.787842
     17          6           0        6.289559   -1.557901   -0.208098
     18          6           0       -0.467584   -0.382835    2.617725
     19          6           0        6.652603   -1.018690   -1.421414
     20          6           0        0.163385    1.840046    0.083564
     21          6           0       -1.153648    1.831338   -0.283909
     22          6           0        5.402078   -0.558971   -2.136280
     23          6           0       -1.848777    2.977031   -0.769788
     24          6           0        2.365949   -1.857763    3.171752
     25          6           0        7.097002   -2.207931    0.820281
     26          6           0       -3.077721    2.489676   -1.170145
     27          6           0       -0.990932   -1.827494    2.544877
     28          6           0       -3.104266    1.051991   -0.830427
     29          6           0       -1.314717    4.395322   -0.826478
     30          6           0        7.960177   -0.916106   -2.095469
     31          6           0       -1.613707    5.169614    0.439838
     32          6           0       -4.248092    3.231416   -1.798279
     33          6           0       -4.056068    0.020961   -1.214219
     34          6           0       -2.452483   -2.027096    2.921133
     35          6           0       -3.820236   -1.281368   -1.093862
     36          6           0        9.195585   -1.054034   -1.573100
     37          6           0       -0.939139    6.531674    0.494282
     38          6           0       -4.861240   -2.275562   -1.489437
     39          6           0       -4.277013   -3.480849   -1.176264
     40          6           0       -3.016620   -3.252728   -0.697721
     41          6           0       -6.260193   -2.107813   -1.949944
     42          6           0       -4.780142   -4.891425   -1.150572
     43          6           0       -7.104485   -3.002348   -2.404749
     44          1           0        4.298554   -2.186472   -0.021353
     45          1           0        4.916965    0.570564    1.201859
     46          1           0        5.012805   -0.809627    2.054192
     47          1           0        2.824882    1.408678   -0.258814
     48          1           0        3.459445   -0.535281   -1.563223
     49          1           0       -0.207186   -0.188027    3.784974
     50          1           0       -1.298923    0.343583    2.548259
     51          1           0        0.640007    2.721628   -0.340659
     52          1           0        3.375589   -2.114312    3.203367
     53          1           0        2.247027   -1.461728    4.207885
     54          1           0        1.640849   -2.630429    2.914313
     55          1           0        6.549394   -2.946026    1.375239
     56          1           0        7.381148   -1.484778    1.547617
     57          1           0        7.936454   -2.510484    0.596548
     58          1           0       -0.916121   -2.314812    1.493785
     59          1           0       -0.541377   -2.608653    3.116380
     60          1           0       -1.639258   -0.390018   -0.075965
     61          1           0       -1.705127    5.145609   -1.773765
     62          1           0       -0.359610    4.547532   -0.818897
     63          1           0        7.822228   -0.536363   -3.230373
     64          1           0       -1.133903    4.825281    1.454462
     65          1           0       -2.682508    5.376323    0.775408
     66          1           0       -3.879849    4.301034   -1.986087
     67          1           0       -5.128957    3.214217   -1.171482
     68          1           0       -4.656983    2.528079   -2.801062
     69          1           0       -4.845857    0.468182   -1.950671
     70          1           0        9.651273   -1.162621   -0.413396
     71          1           0       10.128316   -0.923530   -2.445626
     72          1           0       -3.773318   -3.131557    3.087353
     73          1           0       -6.542216   -0.984217   -2.048659
     74          1           0       -5.375315   -5.210439   -2.224275
     75          1           0       -3.731630   -5.489567   -0.878062
     76          1           0       -5.619787   -4.979038   -0.395385
     77          1           0       -0.878942    8.350795    1.145528
     78          1           0       -7.961858   -2.669427   -2.713118
     79          1           0       -6.921250   -4.051677   -2.327501
 ---------------------------------------------------------------------

 SCF Done:  E(RB3LYP) =  -1947.77335997     A.U. after   18 cycles

 Excitation energies and oscillator strengths:

 Excited State   1:      Singlet-A      2.0163 eV  614.91 nm  f=0.4687  <S**2>=0.000
     155 ->156         0.69567
     155 <-156        -0.11464
 This state for optimization and/or second-order correction.
 Total Energy, E(TD-HF/TD-KS) =  -1947.69926261
 Copying the excited state density for this state as the 1-particle RhoCI density.

 The electronic state is 1-A.
 Alpha  occ. eigenvalues --  -19.20012 -19.19786 -19.13738 -19.10383 -19.10362
 Alpha  occ. eigenvalues --  -19.08727 -14.39682 -14.36734 -14.36034 -14.27958
 Alpha  occ. eigenvalues --  -10.32858 -10.31230 -10.27615 -10.25501 -10.25187
 Alpha  occ. eigenvalues --  -10.24483 -10.23805 -10.23723 -10.23715 -10.22955
 Alpha  occ. eigenvalues --  -10.22489 -10.22479 -10.22391 -10.22361 -10.21812
 Alpha  occ. eigenvalues --  -10.21752 -10.21712 -10.21548 -10.21107 -10.21004
 Alpha  occ. eigenvalues --  -10.20990 -10.20588 -10.20376 -10.20254 -10.20238
 Alpha  occ. eigenvalues --  -10.20235 -10.20087 -10.20067 -10.19321 -10.19219
 Alpha  occ. eigenvalues --  -10.18447 -10.18159 -10.18010  -1.12399  -1.08511
 Alpha  occ. eigenvalues --   -1.03852  -1.01543  -0.99824  -0.99510  -0.98259
 Alpha  occ. eigenvalues --   -0.96240  -0.95947  -0.92457  -0.83573  -0.83242
 Alpha  occ. eigenvalues --   -0.81203  -0.80747  -0.80480  -0.79106  -0.78626
 Alpha  occ. eigenvalues --   -0.77097  -0.76582  -0.75900  -0.74459  -0.73295
 Alpha  occ. eigenvalues --   -0.72368  -0.71201  -0.69603  -0.68980  -0.68192
 Alpha  occ. eigenvalues --   -0.67970  -0.66511  -0.64125  -0.62098  -0.61134
 Alpha  occ. eigenvalues --   -0.60508  -0.59328  -0.57992  -0.57670  -0.57111
 Alpha  occ. eigenvalues --   -0.56066  -0.55371  -0.55210  -0.54488  -0.53485
 Alpha  occ. eigenvalues --   -0.52311  -0.51432  -0.50563  -0.50118  -0.49542
 Alpha  occ. eigenvalues --   -0.49252  -0.48784  -0.48778  -0.48355  -0.47995
 Alpha  occ. eigenvalues --   -0.47813  -0.47020  -0.46803  -0.46161  -0.45493
 Alpha  occ. eigenvalues --   -0.45369  -0.45166  -0.44866  -0.44550  -0.43971
 Alpha  occ. eigenvalues --   -0.43803  -0.43435  -0.43159  -0.42967  -0.42825
 Alpha  occ. eigenvalues --   -0.42331  -0.42168  -0.41762  -0.41366  -0.40956
 Alpha  occ. eigenvalues --   -0.40905  -0.40539  -0.40178  -0.39690  -0.39469
 Alpha  occ. eigenvalues --   -0.39412  -0.39240  -0.39105  -0.38608  -0.38521
 Alpha  occ. eigenvalues --   -0.38033  -0.37897  -0.37720  -0.37661  -0.36837
 Alpha  occ. eigenvalues --   -0.36242  -0.35612  -0.34793  -0.34436  -0.33913
 Alpha  occ. eigenvalues --   -0.33320  -0.32709  -0.32596  -0.32062  -0.31767
 Alpha  occ. eigenvalues --   -0.31243  -0.29905  -0.29170  -0.28830  -0.27813
 Alpha  occ. eigenvalues --   -0.27030  -0.26389  -0.25491  -0.25183  -0.24919
 Alpha  occ. eigenvalues --   -0.24187  -0.23965  -0.23456  -0.22203  -0.18419
 Alpha virt. eigenvalues --   -0.10443  -0.06711  -0.05531  -0.01692  -0.00393
 Alpha virt. eigenvalues --    0.00220   0.01147   0.01342   0.01746   0.02784
 Alpha virt. eigenvalues --    0.02853   0.03478   0.04194   0.04490   0.04944

 Mulliken charges:
               1
     1  O   -0.230025
     2  O   -0.067680
     3  O   -0.329450
     4  O   -0.289335
     5  O   -0.248925
     6  O   -0.209724
     7  N   -0.036552
     8  N   -0.056144
     9  N   -0.105890
    10  N   -0.290573
    11  C    0.084378
    12  C    0.195940
    13  C   -0.106881
    14  C   -0.170101
    15  C   -0.085520
    16  C    0.079111
    17  C   -0.204227
    18  C    0.061918
    19  C   -0.085713
    20  C   -0.106293
    21  C    0.075963
    22  C    0.077255
    23  C   -0.022693
    24  C    0.154847
    25  C    0.290912
    26  C   -0.143865
    27  C   -0.022803
    28  C    0.080302
    29  C    0.170714
    30  C   -0.005477
    31  C   -0.056712
    32  C    0.041828
    33  C   -0.209491
    34  C    0.124576
    35  C    0.164118
    36  C   -0.147104
    37  C    0.140967
    38  C    0.028200
    39  C   -0.172356
    40  C    0.141849
    41  C   -0.044639
    42  C   -0.031872
    43  C    0.085885
    44  H    0.006934
    45  H   -0.040587
    46  H    0.004711
    47  H    0.123003
    48  H    0.112314
    49  H    0.015329
    50  H    0.032958
    51  H   -0.021878
    52  H   -0.025750
    53  H    0.021878
    54  H    0.045685
    55  H    0.006792
    56  H    0.006459
    57  H   -0.078855
    58  H    0.075256
    59  H    0.007019
    60  H    0.218992
    61  H    0.056980
    62  H   -0.058641
    63  H    0.063017
    64  H    0.067242
    65  H    0.042910
    66  H    0.035592
    67  H    0.036033
    68  H    0.053133
    69  H   -0.001381
    70  H    0.063221
    71  H    0.050851
    72  H    0.166206
    73  H    0.001974
    74  H    0.051381
    75  H    0.076408
    76  H    0.041661
    77  H    0.257555
    78  H   -0.027377
    79  H   -0.005744
 Sum of Mulliken charges =   0.00000

 Dipole moment (field-independent basis, Debye):
    X=              0.4933    Y=              2.1517    Z=              3.4110  Tot=              4.0631
 Quadrupole moment (field-independent basis, Debye-Ang):
   XX=           -226.1010   YY=           -240.7778   ZZ=           -266.2938
   XY=            -12.8631   XZ=             38.0226   YZ=             -6.5847

 Normal termination of Gaussian 09 at Mon Jul  8 01:19:45 2019.
