 Gaussian 09, Revision D.01,
 Gaussian 09:  ES64L-G09RevD.01 24-Apr-2013

 --------------------------
 # td=(NStates=1) B3LYP/SVP
 --------------------------

 --
 TD
 --
 Symbolic Z-matrix:
 Charge =  0 Multiplicity = 1

                         Standard orientation:
 ---------------------------------------------------------------------
 Center     Atomic      Atomic             Coordinates (Angstroms)
 Number     Number       Type             X           Y           Z
 ---------------------------------------------------------------------
      1          8           0        5.485073   -0.299612   -3.415136
      2          8           0       -2.854679   -2.920447    3.318806
      3          8           0       -3.188737   -0.841173    3.552286
      4          8           0       -1.520617    6.903533    1.749951
      5          8           0       -0.276202    7.007282   -0.108565
      6          8           0       -2.016286   -3.974948    0.028310
      7          7           0        2.380813    0.765846    0.574299
      8          7           0        4.424591   -0.576015   -1.220000
      9          7           0       -1.890937    0.692179   -0.532221
     10          7           0       -2.784230   -1.830806   -0.401952
     11          6           0        4.863813   -1.170693    0.023602
     12          6           0        4.465194   -0.421907    1.253027
     13          6           0        2.991913   -0.082652    1.372682
     14          6           0        1.972991   -0.617433    2.176380
     15          6           0        0.776324    0.067427    1.832326
     16          6           0        1.024139    0.876778    0.751094
     17          6           0        6.381956   -1.316652   -0.157553
     18          6           0       -0.592305   -0.282059    2.538478
     19          6           0        6.719762   -0.906487   -1.385173
     20          6           0        0.246091    1.801069    0.115008
     21          6           0       -1.056837    1.779798   -0.435690
     22          6           0        5.472935   -0.563095   -2.220222
     23          6           0       -1.785950    2.881295   -1.121630
     24          6           0        2.122582   -1.698710    3.254764
     25          6           0        7.224568   -1.923469    0.931219
     26          6           0       -3.075430    2.466287   -1.432917
     27          6           0       -1.114589   -1.655768    2.516144
     28          6           0       -3.090505    1.006552   -1.221565
     29          6           0       -1.466165    4.405881   -0.998760
     30          6           0        8.050047   -0.925836   -2.127224
     31          6           0       -1.842803    5.017738    0.343555
     32          6           0       -4.204437    3.116327   -2.071431
     33          6           0       -4.035714    0.017046   -1.472125
     34          6           0       -2.468746   -1.787023    3.071487
     35          6           0       -3.861384   -1.351703   -1.109888
     36          6           0        9.219126   -0.843195   -1.557163
     37          6           0       -1.131574    6.353085    0.548961
     38          6           0       -4.761944   -2.461997   -1.530371
     39          6           0       -4.239139   -3.615696   -1.117315
     40          6           0       -2.874954   -3.228341   -0.400576
     41          6           0       -6.060359   -2.179357   -2.151657
     42          6           0       -4.598460   -5.002412   -1.276296
     43          6           0       -6.899385   -3.112872   -2.521884
     44          1           0        4.386667   -2.138419    0.073164
     45          1           0        5.050805    0.534201    1.102448
     46          1           0        4.485533   -1.013280    2.168860
     47          1           0        2.723024    1.358726   -0.271073
     48          1           0        3.486686   -0.705681   -1.496156
     49          1           0       -0.461824    0.365105    3.601769
     50          1           0       -1.454578    0.316240    2.047927
     51          1           0        0.761225    2.892342   -0.264493
     52          1           0        3.183850   -1.786195    3.619663
     53          1           0        1.428824   -1.730858    4.094476
     54          1           0        1.754834   -2.699939    2.858944
     55          1           0        6.698175   -2.637281    1.438580
     56          1           0        7.484116   -1.093416    1.678532
     57          1           0        8.015925   -2.343989    0.248697
     58          1           0       -1.022677   -2.229476    1.508003
     59          1           0       -0.682296   -2.407630    3.303967
     60          1           0       -1.748249   -0.269019   -0.242197
     61          1           0       -2.024340    4.990466   -1.864249
     62          1           0       -0.403489    4.598012   -1.173483
     63          1           0        8.113653   -0.914413   -3.213315
     64          1           0       -1.588401    4.353701    1.216340
     65          1           0       -2.892023    5.102869    0.344530
     66          1           0       -4.177003    4.161176   -2.280830
     67          1           0       -5.285178    3.201647   -1.393179
     68          1           0       -4.451898    2.630508   -2.870987
     69          1           0       -4.838187    0.529458   -1.970753
     70          1           0        9.292943   -0.769170   -0.478751
     71          1           0       10.142962   -0.593128   -2.285354
     72          1           0       -3.799407   -3.027029    3.673774
     73          1           0       -6.386825   -1.003036   -2.177000
     74          1           0       -4.613962   -5.599811   -2.230302
     75          1           0       -3.950031   -5.741227   -0.636540
     76          1           0       -5.623932   -5.162561   -0.811310
     77          1           0       -0.997402    7.786682    1.614558
     78          1           0       -7.982653   -2.847787   -2.911197
     79          1           0       -6.789500   -4.314850   -2.484886
 ---------------------------------------------------------------------

 SCF Done:  E(RB3LYP) =  -1947.85972714     A.U. after   16 cycles

 Excitation energies and oscillator strengths:

 Excited State   1:      Singlet-A      2.1344 eV  580.89 nm  f=0.5112  <S**2>=0.000
     155 ->156         0.70236
     155 <-156        -0.12540
 This state for optimization and/or second-order correction.
 Total Energy, E(TD-HF/TD-KS) =  -1947.78129051
 Copying the excited state density for this state as the 1-particle RhoCI density.

 The electronic state is 1-A.
 Alpha  occ. eigenvalues --  -19.18754 -19.17837 -19.14222 -19.11908 -19.11103
 Alpha  occ. eigenvalues --  -19.07731 -14.38914 -14.36313 -14.35808 -14.29638
 Alpha  occ. eigenvalues --  -10.33690 -10.30113 -10.29515 -10.27114 -10.25349
 Alpha  occ. eigenvalues --  -10.25063 -10.24620 -10.24401 -10.23586 -10.23540
 Alpha  occ. eigenvalues --  -10.22445 -10.22377 -10.22356 -10.22335 -10.22149
 Alpha  occ. eigenvalues --  -10.22139 -10.21785 -10.21145 -10.21066 -10.20892
 Alpha  occ. eigenvalues --  -10.20774 -10.20756 -10.20683 -10.20328 -10.20032
 Alpha  occ. eigenvalues --  -10.19988 -10.19915 -10.19834 -10.19764 -10.19758
 Alpha  occ. eigenvalues --  -10.19701 -10.19393 -10.19345  -1.12118  -1.09073
 Alpha  occ. eigenvalues --   -1.02674  -1.01808  -1.00579  -0.98634  -0.97364
 Alpha  occ. eigenvalues --   -0.94619  -0.93855  -0.91273  -0.82995  -0.82607
 Alpha  occ. eigenvalues --   -0.82463  -0.80845  -0.80724  -0.80522  -0.78767
 Alpha  occ. eigenvalues --   -0.77803  -0.77157  -0.76313  -0.75179  -0.73337
 Alpha  occ. eigenvalues --   -0.72182  -0.71575  -0.70222  -0.69420  -0.68090
 Alpha  occ. eigenvalues --   -0.67691  -0.66234  -0.64171  -0.61220  -0.60246
 Alpha  occ. eigenvalues --   -0.59806  -0.58637  -0.58281  -0.57863  -0.57527
 Alpha  occ. eigenvalues --   -0.56572  -0.56021  -0.55227  -0.53990  -0.53120
 Alpha  occ. eigenvalues --   -0.52306  -0.52071  -0.51481  -0.50389  -0.49953
 Alpha  occ. eigenvalues --   -0.49295  -0.48892  -0.48357  -0.48255  -0.48040
 Alpha  occ. eigenvalues --   -0.47855  -0.47209  -0.46735  -0.46080  -0.45876
 Alpha  occ. eigenvalues --   -0.45265  -0.44992  -0.44544  -0.44330  -0.44144
 Alpha  occ. eigenvalues --   -0.43637  -0.43203  -0.42928  -0.42859  -0.42824
 Alpha  occ. eigenvalues --   -0.42470  -0.41916  -0.41631  -0.41473  -0.41125
 Alpha  occ. eigenvalues --   -0.40921  -0.40621  -0.40444  -0.40153  -0.39874
 Alpha  occ. eigenvalues --   -0.39775  -0.39512  -0.39223  -0.38749  -0.38472
 Alpha  occ. eigenvalues --   -0.38266  -0.38059  -0.37687  -0.36981  -0.36834
 Alpha  occ. eigenvalues --   -0.35948  -0.35805  -0.35601  -0.34987  -0.34084
 Alpha  occ. eigenvalues --   -0.33248  -0.32775  -0.32244  -0.32039  -0.31625
 Alpha  occ. eigenvalues --   -0.31341  -0.29404  -0.29119  -0.27884  -0.27735
 Alpha  occ. eigenvalues --   -0.27555  -0.26503  -0.26273  -0.25460  -0.25164
 Alpha  occ. eigenvalues --   -0.24381  -0.24284  -0.23711  -0.22785  -0.19309
 Alpha virt. eigenvalues --   -0.11213  -0.06402  -0.05097  -0.02469  -0.00602
 Alpha virt. eigenvalues --    0.00313   0.00689   0.02173   0.02684   0.02945
 Alpha virt. eigenvalues --    0.03668   0.04099   0.04253   0.04493   0.04757

 Mulliken charges:
               1
     1  O   -0.206265
     2  O   -0.090181
     3  O   -0.341809
     4  O   -0.221915
     5  O   -0.278037
     6  O   -0.198033
     7  N   -0.042417
     8  N   -0.240561
     9  N   -0.089344
    10  N   -0.305171
    11  C    0.093972
    12  C    0.273113
    13  C   -0.160869
    14  C   -0.119949
    15  C   -0.075231
    16  C    0.062296
    17  C   -0.203677
    18  C    0.013731
    19  C   -0.061667
    20  C   -0.122820
    21  C    0.053618
    22  C    0.196921
    23  C   -0.089158
    24  C    0.071157
    25  C    0.127087
    26  C   -0.057584
    27  C   -0.019196
    28  C    0.026080
    29  C    0.018815
    30  C   -0.000837
    31  C    0.050879
    32  C    0.098833
    33  C   -0.058365
    34  C    0.085807
    35  C    0.147568
    36  C   -0.062492
    37  C    0.169335
    38  C    0.054892
    39  C   -0.165922
    40  C    0.158831
    41  C   -0.008179
    42  C   -0.000586
    43  C   -0.113697
    44  H    0.000662
    45  H   -0.000104
    46  H   -0.013475
    47  H    0.143949
    48  H    0.115662
    49  H    0.046780
    50  H    0.030840
    51  H    0.030683
    52  H    0.021661
    53  H    0.012313
    54  H    0.026985
    55  H   -0.006347
    56  H    0.053015
    57  H    0.054455
    58  H    0.096009
    59  H    0.030660
    60  H    0.132754
    61  H    0.036269
    62  H    0.020677
    63  H    0.013010
    64  H    0.064916
    65  H    0.028522
    66  H   -0.000382
    67  H    0.035298
    68  H   -0.002487
    69  H   -0.050571
    70  H    0.012600
    71  H    0.050375
    72  H    0.217558
    73  H    0.038812
    74  H    0.047093
    75  H    0.027616
    76  H    0.027263
    77  H    0.200126
    78  H    0.034532
    79  H    0.053294
 Sum of Mulliken charges =   0.00000

 Dipole moment (field-independent basis, Debye):
    X=             -0.0177    Y=              0.5180    Z=              1.4910  Tot=              1.5786
 Quadrupole moment (field-independent basis, Debye-Ang):
   XX=           -222.4334   YY=           -248.0933   ZZ=           -267.2277
   XY=             -7.9812   XZ=             33.3962   YZ=             -6.3727

 Normal termination of Gaussian 09 at Tue Jul  9 00:09:00 2019.
