 Gaussian 09, Revision D.01,
 Gaussian 09:  ES64L-G09RevD.01 24-Apr-2013

 --------------------------
 # td=(NStates=1) B3LYP/SVP
 --------------------------

 --
 TD
 --
 Symbolic Z-matrix:
 Charge =  0 Multiplicity = 1

                         Standard orientation:
 ---------------------------------------------------------------------
 Center     Atomic      Atomic             Coordinates (Angstroms)
 Number     Number       Type             X           Y           Z
 ---------------------------------------------------------------------
      1          8           0        5.312679   -0.175055   -3.317796
      2          8           0       -3.133052   -3.120566    3.055092
      3          8           0       -3.152389   -0.871343    3.415515
      4          8           0       -1.059320    7.151935    1.612072
      5          8           0       -0.585222    7.043568   -0.594162
      6          8           0       -2.114086   -4.022190   -0.152555
      7          7           0        2.461461    0.868966    0.571539
      8          7           0        4.487730   -0.498957   -1.194186
      9          7           0       -1.855002    0.740350   -0.265202
     10          7           0       -2.732109   -1.870667   -0.575166
     11          6           0        4.923199   -1.217695   -0.021657
     12          6           0        4.555866   -0.438084    1.272444
     13          6           0        2.999462   -0.207856    1.294590
     14          6           0        2.060550   -0.783629    2.041828
     15          6           0        0.800048   -0.154047    1.772779
     16          6           0        1.083701    0.926658    0.842504
     17          6           0        6.422056   -1.440331   -0.202948
     18          6           0       -0.484375   -0.406425    2.532100
     19          6           0        6.720159   -1.007379   -1.467881
     20          6           0        0.251716    1.885928    0.192833
     21          6           0       -1.063838    1.829808   -0.171394
     22          6           0        5.444467   -0.527724   -2.187938
     23          6           0       -1.808864    2.983231   -0.749697
     24          6           0        2.175374   -1.882857    3.143356
     25          6           0        7.260395   -2.144786    0.811447
     26          6           0       -3.102039    2.518186   -0.995325
     27          6           0       -1.191267   -1.879106    2.533306
     28          6           0       -3.080886    1.045813   -0.839805
     29          6           0       -1.439131    4.373310   -0.837733
     30          6           0        8.048944   -0.908667   -2.190808
     31          6           0       -1.604153    5.098360    0.440654
     32          6           0       -4.383317    3.129823   -1.727342
     33          6           0       -4.098378    0.124986   -1.240602
     34          6           0       -2.629965   -1.847243    3.010368
     35          6           0       -3.867448   -1.309670   -1.157775
     36          6           0        9.181727   -0.863735   -1.547637
     37          6           0       -1.019610    6.516639    0.387379
     38          6           0       -4.745481   -2.304034   -1.617401
     39          6           0       -4.203129   -3.598395   -1.222329
     40          6           0       -2.916277   -3.168282   -0.594663
     41          6           0       -6.129266   -2.069719   -2.181344
     42          6           0       -4.756623   -4.909252   -1.307547
     43          6           0       -7.090496   -3.041040   -2.461605
     44          1           0        4.581927   -2.255869    0.111426
     45          1           0        4.994864    0.676378    1.115477
     46          1           0        4.914798   -0.885711    2.142535
     47          1           0        3.024177    1.699551    0.160965
     48          1           0        3.320366   -0.559325   -1.333792
     49          1           0       -0.361306   -0.049055    3.711399
     50          1           0       -1.244960    0.188675    2.109762
     51          1           0        0.698414    2.905526    0.208671
     52          1           0        3.296565   -1.866219    3.393279
     53          1           0        1.688588   -1.715640    3.954634
     54          1           0        1.941291   -2.790033    2.788213
     55          1           0        6.576087   -2.911101    1.339654
     56          1           0        7.821771   -1.617627    1.435042
     57          1           0        8.132358   -2.505019    0.185378
     58          1           0       -1.132732   -2.323424    1.512417
     59          1           0       -0.380871   -2.560199    3.148812
     60          1           0       -1.731534   -0.307142   -0.057410
     61          1           0       -1.885779    4.729000   -1.812210
     62          1           0       -0.392848    4.181242   -1.243166
     63          1           0        7.969648   -0.557713   -3.116394
     64          1           0       -1.271341    4.528798    1.299835
     65          1           0       -2.706064    5.274299    0.792098
     66          1           0       -4.220415    4.180612   -1.931329
     67          1           0       -5.126319    2.800749   -1.006351
     68          1           0       -4.638403    2.791407   -2.847024
     69          1           0       -5.038782    0.464857   -1.567136
     70          1           0        9.272453   -0.967272   -0.465828
     71          1           0       10.201961   -0.591191   -2.022816
     72          1           0       -4.138279   -3.004573    3.233187
     73          1           0       -6.481763   -0.879738   -2.313022
     74          1           0       -4.740643   -5.373086   -2.419598
     75          1           0       -4.058874   -5.611346   -0.633450
     76          1           0       -5.914653   -5.096965   -1.062377
     77          1           0       -0.654546    8.042801    1.533930
     78          1           0       -8.016990   -2.619317   -3.018887
     79          1           0       -6.860347   -4.081646   -2.543094
 ---------------------------------------------------------------------

 SCF Done:  E(RB3LYP) =  -1947.85908020     A.U. after   19 cycles

 Excitation energies and oscillator strengths:

 Excited State   1:      Singlet-A      1.9917 eV  622.50 nm  f=0.1805  <S**2>=0.000
     153 ->156        -0.26303
     154 ->156         0.40881
     155 ->156         0.50942
 This state for optimization and/or second-order correction.
 Total Energy, E(TD-HF/TD-KS) =  -1947.78588621
 Copying the excited state density for this state as the 1-particle RhoCI density.

 The electronic state is 1-A.
 Alpha  occ. eigenvalues --  -19.18644 -19.17106 -19.13988 -19.12206 -19.10236
 Alpha  occ. eigenvalues --  -19.08960 -14.38980 -14.37493 -14.35881 -14.28841
 Alpha  occ. eigenvalues --  -10.33215 -10.30966 -10.28541 -10.25635 -10.25235
 Alpha  occ. eigenvalues --  -10.25103 -10.24312 -10.23974 -10.23723 -10.23333
 Alpha  occ. eigenvalues --  -10.22964 -10.22612 -10.22434 -10.22306 -10.21954
 Alpha  occ. eigenvalues --  -10.21803 -10.21766 -10.21626 -10.21612 -10.21191
 Alpha  occ. eigenvalues --  -10.20882 -10.20665 -10.20400 -10.20344 -10.20274
 Alpha  occ. eigenvalues --  -10.20243 -10.20133 -10.20022 -10.20007 -10.19792
 Alpha  occ. eigenvalues --  -10.19182 -10.19070 -10.18432  -1.09880  -1.08310
 Alpha  occ. eigenvalues --   -1.03555  -1.01612  -1.00285  -0.99624  -0.98691
 Alpha  occ. eigenvalues --   -0.97413  -0.93757  -0.91750  -0.84279  -0.81721
 Alpha  occ. eigenvalues --   -0.81583  -0.80684  -0.79364  -0.78951  -0.77949
 Alpha  occ. eigenvalues --   -0.77299  -0.75826  -0.74844  -0.74110  -0.72469
 Alpha  occ. eigenvalues --   -0.71728  -0.71335  -0.70280  -0.69292  -0.68757
 Alpha  occ. eigenvalues --   -0.66369  -0.65537  -0.63357  -0.61160  -0.60503
 Alpha  occ. eigenvalues --   -0.60141  -0.58486  -0.57793  -0.57389  -0.56367
 Alpha  occ. eigenvalues --   -0.56243  -0.55986  -0.54576  -0.54402  -0.52653
 Alpha  occ. eigenvalues --   -0.52416  -0.51509  -0.50975  -0.50950  -0.49422
 Alpha  occ. eigenvalues --   -0.48988  -0.48704  -0.48116  -0.47512  -0.47165
 Alpha  occ. eigenvalues --   -0.47120  -0.46928  -0.46771  -0.45845  -0.45612
 Alpha  occ. eigenvalues --   -0.45391  -0.44971  -0.44681  -0.44410  -0.44174
 Alpha  occ. eigenvalues --   -0.43911  -0.43443  -0.43322  -0.43029  -0.42690
 Alpha  occ. eigenvalues --   -0.42455  -0.42226  -0.42134  -0.41945  -0.41441
 Alpha  occ. eigenvalues --   -0.40766  -0.40580  -0.40420  -0.40017  -0.39645
 Alpha  occ. eigenvalues --   -0.39297  -0.39050  -0.38905  -0.38717  -0.38254
 Alpha  occ. eigenvalues --   -0.38148  -0.38014  -0.37452  -0.37432  -0.36994
 Alpha  occ. eigenvalues --   -0.36014  -0.35588  -0.34700  -0.34095  -0.33608
 Alpha  occ. eigenvalues --   -0.33407  -0.33371  -0.33027  -0.31963  -0.31718
 Alpha  occ. eigenvalues --   -0.31654  -0.30560  -0.29533  -0.27990  -0.27688
 Alpha  occ. eigenvalues --   -0.27397  -0.27070  -0.26410  -0.25811  -0.25149
 Alpha  occ. eigenvalues --   -0.24326  -0.23796  -0.23385  -0.21640  -0.19696
 Alpha virt. eigenvalues --   -0.11749  -0.07212  -0.04944  -0.01776  -0.00675
 Alpha virt. eigenvalues --    0.00034   0.00963   0.01120   0.02737   0.03296
 Alpha virt. eigenvalues --    0.03493   0.03922   0.04464   0.04755   0.04930

 Mulliken charges:
               1
     1  O   -0.182998
     2  O   -0.220637
     3  O   -0.192565
     4  O   -0.218777
     5  O   -0.197656
     6  O   -0.248847
     7  N   -0.151474
     8  N   -0.257020
     9  N   -0.086090
    10  N   -0.244837
    11  C    0.060857
    12  C    0.195734
    13  C   -0.100360
    14  C   -0.144378
    15  C   -0.082677
    16  C    0.062681
    17  C   -0.172475
    18  C    0.033811
    19  C   -0.129884
    20  C   -0.084912
    21  C    0.112046
    22  C    0.166687
    23  C   -0.172601
    24  C    0.238280
    25  C    0.129295
    26  C   -0.120600
    27  C   -0.094069
    28  C    0.093164
    29  C    0.118091
    30  C    0.111542
    31  C    0.022785
    32  C    0.049707
    33  C   -0.067066
    34  C    0.169803
    35  C    0.099377
    36  C   -0.058275
    37  C    0.141600
    38  C    0.009991
    39  C   -0.101056
    40  C    0.111586
    41  C   -0.077678
    42  C   -0.070900
    43  C   -0.044542
    44  H    0.017940
    45  H    0.009344
    46  H   -0.020990
    47  H    0.160896
    48  H    0.191307
    49  H    0.041130
    50  H   -0.012453
    51  H    0.002950
    52  H   -0.009108
    53  H   -0.027053
    54  H    0.006565
    55  H    0.040804
    56  H   -0.003046
    57  H    0.030642
    58  H    0.072890
    59  H    0.047357
    60  H    0.176830
    61  H    0.026889
    62  H    0.021878
    63  H   -0.043694
    64  H    0.034707
    65  H    0.057224
    66  H    0.013085
    67  H    0.048299
    68  H    0.055022
    69  H   -0.046467
    70  H    0.005668
    71  H    0.040500
    72  H    0.197593
    73  H    0.036172
    74  H    0.056918
    75  H    0.062689
    76  H    0.057060
    77  H    0.189178
    78  H    0.039746
    79  H    0.016864
 Sum of Mulliken charges =   0.00000

 Dipole moment (field-independent basis, Debye):
    X=              0.7596    Y=              3.5704    Z=              3.4304  Tot=              5.0093
 Quadrupole moment (field-independent basis, Debye-Ang):
   XX=           -217.5800   YY=           -247.1290   ZZ=           -267.2335
   XY=             -7.1816   XZ=             34.3054   YZ=              3.5326

 Normal termination of Gaussian 09 at Mon Jul  8 21:04:20 2019.
