 Gaussian 09, Revision D.01,
 Gaussian 09:  ES64L-G09RevD.01 24-Apr-2013

 --------------------------
 # td=(NStates=1) B3LYP/SVP
 --------------------------

 --
 TD
 --
 Symbolic Z-matrix:
 Charge =  0 Multiplicity = 1

                         Standard orientation:
 ---------------------------------------------------------------------
 Center     Atomic      Atomic             Coordinates (Angstroms)
 Number     Number       Type             X           Y           Z
 ---------------------------------------------------------------------
      1          8           0        5.252933   -0.328043   -3.372840
      2          8           0       -2.784001   -2.933082    3.518396
      3          8           0       -3.160206   -0.781153    3.314019
      4          8           0       -1.381039    7.223790    1.524208
      5          8           0       -0.490132    6.978919   -0.605285
      6          8           0       -2.044047   -4.096805   -0.068424
      7          7           0        2.428608    1.016280    0.630977
      8          7           0        4.338292   -0.525366   -1.208733
      9          7           0       -1.898298    0.631993   -0.334474
     10          7           0       -2.652855   -1.856921   -0.605103
     11          6           0        4.787246   -1.108446    0.050304
     12          6           0        4.446184   -0.319868    1.261308
     13          6           0        3.046282    0.059665    1.418569
     14          6           0        2.041085   -0.650516    2.205504
     15          6           0        0.842113    0.080605    1.815419
     16          6           0        1.046879    0.979058    0.823855
     17          6           0        6.304029   -1.387407   -0.210600
     18          6           0       -0.470197   -0.153990    2.509338
     19          6           0        6.580604   -1.093565   -1.416548
     20          6           0        0.160593    1.890057    0.203852
     21          6           0       -1.168015    1.795784   -0.314312
     22          6           0        5.329469   -0.584384   -2.151326
     23          6           0       -1.902132    2.888696   -0.899316
     24          6           0        2.182439   -1.611283    3.283142
     25          6           0        7.240464   -1.926975    0.838826
     26          6           0       -3.062414    2.273626   -1.273423
     27          6           0       -0.966189   -1.637186    2.397237
     28          6           0       -3.082168    0.896478   -1.068468
     29          6           0       -1.430839    4.311009   -0.997817
     30          6           0        7.827394   -1.094245   -2.170951
     31          6           0       -1.585929    5.066740    0.453263
     32          6           0       -4.273980    3.008025   -1.961138
     33          6           0       -4.022125    0.009660   -1.370560
     34          6           0       -2.483242   -1.756341    3.126603
     35          6           0       -3.763212   -1.380927   -1.118599
     36          6           0        9.169480   -0.971607   -1.776804
     37          6           0       -1.089916    6.485414    0.375933
     38          6           0       -4.797317   -2.518567   -1.457066
     39          6           0       -4.177087   -3.633891   -1.018860
     40          6           0       -2.830390   -3.286280   -0.493982
     41          6           0       -6.037355   -2.243526   -2.205187
     42          6           0       -4.689656   -5.041458   -1.046549
     43          6           0       -6.903631   -3.181457   -2.554310
     44          1           0        4.343628   -2.240189    0.139204
     45          1           0        5.137159    0.645023    1.287426
     46          1           0        4.790729   -0.668053    2.167452
     47          1           0        3.107925    1.359340   -0.075609
     48          1           0        3.437162   -0.588489   -1.653736
     49          1           0       -0.543787    0.149295    3.666218
     50          1           0       -1.264668    0.567790    2.163718
     51          1           0        0.713165    2.975032   -0.285329
     52          1           0        3.263141   -1.473827    3.923925
     53          1           0        1.130290   -1.667424    4.034928
     54          1           0        2.333051   -2.786685    2.932671
     55          1           0        6.790419   -2.641112    1.441521
     56          1           0        7.679792   -1.263325    1.505527
     57          1           0        8.097555   -2.427154    0.459542
     58          1           0       -1.040416   -2.123320    1.286813
     59          1           0       -0.328289   -2.373879    3.015267
     60          1           0       -1.444255   -0.347111   -0.389790
     61          1           0       -2.025338    4.761209   -1.698602
     62          1           0       -0.478431    4.161527   -1.526965
     63          1           0        7.580021   -1.274872   -3.354398
     64          1           0       -1.047778    4.531560    1.350358
     65          1           0       -2.620759    5.224204    0.842543
     66          1           0       -4.280255    4.053310   -2.314400
     67          1           0       -5.173771    2.799888   -1.105891
     68          1           0       -4.504057    2.364603   -2.827720
     69          1           0       -4.918104    0.453582   -1.862785
     70          1           0        9.328024   -0.352520   -0.688632
     71          1           0        9.927337   -1.416153   -2.491649
     72          1           0       -3.622014   -2.893084    3.953504
     73          1           0       -6.295845   -1.130832   -2.178973
     74          1           0       -4.700111   -5.310657   -2.078321
     75          1           0       -4.112626   -5.501448   -0.472467
     76          1           0       -5.787296   -4.917151   -0.621936
     77          1           0       -1.007221    8.034764    1.333764
     78          1           0       -7.862341   -2.755715   -3.072571
     79          1           0       -6.871147   -4.276422   -2.207892
 ---------------------------------------------------------------------

 SCF Done:  E(RB3LYP) =  -1947.80454561     A.U. after   16 cycles

 Excitation energies and oscillator strengths:

 Excited State   1:      Singlet-A      2.1112 eV  587.27 nm  f=0.5105  <S**2>=0.000
     155 ->156         0.70243
     155 <-156        -0.11695
 This state for optimization and/or second-order correction.
 Total Energy, E(TD-HF/TD-KS) =  -1947.72696094
 Copying the excited state density for this state as the 1-particle RhoCI density.

 The electronic state is 1-A.
 Alpha  occ. eigenvalues --  -19.18660 -19.18419 -19.13694 -19.11561 -19.10943
 Alpha  occ. eigenvalues --  -19.10697 -14.38504 -14.36906 -14.35574 -14.29723
 Alpha  occ. eigenvalues --  -10.33331 -10.30590 -10.29271 -10.27182 -10.26924
 Alpha  occ. eigenvalues --  -10.23855 -10.23763 -10.23574 -10.23492 -10.23388
 Alpha  occ. eigenvalues --  -10.23216 -10.23054 -10.22980 -10.22193 -10.21956
 Alpha  occ. eigenvalues --  -10.21880 -10.21710 -10.21663 -10.21519 -10.20848
 Alpha  occ. eigenvalues --  -10.20652 -10.20648 -10.20395 -10.20379 -10.19837
 Alpha  occ. eigenvalues --  -10.19808 -10.19726 -10.19524 -10.19457 -10.19084
 Alpha  occ. eigenvalues --  -10.18907 -10.18886 -10.17808  -1.11950  -1.09508
 Alpha  occ. eigenvalues --   -1.02787  -1.02073  -1.00136  -0.99975  -0.98208
 Alpha  occ. eigenvalues --   -0.97417  -0.94964  -0.91963  -0.83564  -0.82245
 Alpha  occ. eigenvalues --   -0.82095  -0.80913  -0.80620  -0.80270  -0.77306
 Alpha  occ. eigenvalues --   -0.76771  -0.76000  -0.74831  -0.73686  -0.72516
 Alpha  occ. eigenvalues --   -0.72229  -0.70435  -0.69768  -0.68703  -0.68135
 Alpha  occ. eigenvalues --   -0.66553  -0.66164  -0.64045  -0.60878  -0.60389
 Alpha  occ. eigenvalues --   -0.60139  -0.59929  -0.59403  -0.58018  -0.56103
 Alpha  occ. eigenvalues --   -0.55500  -0.54775  -0.54762  -0.54205  -0.53012
 Alpha  occ. eigenvalues --   -0.52094  -0.50718  -0.50129  -0.49858  -0.49144
 Alpha  occ. eigenvalues --   -0.48717  -0.48443  -0.48144  -0.47581  -0.47220
 Alpha  occ. eigenvalues --   -0.47110  -0.46358  -0.46252  -0.45919  -0.45503
 Alpha  occ. eigenvalues --   -0.45129  -0.44996  -0.44606  -0.44504  -0.43449
 Alpha  occ. eigenvalues --   -0.43260  -0.43075  -0.42938  -0.42496  -0.42316
 Alpha  occ. eigenvalues --   -0.42139  -0.41917  -0.41750  -0.41535  -0.41100
 Alpha  occ. eigenvalues --   -0.40885  -0.40694  -0.40198  -0.40054  -0.39841
 Alpha  occ. eigenvalues --   -0.39732  -0.38997  -0.38874  -0.38745  -0.38362
 Alpha  occ. eigenvalues --   -0.37945  -0.37114  -0.36833  -0.36208  -0.36101
 Alpha  occ. eigenvalues --   -0.35859  -0.35423  -0.34971  -0.34871  -0.34669
 Alpha  occ. eigenvalues --   -0.34332  -0.33313  -0.32834  -0.31545  -0.31529
 Alpha  occ. eigenvalues --   -0.31434  -0.30943  -0.29029  -0.28771  -0.28103
 Alpha  occ. eigenvalues --   -0.27713  -0.26315  -0.26113  -0.25899  -0.25061
 Alpha  occ. eigenvalues --   -0.24425  -0.24025  -0.23672  -0.22791  -0.18567
 Alpha virt. eigenvalues --   -0.10501  -0.06139  -0.05596  -0.01797  -0.00836
 Alpha virt. eigenvalues --   -0.00582   0.00157   0.02510   0.02683   0.03212
 Alpha virt. eigenvalues --    0.03490   0.04026   0.04650   0.04827   0.05157

 Mulliken charges:
               1
     1  O   -0.247811
     2  O   -0.081662
     3  O   -0.238850
     4  O   -0.173519
     5  O   -0.260234
     6  O   -0.182854
     7  N   -0.082951
     8  N   -0.174985
     9  N   -0.109098
    10  N   -0.289429
    11  C    0.073595
    12  C    0.222912
    13  C   -0.132697
    14  C   -0.023266
    15  C   -0.060637
    16  C    0.109292
    17  C   -0.185858
    18  C    0.014903
    19  C   -0.035416
    20  C   -0.150541
    21  C    0.021394
    22  C    0.140142
    23  C   -0.126059
    24  C   -0.106765
    25  C    0.176212
    26  C   -0.124940
    27  C   -0.113311
    28  C    0.158925
    29  C    0.229232
    30  C   -0.070761
    31  C   -0.024633
    32  C    0.016398
    33  C   -0.164656
    34  C    0.097127
    35  C    0.090811
    36  C   -0.082838
    37  C    0.157585
    38  C    0.021389
    39  C   -0.282739
    40  C    0.173707
    41  C   -0.001488
    42  C    0.214304
    43  C   -0.070148
    44  H    0.049751
    45  H    0.000406
    46  H   -0.039466
    47  H    0.130264
    48  H    0.137596
    49  H    0.022319
    50  H    0.029854
    51  H    0.029820
    52  H    0.038104
    53  H    0.072754
    54  H    0.047921
    55  H   -0.014373
    56  H    0.005424
    57  H    0.005102
    58  H    0.100806
    59  H    0.027506
    60  H    0.189505
    61  H   -0.034968
    62  H    0.034873
    63  H    0.057892
    64  H    0.080703
    65  H    0.053534
    66  H    0.035306
    67  H    0.048326
    68  H    0.034741
    69  H   -0.018087
    70  H    0.062426
    71  H    0.056520
    72  H    0.159067
    73  H    0.024352
    74  H    0.032505
    75  H   -0.053849
    76  H    0.038564
    77  H    0.148677
    78  H    0.037693
    79  H    0.048649
 Sum of Mulliken charges =   0.00000

 Dipole moment (field-independent basis, Debye):
    X=              0.1656    Y=              1.0247    Z=              3.0882  Tot=              3.2580
 Quadrupole moment (field-independent basis, Debye-Ang):
   XX=           -217.6863   YY=           -251.4017   ZZ=           -263.2423
   XY=             -8.9656   XZ=             29.9227   YZ=             -0.3639

 Normal termination of Gaussian 09 at Mon Jul  8 04:27:10 2019.
