 Gaussian 09, Revision D.01,
 Gaussian 09:  ES64L-G09RevD.01 24-Apr-2013

 --------------------------
 # td=(NStates=1) B3LYP/SVP
 --------------------------

 --
 TD
 --
 Symbolic Z-matrix:
 Charge =  0 Multiplicity = 1

                         Standard orientation:
 ---------------------------------------------------------------------
 Center     Atomic      Atomic             Coordinates (Angstroms)
 Number     Number       Type             X           Y           Z
 ---------------------------------------------------------------------
      1          8           0        5.226206   -0.434015   -3.297563
      2          8           0       -2.905570   -3.086056    3.393851
      3          8           0       -3.217047   -0.915383    3.365903
      4          8           0       -1.372151    7.164626    1.583290
      5          8           0       -0.350658    7.072791   -0.501173
      6          8           0       -1.945833   -4.012701   -0.114363
      7          7           0        2.422750    0.865229    0.608046
      8          7           0        4.435910   -0.660517   -1.218492
      9          7           0       -1.932315    0.744291   -0.353100
     10          7           0       -2.658581   -1.825937   -0.688581
     11          6           0        4.875333   -1.218375    0.062851
     12          6           0        4.443876   -0.277831    1.287590
     13          6           0        3.016120   -0.043989    1.378956
     14          6           0        2.009021   -0.670640    2.184590
     15          6           0        0.710018   -0.123282    1.784722
     16          6           0        0.962065    0.814036    0.801444
     17          6           0        6.270049   -1.393412   -0.294508
     18          6           0       -0.557338   -0.330531    2.485025
     19          6           0        6.673432   -0.988797   -1.487660
     20          6           0        0.185973    1.948083    0.199322
     21          6           0       -1.103649    1.836640   -0.284508
     22          6           0        5.380649   -0.650832   -2.129950
     23          6           0       -1.811756    2.924029   -0.889067
     24          6           0        2.237709   -1.688804    3.216008
     25          6           0        7.253471   -1.969989    0.815033
     26          6           0       -3.117861    2.429288   -1.216729
     27          6           0       -1.077355   -1.739798    2.419441
     28          6           0       -3.117201    1.036488   -0.985038
     29          6           0       -1.347417    4.405633   -0.914633
     30          6           0        7.955668   -0.978091   -2.152677
     31          6           0       -1.605349    5.165273    0.301998
     32          6           0       -4.260440    3.162744   -1.804804
     33          6           0       -4.055380    0.099806   -1.324977
     34          6           0       -2.528071   -1.878093    3.136679
     35          6           0       -3.808641   -1.365892   -1.113733
     36          6           0        9.132119   -0.786231   -1.538397
     37          6           0       -0.973642    6.552367    0.431617
     38          6           0       -4.785371   -2.463870   -1.497763
     39          6           0       -4.093312   -3.671113   -1.235024
     40          6           0       -2.791685   -3.248827   -0.630631
     41          6           0       -6.133630   -2.178380   -1.994468
     42          6           0       -4.658802   -5.068771   -1.255782
     43          6           0       -7.060265   -3.010906   -2.537278
     44          1           0        4.399670   -2.202444    0.180321
     45          1           0        5.013290    0.647815    1.176406
     46          1           0        4.663830   -0.738311    2.256246
     47          1           0        2.901897    1.422357   -0.138280
     48          1           0        3.512077   -0.738380   -1.801535
     49          1           0       -0.454861    0.004755    3.712321
     50          1           0       -1.298017    0.405041    2.119538
     51          1           0        0.815353    2.655017   -0.037372
     52          1           0        3.424021   -1.767710    3.412676
     53          1           0        1.550603   -1.465746    4.061688
     54          1           0        1.934387   -2.611966    2.946679
     55          1           0        6.416819   -2.504396    1.367888
     56          1           0        7.682971   -1.151425    1.330465
     57          1           0        8.120956   -2.571748    0.413903
     58          1           0       -1.081338   -2.340648    1.339784
     59          1           0       -0.589994   -2.527265    2.984095
     60          1           0       -1.647181   -0.093399   -0.251813
     61          1           0       -1.791291    4.797676   -1.659311
     62          1           0       -0.292112    4.299677   -1.295505
     63          1           0        7.885049   -1.078439   -3.297604
     64          1           0       -1.301064    4.689360    1.248497
     65          1           0       -2.748730    5.397950    0.560151
     66          1           0       -4.017530    4.107957   -2.269035
     67          1           0       -5.067977    3.141289   -1.074512
     68          1           0       -4.612828    2.315894   -2.645869
     69          1           0       -5.021636    0.633162   -1.659997
     70          1           0        9.400613   -0.666955   -0.331631
     71          1           0        9.965209   -0.891857   -2.307803
     72          1           0       -3.686687   -2.975529    4.177903
     73          1           0       -6.496350   -1.079284   -2.170704
     74          1           0       -4.793772   -5.420729   -2.154976
     75          1           0       -4.079395   -5.737249   -0.664807
     76          1           0       -5.614381   -5.190693   -0.513452
     77          1           0       -0.827606    7.979354    1.501722
     78          1           0       -7.990158   -2.531245   -3.031413
     79          1           0       -6.937798   -4.155034   -2.665211
 ---------------------------------------------------------------------

 SCF Done:  E(RB3LYP) =  -1947.83315006     A.U. after   16 cycles

 Excitation energies and oscillator strengths:

 Excited State   1:      Singlet-A      1.9191 eV  646.04 nm  f=0.4160  <S**2>=0.000
     155 ->156         0.70051
     155 <-156        -0.11094
 This state for optimization and/or second-order correction.
 Total Energy, E(TD-HF/TD-KS) =  -1947.76262286
 Copying the excited state density for this state as the 1-particle RhoCI density.

 The electronic state is 1-A.
 Alpha  occ. eigenvalues --  -19.20082 -19.18334 -19.13836 -19.11272 -19.10374
 Alpha  occ. eigenvalues --  -19.08846 -14.38081 -14.35402 -14.35170 -14.29684
 Alpha  occ. eigenvalues --  -10.33207 -10.30115 -10.27470 -10.26752 -10.25737
 Alpha  occ. eigenvalues --  -10.24473 -10.23907 -10.23748 -10.23028 -10.22849
 Alpha  occ. eigenvalues --  -10.22167 -10.22060 -10.21402 -10.21376 -10.21361
 Alpha  occ. eigenvalues --  -10.21275 -10.21209 -10.21168 -10.21162 -10.21053
 Alpha  occ. eigenvalues --  -10.20865 -10.20723 -10.20645 -10.20591 -10.20354
 Alpha  occ. eigenvalues --  -10.20018 -10.20006 -10.19634 -10.19281 -10.19225
 Alpha  occ. eigenvalues --  -10.19017 -10.18911 -10.18531  -1.10326  -1.09296
 Alpha  occ. eigenvalues --   -1.03851  -1.00994  -1.00374  -0.99135  -0.98629
 Alpha  occ. eigenvalues --   -0.97278  -0.95241  -0.92024  -0.83195  -0.82341
 Alpha  occ. eigenvalues --   -0.82222  -0.80934  -0.80253  -0.79811  -0.78555
 Alpha  occ. eigenvalues --   -0.76879  -0.75696  -0.75282  -0.74545  -0.72474
 Alpha  occ. eigenvalues --   -0.71475  -0.71057  -0.69843  -0.69616  -0.69165
 Alpha  occ. eigenvalues --   -0.66835  -0.65838  -0.64088  -0.60786  -0.60225
 Alpha  occ. eigenvalues --   -0.59898  -0.58244  -0.57633  -0.57034  -0.56686
 Alpha  occ. eigenvalues --   -0.56269  -0.55595  -0.54887  -0.54156  -0.53003
 Alpha  occ. eigenvalues --   -0.52082  -0.51729  -0.50949  -0.50163  -0.50023
 Alpha  occ. eigenvalues --   -0.49534  -0.49189  -0.47925  -0.47450  -0.47397
 Alpha  occ. eigenvalues --   -0.46936  -0.46792  -0.46563  -0.45816  -0.45616
 Alpha  occ. eigenvalues --   -0.45395  -0.45272  -0.44701  -0.44193  -0.43562
 Alpha  occ. eigenvalues --   -0.43513  -0.43323  -0.43088  -0.42729  -0.42605
 Alpha  occ. eigenvalues --   -0.42082  -0.42002  -0.41929  -0.41564  -0.41361
 Alpha  occ. eigenvalues --   -0.41028  -0.40938  -0.40603  -0.40345  -0.40098
 Alpha  occ. eigenvalues --   -0.39856  -0.39573  -0.39153  -0.38614  -0.38067
 Alpha  occ. eigenvalues --   -0.37950  -0.37601  -0.36995  -0.36637  -0.36384
 Alpha  occ. eigenvalues --   -0.36020  -0.35937  -0.35187  -0.34618  -0.34522
 Alpha  occ. eigenvalues --   -0.33921  -0.33681  -0.33405  -0.31788  -0.31332
 Alpha  occ. eigenvalues --   -0.31212  -0.30710  -0.29143  -0.28779  -0.27880
 Alpha  occ. eigenvalues --   -0.26691  -0.26079  -0.25410  -0.25245  -0.24723
 Alpha  occ. eigenvalues --   -0.24451  -0.24400  -0.23122  -0.22416  -0.18674
 Alpha virt. eigenvalues --   -0.11152  -0.07145  -0.04987  -0.01431  -0.00820
 Alpha virt. eigenvalues --    0.00750   0.01160   0.01628   0.02786   0.03406
 Alpha virt. eigenvalues --    0.03571   0.03884   0.04227   0.04389   0.04874

 Mulliken charges:
               1
     1  O   -0.216600
     2  O   -0.192239
     3  O   -0.244086
     4  O   -0.181440
     5  O   -0.247144
     6  O   -0.226977
     7  N   -0.124231
     8  N   -0.194673
     9  N    0.041290
    10  N   -0.247905
    11  C    0.131884
    12  C    0.244053
    13  C   -0.098731
    14  C   -0.168797
    15  C   -0.025847
    16  C    0.019567
    17  C   -0.246729
    18  C    0.039760
    19  C    0.011354
    20  C   -0.016318
    21  C    0.135962
    22  C    0.044108
    23  C   -0.171736
    24  C    0.135214
    25  C    0.070253
    26  C   -0.127142
    27  C   -0.083917
    28  C    0.075497
    29  C    0.281950
    30  C   -0.042830
    31  C   -0.016418
    32  C    0.063006
    33  C   -0.117317
    34  C    0.105705
    35  C    0.072069
    36  C   -0.077935
    37  C    0.138221
    38  C    0.065286
    39  C   -0.193537
    40  C    0.182825
    41  C   -0.049512
    42  C    0.133903
    43  C   -0.086602
    44  H    0.025096
    45  H   -0.010285
    46  H   -0.008790
    47  H    0.135725
    48  H    0.158023
    49  H    0.033468
    50  H    0.021036
    51  H   -0.079556
    52  H    0.012628
    53  H    0.013713
    54  H   -0.001796
    55  H    0.023151
    56  H    0.028452
    57  H    0.047546
    58  H    0.109192
    59  H    0.006177
    60  H    0.047613
    61  H   -0.077960
    62  H    0.018722
    63  H    0.044869
    64  H    0.032332
    65  H    0.058289
    66  H    0.028220
    67  H    0.037377
    68  H    0.043557
    69  H   -0.000067
    70  H    0.063071
    71  H    0.038704
    72  H    0.234511
    73  H    0.023911
    74  H   -0.002193
    75  H    0.002004
    76  H    0.034923
    77  H    0.181590
    78  H    0.041567
    79  H    0.041936
 Sum of Mulliken charges =   0.00000

 Dipole moment (field-independent basis, Debye):
    X=              0.0793    Y=              1.8745    Z=              3.4073  Tot=              3.8897
 Quadrupole moment (field-independent basis, Debye-Ang):
   XX=           -218.9277   YY=           -245.9281   ZZ=           -259.7319
   XY=             -4.8581   XZ=             27.7461   YZ=              1.7544

 Normal termination of Gaussian 09 at Tue Jul  9 16:15:17 2019.
