 Gaussian 09, Revision D.01,
 Gaussian 09:  ES64L-G09RevD.01 24-Apr-2013

 --------------------------
 # td=(NStates=1) B3LYP/SVP
 --------------------------

 --
 TD
 --
 Symbolic Z-matrix:
 Charge =  0 Multiplicity = 1

                         Standard orientation:
 ---------------------------------------------------------------------
 Center     Atomic      Atomic             Coordinates (Angstroms)
 Number     Number       Type             X           Y           Z
 ---------------------------------------------------------------------
      1          8           0        5.319171   -0.129368   -3.236381
      2          8           0       -2.853953   -3.139335    3.218710
      3          8           0       -3.262556   -0.943007    3.194426
      4          8           0       -1.465070    7.218987    1.485617
      5          8           0       -0.303072    6.938803   -0.384128
      6          8           0       -2.006439   -3.914729   -0.109868
      7          7           0        2.355658    0.857229    0.564702
      8          7           0        4.382578   -0.597778   -1.283501
      9          7           0       -1.929577    0.676517   -0.315263
     10          7           0       -2.754519   -1.776548   -0.413804
     11          6           0        4.739980   -1.212307    0.018207
     12          6           0        4.445948   -0.240744    1.174791
     13          6           0        2.999193    0.038194    1.340179
     14          6           0        2.038666   -0.717106    2.148982
     15          6           0        0.810935   -0.072320    1.882977
     16          6           0        0.968460    0.941968    0.864035
     17          6           0        6.221862   -1.346200   -0.168613
     18          6           0       -0.570154   -0.271552    2.531504
     19          6           0        6.677849   -0.811371   -1.334483
     20          6           0        0.100478    1.863063    0.166221
     21          6           0       -1.059450    1.814697   -0.305712
     22          6           0        5.450869   -0.496360   -2.132367
     23          6           0       -1.935689    2.870199   -0.831919
     24          6           0        2.317817   -1.800815    3.124648
     25          6           0        7.013044   -2.112799    0.824834
     26          6           0       -3.122737    2.464927   -1.210647
     27          6           0       -1.060874   -1.718788    2.565229
     28          6           0       -3.059306    1.029057   -0.973254
     29          6           0       -1.391290    4.337567   -0.926452
     30          6           0        7.829560   -0.937176   -2.143221
     31          6           0       -1.465207    5.024847    0.471113
     32          6           0       -4.275596    3.148927   -1.930916
     33          6           0       -4.069864    0.053359   -1.344813
     34          6           0       -2.475871   -1.798815    2.991816
     35          6           0       -3.829746   -1.331068   -1.085791
     36          6           0        9.141985   -1.004970   -1.699563
     37          6           0       -1.005487    6.491373    0.454998
     38          6           0       -4.739061   -2.435793   -1.486725
     39          6           0       -4.068348   -3.542875   -1.199080
     40          6           0       -2.826358   -3.175666   -0.477986
     41          6           0       -6.037959   -2.318868   -1.986840
     42          6           0       -4.546692   -4.964149   -1.222514
     43          6           0       -6.709121   -3.196666   -2.734943
     44          1           0        4.290812   -2.085715    0.391239
     45          1           0        4.986636    0.629580    1.133541
     46          1           0        4.660259   -0.657971    2.232742
     47          1           0        2.871382    1.469312    0.123916
     48          1           0        3.356767   -0.192745   -1.416392
     49          1           0       -0.528853   -0.140235    3.759118
     50          1           0       -1.334222    0.369612    2.114437
     51          1           0        0.527195    2.780797   -0.070124
     52          1           0        3.201912   -1.650151    3.569787
     53          1           0        1.481329   -1.664306    3.886622
     54          1           0        2.151320   -2.804188    2.469958
     55          1           0        6.576226   -2.898111    1.275881
     56          1           0        7.550013   -1.582631    1.748218
     57          1           0        7.607250   -2.839590    0.368641
     58          1           0       -1.243367   -2.064861    1.527304
     59          1           0       -0.604526   -2.366461    3.065975
     60          1           0       -1.965834   -0.367421   -0.137128
     61          1           0       -2.042809    4.975809   -1.754753
     62          1           0       -0.360378    4.369265   -1.169359
     63          1           0        7.627499   -0.926068   -3.233767
     64          1           0       -0.907052    4.646391    1.297495
     65          1           0       -2.500282    4.784303    0.845955
     66          1           0       -3.905688    4.128548   -2.192197
     67          1           0       -5.206527    3.233177   -1.295035
     68          1           0       -4.243863    2.537771   -2.735070
     69          1           0       -4.942700    0.397047   -2.031859
     70          1           0        9.317546   -1.232247   -0.662860
     71          1           0       10.117868   -1.086363   -2.357643
     72          1           0       -3.671778   -3.072502    3.708229
     73          1           0       -6.680457   -1.464434   -1.891415
     74          1           0       -4.413488   -5.304039   -2.260049
     75          1           0       -3.810162   -5.509171   -0.495785
     76          1           0       -5.488952   -5.036589   -0.769055
     77          1           0       -1.085206    8.147782    1.372085
     78          1           0       -7.822679   -3.025255   -2.901779
     79          1           0       -6.415835   -4.295715   -2.910997
 ---------------------------------------------------------------------

 SCF Done:  E(RB3LYP) =  -1947.84048098     A.U. after   16 cycles

 Excitation energies and oscillator strengths:

 Excited State   1:      Singlet-A      2.3377 eV  530.37 nm  f=0.4497  <S**2>=0.000
     155 ->156         0.69886
 This state for optimization and/or second-order correction.
 Total Energy, E(TD-HF/TD-KS) =  -1947.75457208
 Copying the excited state density for this state as the 1-particle RhoCI density.

 The electronic state is 1-A.
 Alpha  occ. eigenvalues --  -19.19122 -19.14756 -19.13406 -19.11584 -19.10442
 Alpha  occ. eigenvalues --  -19.09747 -14.38560 -14.35252 -14.35239 -14.29003
 Alpha  occ. eigenvalues --  -10.32606 -10.29944 -10.27729 -10.25881 -10.24745
 Alpha  occ. eigenvalues --  -10.24595 -10.23564 -10.23336 -10.23294 -10.22953
 Alpha  occ. eigenvalues --  -10.22411 -10.22383 -10.21549 -10.21487 -10.21334
 Alpha  occ. eigenvalues --  -10.20619 -10.20609 -10.20391 -10.20382 -10.20382
 Alpha  occ. eigenvalues --  -10.20325 -10.20283 -10.20127 -10.20087 -10.19811
 Alpha  occ. eigenvalues --  -10.19683 -10.19611 -10.19350 -10.19316 -10.18959
 Alpha  occ. eigenvalues --  -10.18423 -10.18236 -10.17315  -1.11043  -1.07692
 Alpha  occ. eigenvalues --   -1.04845  -1.04544  -1.02038  -1.00867  -0.98783
 Alpha  occ. eigenvalues --   -0.97899  -0.93632  -0.92575  -0.83669  -0.82943
 Alpha  occ. eigenvalues --   -0.82188  -0.81818  -0.81412  -0.80409  -0.78353
 Alpha  occ. eigenvalues --   -0.78190  -0.76898  -0.76123  -0.74666  -0.73126
 Alpha  occ. eigenvalues --   -0.72392  -0.71645  -0.70187  -0.69529  -0.68332
 Alpha  occ. eigenvalues --   -0.67602  -0.66342  -0.64104  -0.61596  -0.60564
 Alpha  occ. eigenvalues --   -0.60230  -0.59255  -0.58444  -0.58086  -0.56936
 Alpha  occ. eigenvalues --   -0.56073  -0.55716  -0.54940  -0.54212  -0.53603
 Alpha  occ. eigenvalues --   -0.52571  -0.52085  -0.51149  -0.51044  -0.50211
 Alpha  occ. eigenvalues --   -0.49564  -0.48983  -0.48785  -0.47912  -0.47845
 Alpha  occ. eigenvalues --   -0.47556  -0.47369  -0.46930  -0.46645  -0.46426
 Alpha  occ. eigenvalues --   -0.45825  -0.45541  -0.45132  -0.44437  -0.44106
 Alpha  occ. eigenvalues --   -0.43583  -0.43260  -0.43121  -0.43023  -0.42720
 Alpha  occ. eigenvalues --   -0.42394  -0.42252  -0.42033  -0.41988  -0.41471
 Alpha  occ. eigenvalues --   -0.41066  -0.40547  -0.40445  -0.40337  -0.40111
 Alpha  occ. eigenvalues --   -0.39917  -0.39231  -0.39192  -0.39104  -0.38625
 Alpha  occ. eigenvalues --   -0.38381  -0.37937  -0.37883  -0.37385  -0.36891
 Alpha  occ. eigenvalues --   -0.36344  -0.35446  -0.35272  -0.35144  -0.34566
 Alpha  occ. eigenvalues --   -0.34103  -0.33835  -0.33519  -0.33089  -0.32062
 Alpha  occ. eigenvalues --   -0.31798  -0.30620  -0.29813  -0.29303  -0.28345
 Alpha  occ. eigenvalues --   -0.26937  -0.26798  -0.26324  -0.25835  -0.25033
 Alpha  occ. eigenvalues --   -0.24323  -0.23734  -0.23320  -0.22331  -0.19449
 Alpha virt. eigenvalues --   -0.09850  -0.06578  -0.05564  -0.00622   0.00611
 Alpha virt. eigenvalues --    0.01088   0.01669   0.02404   0.02907   0.03249
 Alpha virt. eigenvalues --    0.03756   0.04094   0.04554   0.05747   0.06048

 Mulliken charges:
               1
     1  O   -0.169852
     2  O   -0.233397
     3  O   -0.194136
     4  O   -0.196465
     5  O   -0.201408
     6  O   -0.142499
     7  N    0.044159
     8  N   -0.249724
     9  N   -0.119971
    10  N   -0.319725
    11  C    0.197129
    12  C    0.194326
    13  C   -0.193967
    14  C   -0.178532
    15  C   -0.039111
    16  C    0.070589
    17  C   -0.151655
    18  C    0.031463
    19  C   -0.023749
    20  C   -0.071469
    21  C    0.175204
    22  C    0.112033
    23  C   -0.077854
    24  C    0.121663
    25  C    0.130092
    26  C   -0.163318
    27  C    0.135209
    28  C    0.027349
    29  C    0.084447
    30  C   -0.043967
    31  C   -0.028949
    32  C    0.193437
    33  C   -0.134992
    34  C    0.078932
    35  C    0.096047
    36  C   -0.053022
    37  C    0.125701
    38  C    0.143924
    39  C   -0.246022
    40  C    0.141797
    41  C   -0.062896
    42  C    0.101676
    43  C   -0.084087
    44  H   -0.016168
    45  H   -0.044889
    46  H    0.009734
    47  H    0.059835
    48  H    0.155688
    49  H    0.019093
    50  H    0.016030
    51  H   -0.059874
    52  H   -0.016909
    53  H    0.027678
    54  H    0.067797
    55  H   -0.043173
    56  H    0.056535
    57  H   -0.002794
    58  H    0.059716
    59  H   -0.059632
    60  H    0.158735
    61  H    0.049921
    62  H    0.007871
    63  H    0.032812
    64  H    0.033027
    65  H    0.035016
    66  H   -0.008328
    67  H    0.053410
    68  H    0.015630
    69  H    0.009053
    70  H    0.014546
    71  H    0.049704
    72  H    0.159361
    73  H   -0.014788
    74  H    0.040547
    75  H    0.035731
    76  H    0.019612
    77  H    0.197763
    78  H    0.027663
    79  H    0.029636
 Sum of Mulliken charges =   0.00000

 Dipole moment (field-independent basis, Debye):
    X=              0.5552    Y=              2.8241    Z=              3.3709  Tot=              4.4325
 Quadrupole moment (field-independent basis, Debye-Ang):
   XX=           -226.2668   YY=           -242.7573   ZZ=           -261.8265
   XY=            -15.2662   XZ=             32.9169   YZ=              1.9777

 Normal termination of Gaussian 09 at Tue Jul  9 11:02:36 2019.
