 Gaussian 09, Revision D.01,
 Gaussian 09:  ES64L-G09RevD.01 24-Apr-2013

 --------------------------
 # td=(NStates=1) B3LYP/SVP
 --------------------------

 --
 TD
 --
 Symbolic Z-matrix:
 Charge =  0 Multiplicity = 1

                         Standard orientation:
 ---------------------------------------------------------------------
 Center     Atomic      Atomic             Coordinates (Angstroms)
 Number     Number       Type             X           Y           Z
 ---------------------------------------------------------------------
      1          8           0        5.215954   -0.318202   -3.348988
      2          8           0       -2.600951   -3.452099    3.077194
      3          8           0       -3.080107   -1.254888    3.515704
      4          8           0       -1.648486    7.311301    1.441435
      5          8           0       -0.412162    6.963990   -0.286063
      6          8           0       -2.033686   -3.998903   -0.266694
      7          7           0        2.329605    0.808525    0.409687
      8          7           0        4.468195   -0.787256   -1.225926
      9          7           0       -1.991938    0.704897   -0.372009
     10          7           0       -2.704896   -1.816667   -0.476342
     11          6           0        4.958247   -1.256365    0.065744
     12          6           0        4.567464   -0.217872    1.134170
     13          6           0        3.054747    0.019070    1.277424
     14          6           0        2.079281   -0.672607    2.051478
     15          6           0        0.780087   -0.125009    1.779171
     16          6           0        0.972296    0.765705    0.682726
     17          6           0        6.510795   -1.295288   -0.157071
     18          6           0       -0.540242   -0.365192    2.408635
     19          6           0        6.729737   -0.820100   -1.460885
     20          6           0        0.202312    1.804096    0.025164
     21          6           0       -1.138003    1.854218   -0.287059
     22          6           0        5.481152   -0.584384   -2.157713
     23          6           0       -1.989590    2.944472   -0.799571
     24          6           0        2.262516   -1.638668    3.134509
     25          6           0        7.436055   -1.723733    0.885979
     26          6           0       -3.287090    2.460966   -1.113821
     27          6           0       -1.031065   -1.831946    2.274319
     28          6           0       -3.159456    1.058601   -0.875713
     29          6           0       -1.573331    4.363085   -0.849721
     30          6           0        8.044534   -0.642931   -2.107223
     31          6           0       -1.812865    5.153870    0.490370
     32          6           0       -4.449178    3.161043   -1.682502
     33          6           0       -4.192822    0.068944   -1.079921
     34          6           0       -2.347542   -2.037384    3.099249
     35          6           0       -3.889746   -1.347970   -0.863245
     36          6           0        9.213778   -0.611649   -1.511655
     37          6           0       -1.241898    6.542136    0.473220
     38          6           0       -4.850666   -2.426525   -1.375821
     39          6           0       -4.139784   -3.618180   -1.209471
     40          6           0       -2.844047   -3.236074   -0.615083
     41          6           0       -6.202887   -2.299141   -1.931174
     42          6           0       -4.526646   -4.954046   -1.333130
     43          6           0       -6.945403   -3.166996   -2.558668
     44          1           0        4.499151   -2.247174    0.310296
     45          1           0        5.093617    0.821091    0.904562
     46          1           0        5.075865   -0.451282    2.044168
     47          1           0        2.565676    1.552420   -0.300301
     48          1           0        3.444655   -1.163818   -1.509436
     49          1           0       -0.433227   -0.210580    3.408734
     50          1           0       -1.148393    0.394687    1.980804
     51          1           0        0.685270    2.625017   -0.126814
     52          1           0        3.421651   -1.889867    3.128874
     53          1           0        1.617196   -1.409572    3.979485
     54          1           0        1.720700   -2.597097    2.663319
     55          1           0        6.796678   -2.527749    1.438337
     56          1           0        7.649182   -0.855596    1.590521
     57          1           0        8.471644   -2.228564    0.703411
     58          1           0       -1.077981   -2.289653    1.366736
     59          1           0       -0.363723   -2.508671    2.838483
     60          1           0       -1.734480   -0.186839   -0.297723
     61          1           0       -2.213877    4.796578   -1.684798
     62          1           0       -0.570746    4.799851   -1.129590
     63          1           0        8.201409   -0.383738   -3.030479
     64          1           0       -1.308681    4.481000    1.397186
     65          1           0       -2.914739    5.180557    0.783214
     66          1           0       -4.276616    4.240040   -1.902180
     67          1           0       -5.158998    3.065236   -1.010580
     68          1           0       -4.790049    2.826054   -2.678888
     69          1           0       -5.199776    0.340252   -1.602357
     70          1           0        9.721299   -0.879147   -0.493948
     71          1           0       10.135284   -0.457380   -2.233086
     72          1           0       -3.463007   -3.451174    3.586308
     73          1           0       -6.576635   -1.351485   -1.839899
     74          1           0       -4.532290   -5.121254   -2.369978
     75          1           0       -3.609022   -5.511046   -0.906863
     76          1           0       -5.408193   -5.279032   -1.005054
     77          1           0       -1.012240    8.192889    1.417899
     78          1           0       -7.773777   -2.601128   -2.870252
     79          1           0       -6.548530   -4.034803   -2.834963
 ---------------------------------------------------------------------

 SCF Done:  E(RB3LYP) =  -1947.84227050     A.U. after   18 cycles

 Excitation energies and oscillator strengths:

 Excited State   1:      Singlet-A      2.1505 eV  576.53 nm  f=0.4883  <S**2>=0.000
     155 ->156         0.69748
     155 <-156        -0.11125
 This state for optimization and/or second-order correction.
 Total Energy, E(TD-HF/TD-KS) =  -1947.76324020
 Copying the excited state density for this state as the 1-particle RhoCI density.

 The electronic state is 1-A.
 Alpha  occ. eigenvalues --  -19.19531 -19.15376 -19.13245 -19.12757 -19.10486
 Alpha  occ. eigenvalues --  -19.09356 -14.38326 -14.35707 -14.35168 -14.28684
 Alpha  occ. eigenvalues --  -10.32425 -10.30515 -10.28276 -10.25593 -10.25451
 Alpha  occ. eigenvalues --  -10.24631 -10.24444 -10.23698 -10.23531 -10.23318
 Alpha  occ. eigenvalues --  -10.23303 -10.22958 -10.22588 -10.22571 -10.22263
 Alpha  occ. eigenvalues --  -10.21460 -10.21415 -10.21314 -10.21134 -10.20793
 Alpha  occ. eigenvalues --  -10.20661 -10.19812 -10.19491 -10.19421 -10.19407
 Alpha  occ. eigenvalues --  -10.19068 -10.18939 -10.18549 -10.18397 -10.18183
 Alpha  occ. eigenvalues --  -10.18174 -10.17226 -10.16661  -1.11655  -1.08928
 Alpha  occ. eigenvalues --   -1.04367  -1.00677  -1.00556  -0.99223  -0.99040
 Alpha  occ. eigenvalues --   -0.97795  -0.92738  -0.90990  -0.83224  -0.82175
 Alpha  occ. eigenvalues --   -0.81707  -0.81572  -0.81159  -0.79357  -0.78251
 Alpha  occ. eigenvalues --   -0.77719  -0.77152  -0.75966  -0.74542  -0.72941
 Alpha  occ. eigenvalues --   -0.72056  -0.71315  -0.70067  -0.69408  -0.68830
 Alpha  occ. eigenvalues --   -0.66572  -0.65514  -0.63384  -0.60773  -0.60120
 Alpha  occ. eigenvalues --   -0.60017  -0.58264  -0.57664  -0.57258  -0.56295
 Alpha  occ. eigenvalues --   -0.55851  -0.55232  -0.55098  -0.54523  -0.54163
 Alpha  occ. eigenvalues --   -0.52510  -0.51622  -0.50884  -0.50833  -0.49936
 Alpha  occ. eigenvalues --   -0.49055  -0.48401  -0.48172  -0.48068  -0.47867
 Alpha  occ. eigenvalues --   -0.47533  -0.47333  -0.47148  -0.46818  -0.46627
 Alpha  occ. eigenvalues --   -0.45527  -0.45115  -0.44766  -0.44434  -0.44212
 Alpha  occ. eigenvalues --   -0.43696  -0.43409  -0.43252  -0.43173  -0.42601
 Alpha  occ. eigenvalues --   -0.42340  -0.42106  -0.41765  -0.41616  -0.41559
 Alpha  occ. eigenvalues --   -0.41027  -0.40718  -0.40386  -0.40092  -0.39940
 Alpha  occ. eigenvalues --   -0.39803  -0.39254  -0.38925  -0.38901  -0.38498
 Alpha  occ. eigenvalues --   -0.38351  -0.37992  -0.37769  -0.37695  -0.37380
 Alpha  occ. eigenvalues --   -0.36300  -0.36059  -0.35912  -0.34471  -0.34069
 Alpha  occ. eigenvalues --   -0.33887  -0.33555  -0.33053  -0.32840  -0.32179
 Alpha  occ. eigenvalues --   -0.31141  -0.31073  -0.29207  -0.28912  -0.27965
 Alpha  occ. eigenvalues --   -0.27666  -0.26062  -0.25769  -0.24903  -0.24603
 Alpha  occ. eigenvalues --   -0.24182  -0.23763  -0.23123  -0.21890  -0.18784
 Alpha virt. eigenvalues --   -0.10381  -0.06856  -0.06203  -0.00925   0.00171
 Alpha virt. eigenvalues --    0.00485   0.00966   0.01801   0.02340   0.02494
 Alpha virt. eigenvalues --    0.03409   0.04033   0.04271   0.04683   0.05507

 Mulliken charges:
               1
     1  O   -0.248203
     2  O   -0.260040
     3  O   -0.150197
     4  O   -0.199013
     5  O   -0.236139
     6  O   -0.143627
     7  N   -0.088968
     8  N   -0.247330
     9  N    0.013494
    10  N   -0.292242
    11  C    0.058382
    12  C    0.155414
    13  C   -0.038039
    14  C   -0.166087
    15  C   -0.138079
    16  C    0.054443
    17  C   -0.125603
    18  C    0.256036
    19  C   -0.014855
    20  C   -0.018752
    21  C    0.095840
    22  C    0.167898
    23  C   -0.046618
    24  C    0.066764
    25  C    0.003766
    26  C   -0.128428
    27  C    0.020203
    28  C    0.057966
    29  C    0.010650
    30  C    0.115469
    31  C   -0.073155
    32  C    0.173484
    33  C   -0.147662
    34  C    0.129274
    35  C    0.092147
    36  C   -0.131287
    37  C    0.132135
    38  C    0.012740
    39  C   -0.232619
    40  C    0.134431
    41  C   -0.017516
    42  C    0.164061
    43  C    0.097293
    44  H    0.028023
    45  H    0.008969
    46  H   -0.011192
    47  H    0.138678
    48  H    0.175832
    49  H   -0.044240
    50  H   -0.008183
    51  H   -0.091392
    52  H    0.022413
    53  H    0.029026
    54  H    0.047484
    55  H    0.035888
    56  H    0.057745
    57  H    0.064879
    58  H    0.026167
    59  H    0.007239
    60  H    0.076672
    61  H    0.018294
    62  H    0.043291
    63  H   -0.056338
    64  H    0.075692
    65  H    0.043128
    66  H    0.005652
    67  H   -0.007691
    68  H    0.034886
    69  H    0.008374
    70  H    0.031081
    71  H    0.026691
    72  H    0.169491
    73  H   -0.061596
    74  H    0.008520
    75  H    0.034429
    76  H   -0.007540
    77  H    0.236259
    78  H    0.011513
    79  H   -0.045574
 Sum of Mulliken charges =   0.00000

 Dipole moment (field-independent basis, Debye):
    X=              1.2089    Y=              3.2758    Z=              3.4938  Tot=              4.9395
 Quadrupole moment (field-independent basis, Debye-Ang):
   XX=           -214.7164   YY=           -242.8430   ZZ=           -265.1196
   XY=            -15.9586   XZ=             35.5541   YZ=              3.8928

 Normal termination of Gaussian 09 at Mon Jul  8 10:30:13 2019.
