 Gaussian 09, Revision D.01,
 Gaussian 09:  ES64L-G09RevD.01 24-Apr-2013

 --------------------------
 # td=(NStates=1) B3LYP/SVP
 --------------------------

 --
 TD
 --
 Symbolic Z-matrix:
 Charge =  0 Multiplicity = 1

                         Standard orientation:
 ---------------------------------------------------------------------
 Center     Atomic      Atomic             Coordinates (Angstroms)
 Number     Number       Type             X           Y           Z
 ---------------------------------------------------------------------
      1          8           0        5.443564   -0.407631   -3.451021
      2          8           0       -2.741159   -3.119166    3.261136
      3          8           0       -3.200669   -0.921878    3.467555
      4          8           0       -1.047782    7.161819    1.671362
      5          8           0       -0.580898    7.137483   -0.629433
      6          8           0       -2.286474   -4.039608   -0.137258
      7          7           0        2.375175    0.889158    0.585515
      8          7           0        4.512894   -0.760807   -1.330047
      9          7           0       -1.874948    0.713162   -0.495752
     10          7           0       -2.825311   -1.774209   -0.651675
     11          6           0        4.873212   -1.321028   -0.044132
     12          6           0        4.566338   -0.355937    1.064640
     13          6           0        3.015562   -0.080363    1.344277
     14          6           0        2.103844   -0.663343    2.095619
     15          6           0        0.855270   -0.127907    1.761482
     16          6           0        1.077992    0.874897    0.892759
     17          6           0        6.376056   -1.466961   -0.232243
     18          6           0       -0.458897   -0.352345    2.583910
     19          6           0        6.761953   -0.969274   -1.399874
     20          6           0        0.187565    1.817967    0.180220
     21          6           0       -1.109766    1.781106   -0.336645
     22          6           0        5.445776   -0.691412   -2.267562
     23          6           0       -1.864213    2.902457   -0.678163
     24          6           0        2.308086   -1.670022    3.216553
     25          6           0        7.113264   -2.144814    0.863997
     26          6           0       -3.071888    2.415701   -1.246000
     27          6           0       -1.126882   -1.735049    2.350361
     28          6           0       -3.094724    0.998764   -1.051896
     29          6           0       -1.322850    4.374718   -0.860559
     30          6           0        7.984155   -0.886669   -2.098328
     31          6           0       -1.476939    5.096645    0.467888
     32          6           0       -4.337551    3.090193   -1.723268
     33          6           0       -4.030161    0.064974   -1.440256
     34          6           0       -2.426647   -1.796492    3.139020
     35          6           0       -3.909876   -1.287652   -1.121151
     36          6           0        9.204465   -0.935136   -1.489034
     37          6           0       -0.903513    6.561161    0.429952
     38          6           0       -5.005496   -2.258408   -1.429659
     39          6           0       -4.444158   -3.421690   -1.066341
     40          6           0       -3.038150   -3.156590   -0.559552
     41          6           0       -6.257093   -2.037385   -2.054455
     42          6           0       -4.814640   -4.962668   -1.180099
     43          6           0       -7.085630   -3.059477   -2.473094
     44          1           0        4.344566   -2.279358    0.113932
     45          1           0        5.121892    0.605468    0.948107
     46          1           0        4.772913   -0.950016    1.965010
     47          1           0        2.755626    1.358733   -0.185203
     48          1           0        3.363027   -0.663503   -1.687966
     49          1           0       -0.297633   -0.285201    3.623902
     50          1           0       -1.258539    0.570718    2.535257
     51          1           0        0.462902    2.897720    0.146319
     52          1           0        3.343336   -2.039721    3.325716
     53          1           0        2.084485   -1.203856    4.294487
     54          1           0        1.863509   -2.671549    3.020595
     55          1           0        6.583901   -2.836521    1.361967
     56          1           0        7.368309   -1.253238    1.622537
     57          1           0        8.086605   -2.302561    0.561228
     58          1           0       -1.247800   -1.995487    1.227235
     59          1           0       -0.397883   -2.527909    2.753064
     60          1           0       -1.545672   -0.271198   -0.400914
     61          1           0       -1.985315    4.931170   -1.562580
     62          1           0       -0.241114    4.538416   -1.302829
     63          1           0        8.002088   -0.851179   -3.309330
     64          1           0       -1.028324    4.477703    1.352074
     65          1           0       -2.526327    4.991733    0.758817
     66          1           0       -4.249629    4.269535   -1.362026
     67          1           0       -5.199868    2.765784   -0.971200
     68          1           0       -4.387096    2.856361   -2.845790
     69          1           0       -5.072431    0.530176   -1.608024
     70          1           0        9.432405   -0.791824   -0.425756
     71          1           0       10.065636   -0.698747   -2.080678
     72          1           0       -3.708445   -3.127230    3.588987
     73          1           0       -6.554478   -1.032505   -2.252329
     74          1           0       -4.939624   -5.373846   -2.068060
     75          1           0       -4.041702   -5.469157   -0.488139
     76          1           0       -5.950086   -5.082525   -0.708238
     77          1           0       -0.862127    8.087588    1.571241
     78          1           0       -7.920468   -2.657967   -3.263769
     79          1           0       -6.810738   -4.063059   -2.292865
 ---------------------------------------------------------------------

 SCF Done:  E(RB3LYP) =  -1947.86880841     A.U. after   16 cycles

 Excitation energies and oscillator strengths:

 Excited State   1:      Singlet-A      2.2185 eV  558.88 nm  f=0.4684  <S**2>=0.000
     154 ->156         0.18257
     155 ->156         0.67231
     155 <-156        -0.10795
 This state for optimization and/or second-order correction.
 Total Energy, E(TD-HF/TD-KS) =  -1947.78728168
 Copying the excited state density for this state as the 1-particle RhoCI density.

 The electronic state is 1-A.
 Alpha  occ. eigenvalues --  -19.19718 -19.16842 -19.14812 -19.12205 -19.11260
 Alpha  occ. eigenvalues --  -19.10284 -14.37936 -14.37156 -14.36453 -14.29638
 Alpha  occ. eigenvalues --  -10.34414 -10.31019 -10.28537 -10.27044 -10.25165
 Alpha  occ. eigenvalues --  -10.24460 -10.24130 -10.23444 -10.23196 -10.22878
 Alpha  occ. eigenvalues --  -10.22844 -10.22506 -10.22499 -10.22465 -10.22377
 Alpha  occ. eigenvalues --  -10.21909 -10.21498 -10.21399 -10.20954 -10.20683
 Alpha  occ. eigenvalues --  -10.20477 -10.20245 -10.20143 -10.19898 -10.19896
 Alpha  occ. eigenvalues --  -10.19757 -10.19605 -10.19565 -10.19417 -10.19262
 Alpha  occ. eigenvalues --  -10.19016 -10.18781 -10.18702  -1.09385  -1.07714
 Alpha  occ. eigenvalues --   -1.02463  -1.01451  -1.01089  -1.00711  -1.00199
 Alpha  occ. eigenvalues --   -0.98885  -0.95145  -0.94335  -0.82612  -0.82432
 Alpha  occ. eigenvalues --   -0.82027  -0.81899  -0.81182  -0.80196  -0.77915
 Alpha  occ. eigenvalues --   -0.77578  -0.76125  -0.75510  -0.74065  -0.72968
 Alpha  occ. eigenvalues --   -0.71227  -0.71027  -0.69833  -0.69434  -0.67901
 Alpha  occ. eigenvalues --   -0.66546  -0.66355  -0.64413  -0.60990  -0.60814
 Alpha  occ. eigenvalues --   -0.60615  -0.59204  -0.58481  -0.57367  -0.57103
 Alpha  occ. eigenvalues --   -0.56406  -0.55956  -0.55489  -0.54494  -0.53663
 Alpha  occ. eigenvalues --   -0.53191  -0.52862  -0.51242  -0.51052  -0.49514
 Alpha  occ. eigenvalues --   -0.49080  -0.48610  -0.48035  -0.47513  -0.47418
 Alpha  occ. eigenvalues --   -0.47286  -0.46987  -0.46676  -0.46186  -0.45628
 Alpha  occ. eigenvalues --   -0.45479  -0.45090  -0.44837  -0.43992  -0.43964
 Alpha  occ. eigenvalues --   -0.43601  -0.43102  -0.42846  -0.42713  -0.42048
 Alpha  occ. eigenvalues --   -0.41994  -0.41909  -0.41556  -0.41486  -0.41292
 Alpha  occ. eigenvalues --   -0.41058  -0.40612  -0.39867  -0.39724  -0.39633
 Alpha  occ. eigenvalues --   -0.39416  -0.39078  -0.38893  -0.38645  -0.38560
 Alpha  occ. eigenvalues --   -0.37699  -0.37350  -0.37180  -0.37086  -0.36224
 Alpha  occ. eigenvalues --   -0.36064  -0.35426  -0.35295  -0.35060  -0.34814
 Alpha  occ. eigenvalues --   -0.34695  -0.34458  -0.33661  -0.32083  -0.31900
 Alpha  occ. eigenvalues --   -0.31611  -0.31214  -0.29821  -0.29120  -0.28630
 Alpha  occ. eigenvalues --   -0.27607  -0.27125  -0.26270  -0.26035  -0.25413
 Alpha  occ. eigenvalues --   -0.24691  -0.24580  -0.23433  -0.22719  -0.20108
 Alpha virt. eigenvalues --   -0.11527  -0.06962  -0.05320  -0.03011  -0.01243
 Alpha virt. eigenvalues --    0.00375   0.01052   0.01567   0.01910   0.02402
 Alpha virt. eigenvalues --    0.03378   0.04504   0.04997   0.05121   0.05371

 Mulliken charges:
               1
     1  O   -0.222712
     2  O   -0.210753
     3  O   -0.230063
     4  O   -0.185627
     5  O   -0.246531
     6  O   -0.213175
     7  N   -0.021273
     8  N   -0.245423
     9  N   -0.019498
    10  N   -0.235778
    11  C    0.125744
    12  C    0.206950
    13  C   -0.122038
    14  C   -0.094013
    15  C   -0.089942
    16  C    0.076318
    17  C   -0.234856
    18  C    0.034078
    19  C   -0.030940
    20  C   -0.060355
    21  C   -0.003922
    22  C    0.147147
    23  C   -0.083331
    24  C    0.055201
    25  C    0.209743
    26  C   -0.129573
    27  C   -0.066800
    28  C    0.086072
    29  C    0.059245
    30  C   -0.072853
    31  C   -0.066085
    32  C   -0.002754
    33  C   -0.139076
    34  C    0.151932
    35  C    0.075497
    36  C   -0.041664
    37  C    0.207413
    38  C    0.074014
    39  C   -0.213409
    40  C    0.162532
    41  C   -0.036333
    42  C    0.063116
    43  C   -0.007162
    44  H    0.016929
    45  H    0.009871
    46  H   -0.007640
    47  H    0.091888
    48  H    0.173893
    49  H   -0.019011
    50  H    0.040414
    51  H   -0.000820
    52  H   -0.016952
    53  H    0.050294
    54  H    0.034527
    55  H   -0.004525
    56  H    0.029870
    57  H   -0.011539
    58  H    0.101361
    59  H    0.037518
    60  H    0.152340
    61  H    0.021633
    62  H    0.055013
    63  H    0.062150
    64  H    0.048490
    65  H    0.037531
    66  H    0.037286
    67  H    0.066847
    68  H    0.071447
    69  H    0.009939
    70  H    0.015860
    71  H    0.013694
    72  H    0.191795
    73  H   -0.033303
    74  H    0.008790
    75  H    0.061661
    76  H    0.026270
    77  H    0.173755
    78  H    0.051392
    79  H   -0.007733
 Sum of Mulliken charges =   0.00000

 Dipole moment (field-independent basis, Debye):
    X=              0.0832    Y=              2.9463    Z=              3.3919  Tot=              4.4937
 Quadrupole moment (field-independent basis, Debye-Ang):
   XX=           -233.1787   YY=           -248.6890   ZZ=           -267.3885
   XY=             -9.9897   XZ=             34.2240   YZ=              4.1328

 Normal termination of Gaussian 09 at Tue Jul  9 04:48:10 2019.
