 Gaussian 09, Revision D.01,
 Gaussian 09:  ES64L-G09RevD.01 24-Apr-2013

 --------------------------
 # td=(NStates=1) B3LYP/SVP
 --------------------------

 --
 TD
 --
 Symbolic Z-matrix:
 Charge =  0 Multiplicity = 1

                         Standard orientation:
 ---------------------------------------------------------------------
 Center     Atomic      Atomic             Coordinates (Angstroms)
 Number     Number       Type             X           Y           Z
 ---------------------------------------------------------------------
      1          8           0        5.324707   -0.510348   -3.385067
      2          8           0       -2.895481   -3.017971    3.395218
      3          8           0       -3.284053   -0.789192    2.817772
      4          8           0       -1.400953    7.106836    1.450310
      5          8           0       -0.629599    7.018710   -0.653759
      6          8           0       -1.958879   -4.116363    0.115267
      7          7           0        2.336630    0.984188    0.540120
      8          7           0        4.395558   -0.533669   -1.170926
      9          7           0       -1.933187    0.647808   -0.410525
     10          7           0       -2.548542   -1.928767   -0.509725
     11          6           0        4.850188   -1.072374    0.023617
     12          6           0        4.466279   -0.097400    1.161825
     13          6           0        3.033752    0.131523    1.404317
     14          6           0        2.036796   -0.494189    2.155145
     15          6           0        0.697177   -0.019981    1.787334
     16          6           0        0.992307    1.003759    0.847379
     17          6           0        6.346365   -1.281656   -0.183434
     18          6           0       -0.517280   -0.251985    2.538787
     19          6           0        6.702319   -1.042860   -1.476014
     20          6           0        0.163094    1.905808    0.096912
     21          6           0       -1.042201    1.795945   -0.411488
     22          6           0        5.408012   -0.622474   -2.202745
     23          6           0       -1.876039    2.926837   -0.835516
     24          6           0        2.305559   -1.597612    3.072248
     25          6           0        7.148593   -1.650484    1.002242
     26          6           0       -3.147411    2.331182   -1.222613
     27          6           0       -1.039779   -1.662205    2.508016
     28          6           0       -3.083034    0.918961   -1.003316
     29          6           0       -1.636158    4.387247   -0.880891
     30          6           0        7.983241   -1.141641   -2.135438
     31          6           0       -1.750692    5.093440    0.399622
     32          6           0       -4.351825    3.031980   -1.840711
     33          6           0       -3.997253   -0.100605   -1.289641
     34          6           0       -2.494118   -1.734362    2.886697
     35          6           0       -3.711843   -1.440331   -1.045124
     36          6           0        9.179904   -0.864732   -1.495987
     37          6           0       -1.178049    6.473485    0.387520
     38          6           0       -4.695808   -2.559909   -1.340275
     39          6           0       -4.076549   -3.680396   -1.085702
     40          6           0       -2.762638   -3.352826   -0.422738
     41          6           0       -5.925182   -2.278670   -2.114232
     42          6           0       -4.474475   -5.119674   -1.162634
     43          6           0       -6.836681   -3.215833   -2.315791
     44          1           0        4.321344   -2.038892    0.233669
     45          1           0        5.003230    0.766709    1.119206
     46          1           0        4.987588   -0.472138    2.211746
     47          1           0        2.663163    1.514537   -0.141251
     48          1           0        3.415675   -0.601790   -1.533354
     49          1           0       -0.415418    0.175722    3.632547
     50          1           0       -1.383448    0.378703    2.143656
     51          1           0        0.589444    2.715402   -0.184485
     52          1           0        3.426910   -1.648972    3.494208
     53          1           0        1.742273   -1.409998    3.949193
     54          1           0        1.882981   -2.796276    2.915357
     55          1           0        6.624688   -2.337937    1.705810
     56          1           0        7.428761   -0.803472    1.652381
     57          1           0        8.126489   -2.088949    0.849868
     58          1           0       -0.991534   -2.131700    1.571833
     59          1           0       -0.590073   -2.359887    3.370495
     60          1           0       -1.699880   -0.424934   -0.267312
     61          1           0       -2.334706    4.835875   -1.596400
     62          1           0       -0.517772    4.410412   -1.263764
     63          1           0        7.703755   -1.511372   -3.268202
     64          1           0       -1.577067    4.417277    1.198354
     65          1           0       -2.919490    5.038840    0.612038
     66          1           0       -4.369889    4.151331   -1.964330
     67          1           0       -5.320170    2.655954   -1.427554
     68          1           0       -4.461214    2.636834   -2.846893
     69          1           0       -5.026420    0.124585   -1.916511
     70          1           0        9.393190   -0.553673   -0.497820
     71          1           0       10.246259   -0.893839   -1.879032
     72          1           0       -3.753755   -2.667304    3.601199
     73          1           0       -6.108385   -1.279079   -2.287440
     74          1           0       -4.559184   -5.355923   -2.118446
     75          1           0       -3.726192   -5.855923   -0.616500
     76          1           0       -5.405664   -5.307822   -0.651226
     77          1           0       -1.131361    8.102327    1.402427
     78          1           0       -7.766191   -3.090091   -3.026660
     79          1           0       -6.796508   -4.322639   -2.081573
 ---------------------------------------------------------------------

 SCF Done:  E(RB3LYP) =  -1947.86354585     A.U. after   16 cycles

 Excitation energies and oscillator strengths:

 Excited State   1:      Singlet-A      2.2604 eV  548.50 nm  f=0.4573  <S**2>=0.000
     155 ->156         0.69766
 This state for optimization and/or second-order correction.
 Total Energy, E(TD-HF/TD-KS) =  -1947.78047636
 Copying the excited state density for this state as the 1-particle RhoCI density.

 The electronic state is 1-A.
 Alpha  occ. eigenvalues --  -19.21538 -19.16503 -19.12734 -19.12206 -19.11598
 Alpha  occ. eigenvalues --  -19.10302 -14.37633 -14.35945 -14.35430 -14.29340
 Alpha  occ. eigenvalues --  -10.33521 -10.31324 -10.29376 -10.26459 -10.24623
 Alpha  occ. eigenvalues --  -10.24457 -10.24407 -10.23238 -10.23139 -10.23018
 Alpha  occ. eigenvalues --  -10.22417 -10.22059 -10.22056 -10.21918 -10.21497
 Alpha  occ. eigenvalues --  -10.21457 -10.21293 -10.20886 -10.20773 -10.20602
 Alpha  occ. eigenvalues --  -10.20469 -10.20438 -10.20380 -10.20283 -10.19874
 Alpha  occ. eigenvalues --  -10.19823 -10.19719 -10.19646 -10.19395 -10.19395
 Alpha  occ. eigenvalues --  -10.19358 -10.18865 -10.17706  -1.13314  -1.07033
 Alpha  occ. eigenvalues --   -1.04370  -1.00302  -0.98883  -0.98799  -0.97629
 Alpha  occ. eigenvalues --   -0.97439  -0.95034  -0.90644  -0.84148  -0.82396
 Alpha  occ. eigenvalues --   -0.82076  -0.82001  -0.80716  -0.79514  -0.78372
 Alpha  occ. eigenvalues --   -0.77264  -0.76885  -0.75780  -0.74642  -0.72624
 Alpha  occ. eigenvalues --   -0.71603  -0.71203  -0.69905  -0.69251  -0.68788
 Alpha  occ. eigenvalues --   -0.67543  -0.66447  -0.64166  -0.62791  -0.61918
 Alpha  occ. eigenvalues --   -0.60305  -0.58421  -0.57552  -0.57472  -0.56446
 Alpha  occ. eigenvalues --   -0.56021  -0.55346  -0.54841  -0.53916  -0.53585
 Alpha  occ. eigenvalues --   -0.52989  -0.52317  -0.51664  -0.51046  -0.50272
 Alpha  occ. eigenvalues --   -0.49403  -0.49035  -0.48415  -0.47933  -0.47594
 Alpha  occ. eigenvalues --   -0.47349  -0.47220  -0.47015  -0.46332  -0.45266
 Alpha  occ. eigenvalues --   -0.45043  -0.44824  -0.44547  -0.44465  -0.44359
 Alpha  occ. eigenvalues --   -0.44066  -0.43865  -0.42856  -0.42514  -0.42228
 Alpha  occ. eigenvalues --   -0.41958  -0.41810  -0.41244  -0.41036  -0.40917
 Alpha  occ. eigenvalues --   -0.40787  -0.40344  -0.40220  -0.39941  -0.39850
 Alpha  occ. eigenvalues --   -0.39557  -0.38998  -0.38954  -0.38752  -0.38425
 Alpha  occ. eigenvalues --   -0.37840  -0.37659  -0.37521  -0.37303  -0.37096
 Alpha  occ. eigenvalues --   -0.36206  -0.36101  -0.35754  -0.34545  -0.34059
 Alpha  occ. eigenvalues --   -0.34032  -0.33318  -0.31867  -0.31753  -0.31446
 Alpha  occ. eigenvalues --   -0.31183  -0.31145  -0.29069  -0.28013  -0.27611
 Alpha  occ. eigenvalues --   -0.27569  -0.27223  -0.26046  -0.24955  -0.24452
 Alpha  occ. eigenvalues --   -0.24186  -0.24104  -0.23790  -0.22706  -0.19636
 Alpha virt. eigenvalues --   -0.10577  -0.06013  -0.05625  -0.02304  -0.00495
 Alpha virt. eigenvalues --   -0.00193   0.00296   0.00702   0.01298   0.01994
 Alpha virt. eigenvalues --    0.03432   0.03539   0.05030   0.05214   0.05696

 Mulliken charges:
               1
     1  O   -0.175528
     2  O   -0.209171
     3  O   -0.253340
     4  O   -0.115573
     5  O   -0.316777
     6  O   -0.213572
     7  N   -0.030420
     8  N   -0.246422
     9  N   -0.140689
    10  N   -0.342414
    11  C    0.114322
    12  C    0.162395
    13  C   -0.019370
    14  C   -0.123901
    15  C   -0.036523
    16  C    0.063021
    17  C   -0.129751
    18  C   -0.003665
    19  C   -0.084747
    20  C   -0.030953
    21  C    0.169390
    22  C    0.153002
    23  C   -0.130263
    24  C    0.006762
    25  C    0.084197
    26  C   -0.137422
    27  C    0.044192
    28  C    0.132089
    29  C    0.086929
    30  C    0.003577
    31  C   -0.011271
    32  C    0.093749
    33  C   -0.173619
    34  C    0.150227
    35  C    0.091157
    36  C   -0.067248
    37  C    0.171715
    38  C    0.020186
    39  C   -0.204718
    40  C    0.171582
    41  C    0.076699
    42  C    0.135538
    43  C   -0.079693
    44  H    0.027894
    45  H   -0.046202
    46  H    0.007636
    47  H    0.057249
    48  H    0.143802
    49  H    0.030863
    50  H    0.034177
    51  H   -0.107722
    52  H    0.016950
    53  H   -0.005270
    54  H    0.056087
    55  H    0.020408
    56  H    0.027595
    57  H    0.013130
    58  H    0.049259
    59  H    0.045925
    60  H    0.191777
    61  H    0.019962
    62  H    0.040803
    63  H    0.066044
    64  H    0.019968
    65  H    0.044402
    66  H    0.030438
    67  H    0.022532
    68  H    0.015574
    69  H    0.024189
    70  H    0.014848
    71  H    0.033427
    72  H    0.148348
    73  H   -0.042690
    74  H   -0.011050
    75  H    0.042376
    76  H    0.023811
    77  H    0.227600
    78  H    0.031183
    79  H    0.031001
 Sum of Mulliken charges =   0.00000

 Dipole moment (field-independent basis, Debye):
    X=              0.3345    Y=              4.4351    Z=              3.4539  Tot=              5.6313
 Quadrupole moment (field-independent basis, Debye-Ang):
   XX=           -217.3413   YY=           -245.1777   ZZ=           -261.9116
   XY=            -10.6118   XZ=             32.6932   YZ=             14.4348

 Normal termination of Gaussian 09 at Mon Jul  8 21:03:22 2019.
