 Gaussian 09, Revision D.01,
 Gaussian 09:  ES64L-G09RevD.01 24-Apr-2013

 --------------------------
 # td=(NStates=1) B3LYP/SVP
 --------------------------

 --
 TD
 --
 Symbolic Z-matrix:
 Charge =  0 Multiplicity = 1

                         Standard orientation:
 ---------------------------------------------------------------------
 Center     Atomic      Atomic             Coordinates (Angstroms)
 Number     Number       Type             X           Y           Z
 ---------------------------------------------------------------------
      1          8           0        5.424868   -0.351808   -3.409781
      2          8           0       -2.848464   -3.168291    3.319475
      3          8           0       -3.164717   -0.896998    3.308976
      4          8           0       -1.487513    7.193198    1.497453
      5          8           0       -0.531165    7.061840   -0.453008
      6          8           0       -2.088851   -4.058825    0.001725
      7          7           0        2.369772    1.005643    0.650931
      8          7           0        4.330935   -0.635912   -1.287149
      9          7           0       -1.960094    0.688925   -0.380671
     10          7           0       -2.645744   -1.964611   -0.519401
     11          6           0        4.785118   -1.135763   -0.009756
     12          6           0        4.430566   -0.311598    1.252195
     13          6           0        3.027962   -0.044997    1.401451
     14          6           0        2.013457   -0.640942    2.122477
     15          6           0        0.772295   -0.147421    1.786094
     16          6           0        0.999691    0.942692    0.849054
     17          6           0        6.316237   -1.331294   -0.215351
     18          6           0       -0.464500   -0.323868    2.556728
     19          6           0        6.672238   -0.777888   -1.385864
     20          6           0        0.092221    1.938140    0.260334
     21          6           0       -1.195870    1.808882   -0.180643
     22          6           0        5.483250   -0.565586   -2.234242
     23          6           0       -1.962935    2.968459   -0.840148
     24          6           0        2.329077   -1.718963    3.120036
     25          6           0        7.176703   -1.855332    0.981781
     26          6           0       -3.128478    2.418106   -1.297500
     27          6           0       -1.046612   -1.720469    2.483656
     28          6           0       -3.143895    1.057261   -0.971422
     29          6           0       -1.442669    4.300603   -0.901056
     30          6           0        7.981555   -0.773995   -2.206754
     31          6           0       -1.651026    5.095765    0.396028
     32          6           0       -4.271835    3.221131   -1.888964
     33          6           0       -3.995086   -0.021175   -1.232019
     34          6           0       -2.488275   -1.825643    3.064053
     35          6           0       -3.771008   -1.388598   -1.070574
     36          6           0        9.168553   -0.915700   -1.608610
     37          6           0       -1.175192    6.513658    0.412756
     38          6           0       -4.756302   -2.532748   -1.479223
     39          6           0       -4.164725   -3.698551   -1.154248
     40          6           0       -2.885627   -3.323908   -0.534669
     41          6           0       -6.037669   -2.277506   -2.101006
     42          6           0       -4.452014   -5.138630   -1.322874
     43          6           0       -6.912145   -3.037674   -2.690739
     44          1           0        4.497265   -2.335763    0.077294
     45          1           0        5.017629    0.665521    0.973407
     46          1           0        4.793838   -0.689842    2.144681
     47          1           0        3.035852    1.486850   -0.133792
     48          1           0        3.432407   -0.714324   -1.753149
     49          1           0       -0.230807   -0.004898    3.614192
     50          1           0       -1.255220    0.433790    2.060655
     51          1           0        0.571126    2.931976    0.234368
     52          1           0        3.348502   -1.978700    3.271350
     53          1           0        1.804127   -1.690198    4.109726
     54          1           0        1.935599   -2.661253    2.781301
     55          1           0        6.588342   -2.688996    1.445328
     56          1           0        7.396348   -0.966760    1.739134
     57          1           0        8.067998   -2.284584    0.590433
     58          1           0       -1.222175   -2.182600    1.466407
     59          1           0       -0.416938   -2.590022    2.769544
     60          1           0       -1.660926   -0.186395   -0.157833
     61          1           0       -1.944887    4.753246   -1.666943
     62          1           0       -0.424290    4.359740   -0.676183
     63          1           0        7.850058   -0.732372   -3.318142
     64          1           0       -1.213650    4.575124    1.272792
     65          1           0       -2.625093    5.137049    0.585275
     66          1           0       -4.021643    4.163608   -1.696452
     67          1           0       -5.280942    3.093437   -1.311832
     68          1           0       -4.396743    3.081555   -3.017267
     69          1           0       -4.934273    0.365111   -1.730751
     70          1           0        9.434937   -1.052893   -0.482885
     71          1           0       10.014572   -0.936908   -2.380853
     72          1           0       -3.591536   -3.021322    3.850092
     73          1           0       -6.246286   -1.206589   -2.020000
     74          1           0       -4.425970   -5.530375   -2.237829
     75          1           0       -3.698983   -5.778034   -0.460459
     76          1           0       -5.308543   -5.420807   -0.808439
     77          1           0       -1.069121    8.046932    1.257117
     78          1           0       -7.943574   -2.821632   -3.032703
     79          1           0       -6.792708   -4.048602   -2.888176
 ---------------------------------------------------------------------

 SCF Done:  E(RB3LYP) =  -1947.87927510     A.U. after   19 cycles

 Excitation energies and oscillator strengths:

 Excited State   1:      Singlet-A      2.0910 eV  592.95 nm  f=0.4613  <S**2>=0.000
     155 ->156         0.70141
     155 <-156        -0.11498
 This state for optimization and/or second-order correction.
 Total Energy, E(TD-HF/TD-KS) =  -1947.80243280
 Copying the excited state density for this state as the 1-particle RhoCI density.

 The electronic state is 1-A.
 Alpha  occ. eigenvalues --  -19.19714 -19.15289 -19.13427 -19.12070 -19.11983
 Alpha  occ. eigenvalues --  -19.09130 -14.38709 -14.36562 -14.35179 -14.28542
 Alpha  occ. eigenvalues --  -10.32994 -10.30342 -10.29267 -10.26344 -10.24986
 Alpha  occ. eigenvalues --  -10.24741 -10.24677 -10.23689 -10.23614 -10.23009
 Alpha  occ. eigenvalues --  -10.22478 -10.22302 -10.22286 -10.22232 -10.22128
 Alpha  occ. eigenvalues --  -10.21496 -10.21382 -10.21087 -10.20955 -10.20643
 Alpha  occ. eigenvalues --  -10.20597 -10.20464 -10.20114 -10.19910 -10.19342
 Alpha  occ. eigenvalues --  -10.19290 -10.18811 -10.18800 -10.18771 -10.18617
 Alpha  occ. eigenvalues --  -10.18400 -10.18339 -10.17922  -1.12981  -1.08042
 Alpha  occ. eigenvalues --   -1.04260  -1.01468  -1.01231  -1.00246  -0.99442
 Alpha  occ. eigenvalues --   -0.96214  -0.92986  -0.90332  -0.85697  -0.82146
 Alpha  occ. eigenvalues --   -0.81472  -0.81186  -0.80745  -0.80294  -0.79310
 Alpha  occ. eigenvalues --   -0.76721  -0.76002  -0.75339  -0.74802  -0.73228
 Alpha  occ. eigenvalues --   -0.71851  -0.71259  -0.71103  -0.69536  -0.68527
 Alpha  occ. eigenvalues --   -0.66371  -0.65945  -0.63991  -0.61623  -0.60739
 Alpha  occ. eigenvalues --   -0.59322  -0.58840  -0.58002  -0.57734  -0.57085
 Alpha  occ. eigenvalues --   -0.56667  -0.55555  -0.54851  -0.54259  -0.53773
 Alpha  occ. eigenvalues --   -0.52788  -0.51720  -0.51584  -0.50897  -0.50340
 Alpha  occ. eigenvalues --   -0.49977  -0.49015  -0.48534  -0.48069  -0.47535
 Alpha  occ. eigenvalues --   -0.47209  -0.46964  -0.46632  -0.46292  -0.45898
 Alpha  occ. eigenvalues --   -0.45775  -0.45279  -0.44800  -0.44497  -0.44294
 Alpha  occ. eigenvalues --   -0.43972  -0.43814  -0.43524  -0.43294  -0.42842
 Alpha  occ. eigenvalues --   -0.42458  -0.42415  -0.42231  -0.41697  -0.41516
 Alpha  occ. eigenvalues --   -0.41100  -0.40806  -0.40689  -0.40400  -0.40038
 Alpha  occ. eigenvalues --   -0.39593  -0.39394  -0.39343  -0.39065  -0.38808
 Alpha  occ. eigenvalues --   -0.38266  -0.37872  -0.37654  -0.37310  -0.36801
 Alpha  occ. eigenvalues --   -0.36732  -0.36310  -0.35193  -0.35026  -0.33844
 Alpha  occ. eigenvalues --   -0.33618  -0.33493  -0.32190  -0.31686  -0.31479
 Alpha  occ. eigenvalues --   -0.31239  -0.30895  -0.29382  -0.28680  -0.27121
 Alpha  occ. eigenvalues --   -0.27065  -0.26727  -0.26508  -0.26191  -0.25234
 Alpha  occ. eigenvalues --   -0.24716  -0.23789  -0.23565  -0.22227  -0.18931
 Alpha virt. eigenvalues --   -0.10783  -0.05964  -0.05634  -0.00618  -0.00176
 Alpha virt. eigenvalues --    0.00578   0.01039   0.02526   0.02749   0.02875
 Alpha virt. eigenvalues --    0.03095   0.04382   0.05049   0.05300   0.05551

 Mulliken charges:
               1
     1  O   -0.185561
     2  O   -0.195728
     3  O   -0.184855
     4  O   -0.146944
     5  O   -0.241024
     6  O   -0.191767
     7  N   -0.178850
     8  N   -0.269086
     9  N   -0.018947
    10  N   -0.266143
    11  C    0.057878
    12  C    0.226382
    13  C   -0.065970
    14  C   -0.099461
    15  C   -0.081737
    16  C    0.049661
    17  C   -0.202081
    18  C    0.077525
    19  C   -0.060919
    20  C   -0.105212
    21  C    0.105657
    22  C    0.157093
    23  C   -0.116989
    24  C    0.126506
    25  C    0.066739
    26  C   -0.130719
    27  C   -0.042545
    28  C    0.095962
    29  C    0.240451
    30  C   -0.007387
    31  C    0.020679
    32  C    0.129708
    33  C   -0.137893
    34  C    0.129455
    35  C    0.134407
    36  C   -0.064417
    37  C    0.102841
    38  C    0.052415
    39  C   -0.197083
    40  C    0.116269
    41  C    0.019595
    42  C    0.115393
    43  C   -0.025884
    44  H    0.036121
    45  H    0.003603
    46  H   -0.022482
    47  H    0.166751
    48  H    0.134062
    49  H    0.026530
    50  H    0.032267
    51  H   -0.001531
    52  H   -0.021649
    53  H    0.012034
    54  H    0.008933
    55  H    0.027243
    56  H    0.068252
    57  H    0.027965
    58  H    0.065411
    59  H    0.010086
    60  H    0.096669
    61  H   -0.010011
    62  H   -0.013964
    63  H    0.045269
    64  H    0.048526
    65  H   -0.017005
    66  H   -0.039902
    67  H    0.045102
    68  H    0.048622
    69  H   -0.017681
    70  H    0.048913
    71  H    0.034866
    72  H    0.137679
    73  H   -0.022706
    74  H    0.011352
    75  H    0.042780
    76  H   -0.005140
    77  H    0.179009
    78  H    0.022731
    79  H   -0.016118
 Sum of Mulliken charges =   0.00000

 Dipole moment (field-independent basis, Debye):
    X=              1.3370    Y=              3.4768    Z=              2.4972  Tot=              4.4846
 Quadrupole moment (field-independent basis, Debye-Ang):
   XX=           -217.2562   YY=           -248.4279   ZZ=           -261.1575
   XY=            -15.9132   XZ=             31.4095   YZ=              2.9360

 Normal termination of Gaussian 09 at Tue Jul  9 07:43:42 2019.
