 Gaussian 09, Revision D.01,
 Gaussian 09:  ES64L-G09RevD.01 24-Apr-2013

 --------------------------
 # td=(NStates=1) B3LYP/SVP
 --------------------------

 --
 TD
 --
 Symbolic Z-matrix:
 Charge =  0 Multiplicity = 1

                         Standard orientation:
 ---------------------------------------------------------------------
 Center     Atomic      Atomic             Coordinates (Angstroms)
 Number     Number       Type             X           Y           Z
 ---------------------------------------------------------------------
      1          8           0        5.298726   -0.398084   -3.330291
      2          8           0       -2.747501   -3.237789    3.193417
      3          8           0       -3.312360   -1.043067    3.107520
      4          8           0       -1.250083    7.246487    1.642951
      5          8           0       -0.320748    7.132002   -0.482648
      6          8           0       -2.063081   -3.977227   -0.153258
      7          7           0        2.310241    0.759108    0.483570
      8          7           0        4.436261   -0.759825   -1.238750
      9          7           0       -1.943910    0.726124   -0.261521
     10          7           0       -2.832574   -1.805448   -0.571826
     11          6           0        4.922708   -1.285840    0.030114
     12          6           0        4.506091   -0.344744    1.146211
     13          6           0        2.979428   -0.148584    1.226476
     14          6           0        2.001317   -0.842333    2.079178
     15          6           0        0.734175   -0.184176    1.838870
     16          6           0        0.951210    0.817860    0.825706
     17          6           0        6.328331   -1.418331   -0.187862
     18          6           0       -0.542062   -0.319901    2.565800
     19          6           0        6.737109   -0.907712   -1.374001
     20          6           0        0.184451    1.788226    0.224172
     21          6           0       -1.102837    1.797328   -0.250989
     22          6           0        5.420670   -0.656663   -2.145457
     23          6           0       -1.817906    2.915589   -0.769654
     24          6           0        2.336388   -1.834353    3.098871
     25          6           0        7.183916   -1.872484    0.931873
     26          6           0       -3.106200    2.510448   -1.113645
     27          6           0       -1.067676   -1.760341    2.423411
     28          6           0       -3.084291    1.027066   -0.839694
     29          6           0       -1.314073    4.438081   -0.856209
     30          6           0        8.018804   -0.938352   -2.175306
     31          6           0       -1.486268    5.115078    0.522849
     32          6           0       -4.261813    3.130802   -1.822091
     33          6           0       -4.054425    0.061971   -1.277124
     34          6           0       -2.517776   -1.921876    2.955948
     35          6           0       -3.890364   -1.285855   -1.056808
     36          6           0        9.256815   -0.696879   -1.679786
     37          6           0       -1.014270    6.606729    0.484502
     38          6           0       -4.827981   -2.365569   -1.481525
     39          6           0       -4.332882   -3.510626   -1.201007
     40          6           0       -2.907288   -3.280032   -0.604799
     41          6           0       -6.230606   -2.009696   -1.798210
     42          6           0       -4.966492   -4.840069   -1.174523
     43          6           0       -6.954160   -2.822983   -2.853998
     44          1           0        4.369610   -2.262474    0.218299
     45          1           0        5.057836    0.702163    0.897426
     46          1           0        4.948266   -0.797586    2.094505
     47          1           0        2.632947    1.292624   -0.233849
     48          1           0        3.427630   -1.134024   -1.642309
     49          1           0       -0.465297   -0.259057    3.653809
     50          1           0       -1.294885    0.399106    2.276907
     51          1           0        0.917039    2.534762   -0.042405
     52          1           0        3.430970   -1.928012    3.329777
     53          1           0        1.604836   -1.816061    4.050612
     54          1           0        2.010208   -2.796819    2.707041
     55          1           0        6.834931   -2.777928    1.465246
     56          1           0        7.572721   -1.086607    1.837521
     57          1           0        8.176006   -2.184615    0.439391
     58          1           0       -0.816972   -2.254847    1.401201
     59          1           0       -0.445723   -2.397703    3.082916
     60          1           0       -1.884055   -0.119759   -0.060376
     61          1           0       -1.611476    5.058022   -1.527060
     62          1           0       -0.239528    4.349903   -0.908888
     63          1           0        7.960910   -1.114931   -3.190695
     64          1           0       -1.210588    4.487480    1.326298
     65          1           0       -2.580000    5.099170    0.654981
     66          1           0       -4.314203    4.325486   -1.919531
     67          1           0       -5.178911    2.722215   -1.332598
     68          1           0       -4.067242    2.909264   -2.927066
     69          1           0       -4.863469    0.540890   -1.689402
     70          1           0        9.506138   -0.588186   -0.604608
     71          1           0       10.111073   -0.790391   -2.220920
     72          1           0       -3.622504   -3.342194    3.494154
     73          1           0       -6.572067   -0.962844   -1.333531
     74          1           0       -4.399405   -5.552075   -2.159328
     75          1           0       -4.619184   -5.489082   -0.143193
     76          1           0       -6.002796   -4.823032   -1.061801
     77          1           0       -0.812666    8.205862    1.517762
     78          1           0       -8.104359   -2.540070   -2.922802
     79          1           0       -6.577799   -3.597610   -3.377109
 ---------------------------------------------------------------------

 SCF Done:  E(RB3LYP) =  -1947.80684839     A.U. after   17 cycles

 Excitation energies and oscillator strengths:

 Excited State   1:      Singlet-A      2.1714 eV  571.00 nm  f=0.5468  <S**2>=0.000
     155 ->156         0.69562
     155 <-156        -0.11490
 This state for optimization and/or second-order correction.
 Total Energy, E(TD-HF/TD-KS) =  -1947.72705210
 Copying the excited state density for this state as the 1-particle RhoCI density.

 The electronic state is 1-A.
 Alpha  occ. eigenvalues --  -19.20787 -19.16883 -19.13441 -19.12172 -19.11615
 Alpha  occ. eigenvalues --  -19.09793 -14.38520 -14.36214 -14.35756 -14.27355
 Alpha  occ. eigenvalues --  -10.34017 -10.31140 -10.28249 -10.27128 -10.24842
 Alpha  occ. eigenvalues --  -10.24474 -10.24360 -10.23999 -10.23705 -10.22649
 Alpha  occ. eigenvalues --  -10.22600 -10.22367 -10.22091 -10.21839 -10.21451
 Alpha  occ. eigenvalues --  -10.21418 -10.21376 -10.21227 -10.21150 -10.21120
 Alpha  occ. eigenvalues --  -10.21042 -10.21039 -10.20866 -10.20781 -10.20330
 Alpha  occ. eigenvalues --  -10.20035 -10.19851 -10.19600 -10.19255 -10.18853
 Alpha  occ. eigenvalues --  -10.18648 -10.18336 -10.17371  -1.09054  -1.09012
 Alpha  occ. eigenvalues --   -1.03469  -1.02623  -1.01148  -1.00767  -0.99135
 Alpha  occ. eigenvalues --   -0.97598  -0.95164  -0.92203  -0.83196  -0.82395
 Alpha  occ. eigenvalues --   -0.82094  -0.81633  -0.80087  -0.79388  -0.78602
 Alpha  occ. eigenvalues --   -0.77460  -0.76283  -0.75592  -0.73507  -0.71910
 Alpha  occ. eigenvalues --   -0.71497  -0.70820  -0.69549  -0.68348  -0.67807
 Alpha  occ. eigenvalues --   -0.67390  -0.66241  -0.63353  -0.61523  -0.61183
 Alpha  occ. eigenvalues --   -0.60396  -0.59352  -0.59083  -0.58179  -0.57875
 Alpha  occ. eigenvalues --   -0.56899  -0.56275  -0.55418  -0.54861  -0.53690
 Alpha  occ. eigenvalues --   -0.52196  -0.51624  -0.51420  -0.50340  -0.50056
 Alpha  occ. eigenvalues --   -0.49248  -0.48773  -0.48395  -0.48121  -0.47383
 Alpha  occ. eigenvalues --   -0.47195  -0.46911  -0.46686  -0.46094  -0.45857
 Alpha  occ. eigenvalues --   -0.45315  -0.44734  -0.44157  -0.44009  -0.43549
 Alpha  occ. eigenvalues --   -0.43354  -0.43093  -0.43002  -0.42845  -0.42561
 Alpha  occ. eigenvalues --   -0.42311  -0.41880  -0.41481  -0.41166  -0.41091
 Alpha  occ. eigenvalues --   -0.40649  -0.40572  -0.40215  -0.39985  -0.39678
 Alpha  occ. eigenvalues --   -0.39547  -0.39473  -0.39057  -0.38823  -0.38465
 Alpha  occ. eigenvalues --   -0.38164  -0.37776  -0.37581  -0.37353  -0.36593
 Alpha  occ. eigenvalues --   -0.36511  -0.36120  -0.35843  -0.35124  -0.34888
 Alpha  occ. eigenvalues --   -0.34626  -0.33698  -0.32789  -0.31989  -0.31923
 Alpha  occ. eigenvalues --   -0.31254  -0.30528  -0.28528  -0.28310  -0.27657
 Alpha  occ. eigenvalues --   -0.27017  -0.26645  -0.26073  -0.25479  -0.25106
 Alpha  occ. eigenvalues --   -0.24485  -0.23542  -0.23039  -0.21918  -0.18175
 Alpha virt. eigenvalues --   -0.09804  -0.06237  -0.05995  -0.02688  -0.01872
 Alpha virt. eigenvalues --   -0.00025   0.00878   0.01455   0.01983   0.02128
 Alpha virt. eigenvalues --    0.03075   0.03563   0.03988   0.04637   0.04897

 Mulliken charges:
               1
     1  O   -0.224030
     2  O   -0.158442
     3  O   -0.206365
     4  O   -0.203401
     5  O   -0.310301
     6  O   -0.142939
     7  N   -0.006976
     8  N   -0.221541
     9  N    0.157342
    10  N   -0.290449
    11  C    0.075311
    12  C    0.136476
    13  C   -0.076286
    14  C   -0.133291
    15  C   -0.066232
    16  C    0.036817
    17  C   -0.118212
    18  C    0.129802
    19  C   -0.046955
    20  C   -0.145410
    21  C    0.163082
    22  C    0.111949
    23  C   -0.133558
    24  C    0.069213
    25  C   -0.012852
    26  C   -0.113795
    27  C   -0.098269
    28  C   -0.057966
    29  C    0.236277
    30  C    0.016520
    31  C   -0.006971
    32  C    0.026692
    33  C   -0.044307
    34  C    0.150100
    35  C    0.093261
    36  C   -0.001725
    37  C    0.202978
    38  C    0.050035
    39  C   -0.183158
    40  C    0.169499
    41  C   -0.094447
    42  C   -0.000357
    43  C   -0.036025
    44  H    0.024627
    45  H    0.021171
    46  H    0.020079
    47  H    0.080971
    48  H    0.180303
    49  H   -0.005940
    50  H    0.009196
    51  H   -0.017918
    52  H    0.015321
    53  H    0.033857
    54  H    0.024299
    55  H    0.024257
    56  H    0.065129
    57  H    0.035300
    58  H    0.091906
    59  H    0.007979
    60  H    0.004860
    61  H   -0.047973
    62  H   -0.007920
    63  H   -0.001926
    64  H    0.027562
    65  H    0.025504
    66  H    0.033213
    67  H    0.055885
    68  H    0.056518
    69  H   -0.083902
    70  H    0.020770
    71  H    0.000506
    72  H    0.151702
    73  H    0.056964
    74  H    0.056068
    75  H    0.037633
    76  H    0.014960
    77  H    0.228820
    78  H    0.049377
    79  H    0.019749
 Sum of Mulliken charges =   0.00000

 Dipole moment (field-independent basis, Debye):
    X=              1.5491    Y=              1.5281    Z=              4.1645  Tot=              4.6987
 Quadrupole moment (field-independent basis, Debye-Ang):
   XX=           -219.5653   YY=           -245.7713   ZZ=           -263.1680
   XY=            -15.2806   XZ=             26.0736   YZ=              3.9236

 Normal termination of Gaussian 09 at Wed Jul 10 08:05:57 2019.
