 Gaussian 09, Revision D.01,
 Gaussian 09:  ES64L-G09RevD.01 24-Apr-2013

 --------------------------
 # td=(NStates=1) B3LYP/SVP
 --------------------------

 --
 TD
 --
 Symbolic Z-matrix:
 Charge =  0 Multiplicity = 1

                         Standard orientation:
 ---------------------------------------------------------------------
 Center     Atomic      Atomic             Coordinates (Angstroms)
 Number     Number       Type             X           Y           Z
 ---------------------------------------------------------------------
      1          8           0        5.169749   -0.027456   -3.313979
      2          8           0       -2.973626   -2.884604    3.183479
      3          8           0       -3.255630   -0.668687    3.412973
      4          8           0       -1.610867    7.077696    1.490319
      5          8           0       -1.209210    7.089700   -0.810560
      6          8           0       -1.667299   -4.167142   -0.088279
      7          7           0        2.377561    0.896242    0.533869
      8          7           0        4.402484   -0.650215   -1.197671
      9          7           0       -1.871881    0.579375   -0.392794
     10          7           0       -2.461643   -2.028331   -0.601559
     11          6           0        4.836815   -1.059013    0.083200
     12          6           0        4.524917   -0.239165    1.283155
     13          6           0        2.916698    0.081545    1.352466
     14          6           0        2.022980   -0.507380    2.203638
     15          6           0        0.731967    0.021798    1.816596
     16          6           0        0.936465    0.963788    0.751621
     17          6           0        6.376048   -1.204215   -0.122996
     18          6           0       -0.550101   -0.170061    2.641892
     19          6           0        6.609056   -0.825799   -1.405433
     20          6           0        0.175851    1.910418    0.158353
     21          6           0       -1.132905    1.833435   -0.354139
     22          6           0        5.432192   -0.492891   -2.174869
     23          6           0       -1.975499    2.850029   -0.861359
     24          6           0        2.224058   -1.493668    3.367341
     25          6           0        7.276948   -1.693050    0.933556
     26          6           0       -3.150596    2.291012   -1.218618
     27          6           0       -1.139546   -1.582405    2.534811
     28          6           0       -3.063708    0.810924   -1.004716
     29          6           0       -1.542390    4.211098   -0.977227
     30          6           0        8.035835   -0.805805   -2.092073
     31          6           0       -1.989673    5.063163    0.297552
     32          6           0       -4.327874    3.038888   -1.844623
     33          6           0       -3.955933   -0.245018   -1.272885
     34          6           0       -2.556318   -1.636103    3.010950
     35          6           0       -3.705026   -1.595365   -1.054230
     36          6           0        9.241570   -0.532688   -1.585813
     37          6           0       -1.593888    6.508233    0.203253
     38          6           0       -4.533178   -2.708483   -1.437061
     39          6           0       -3.845149   -3.869097   -1.105119
     40          6           0       -2.526905   -3.405953   -0.448325
     41          6           0       -5.865787   -2.516439   -2.102355
     42          6           0       -4.257512   -5.267643   -1.112144
     43          6           0       -6.520166   -3.513094   -2.673386
     44          1           0        4.506682   -2.158074    0.496218
     45          1           0        4.881670    0.806528    1.354432
     46          1           0        4.678586   -1.008205    2.016864
     47          1           0        2.920976    1.549630   -0.285202
     48          1           0        3.334499   -0.631829   -1.445322
     49          1           0       -0.394618    0.193983    3.732143
     50          1           0       -1.317948    0.417417    2.092135
     51          1           0        0.675139    2.972598    0.008891
     52          1           0        3.325003   -1.593880    3.731654
     53          1           0        1.668059   -1.027362    4.234795
     54          1           0        1.794483   -2.494136    3.135697
     55          1           0        6.684664   -2.381804    1.660240
     56          1           0        7.563004   -0.894040    1.501211
     57          1           0        7.985200   -2.394655    0.469146
     58          1           0       -1.141163   -2.068138    1.518316
     59          1           0       -0.612577   -2.359758    3.217925
     60          1           0       -1.658363   -0.193525   -0.072810
     61          1           0       -1.765738    4.698990   -2.018478
     62          1           0       -0.362515    4.225390   -0.862367
     63          1           0        8.048916   -0.769276   -3.238214
     64          1           0       -1.533800    4.574547    1.262199
     65          1           0       -3.131727    4.933156    0.478151
     66          1           0       -4.129790    4.075768   -2.146651
     67          1           0       -5.311241    3.222894   -1.230070
     68          1           0       -4.631134    2.355450   -2.738481
     69          1           0       -4.955868    0.046701   -1.771514
     70          1           0        9.352156   -0.524381   -0.565737
     71          1           0       10.231011   -0.726045   -2.088941
     72          1           0       -3.823898   -2.811515    3.696224
     73          1           0       -6.286813   -1.573294   -2.183476
     74          1           0       -3.949926   -5.838639   -2.055027
     75          1           0       -3.778106   -5.921548   -0.413699
     76          1           0       -5.347525   -5.420754   -0.899844
     77          1           0       -1.535972    8.034775    1.329083
     78          1           0       -7.337121   -3.082737   -3.166794
     79          1           0       -6.050259   -4.495767   -2.883313
 ---------------------------------------------------------------------

 SCF Done:  E(RB3LYP) =  -1947.87831567     A.U. after   20 cycles

 Excitation energies and oscillator strengths:

 Excited State   1:      Singlet-A      2.0325 eV  610.00 nm  f=0.1848  <S**2>=0.000
     153 ->156        -0.16999
     154 ->156         0.36067
     155 ->156         0.57863
 This state for optimization and/or second-order correction.
 Total Energy, E(TD-HF/TD-KS) =  -1947.80362165
 Copying the excited state density for this state as the 1-particle RhoCI density.

 The electronic state is 1-A.
 Alpha  occ. eigenvalues --  -19.18982 -19.17547 -19.14731 -19.10929 -19.10809
 Alpha  occ. eigenvalues --  -19.09360 -14.40210 -14.36070 -14.35993 -14.27366
 Alpha  occ. eigenvalues --  -10.33828 -10.30727 -10.29851 -10.26065 -10.25494
 Alpha  occ. eigenvalues --  -10.25097 -10.24820 -10.23896 -10.23558 -10.23490
 Alpha  occ. eigenvalues --  -10.23251 -10.23023 -10.22886 -10.22698 -10.22380
 Alpha  occ. eigenvalues --  -10.21981 -10.21821 -10.21762 -10.21665 -10.21504
 Alpha  occ. eigenvalues --  -10.21319 -10.20884 -10.20805 -10.20557 -10.19839
 Alpha  occ. eigenvalues --  -10.19394 -10.19297 -10.19285 -10.18976 -10.18919
 Alpha  occ. eigenvalues --  -10.18829 -10.18132 -10.17694  -1.08789  -1.08581
 Alpha  occ. eigenvalues --   -1.01128  -1.01125  -1.00919  -0.99867  -0.98601
 Alpha  occ. eigenvalues --   -0.96945  -0.94053  -0.90032  -0.84749  -0.82356
 Alpha  occ. eigenvalues --   -0.82213  -0.80723  -0.79684  -0.79342  -0.78126
 Alpha  occ. eigenvalues --   -0.77216  -0.76638  -0.75992  -0.74803  -0.73210
 Alpha  occ. eigenvalues --   -0.72859  -0.70851  -0.69922  -0.69527  -0.68505
 Alpha  occ. eigenvalues --   -0.67291  -0.65775  -0.63872  -0.60457  -0.60102
 Alpha  occ. eigenvalues --   -0.59986  -0.58680  -0.58283  -0.57893  -0.57144
 Alpha  occ. eigenvalues --   -0.56461  -0.55160  -0.54716  -0.54431  -0.53311
 Alpha  occ. eigenvalues --   -0.52564  -0.51997  -0.51146  -0.50605  -0.50112
 Alpha  occ. eigenvalues --   -0.49352  -0.48581  -0.48506  -0.47968  -0.47750
 Alpha  occ. eigenvalues --   -0.47193  -0.46805  -0.46722  -0.46479  -0.46191
 Alpha  occ. eigenvalues --   -0.45496  -0.45120  -0.44747  -0.44150  -0.43925
 Alpha  occ. eigenvalues --   -0.43517  -0.42938  -0.42575  -0.42238  -0.42099
 Alpha  occ. eigenvalues --   -0.41891  -0.41504  -0.41348  -0.41328  -0.40971
 Alpha  occ. eigenvalues --   -0.40554  -0.40354  -0.40241  -0.39807  -0.39687
 Alpha  occ. eigenvalues --   -0.39565  -0.39306  -0.39044  -0.38815  -0.38473
 Alpha  occ. eigenvalues --   -0.38352  -0.38148  -0.38026  -0.37814  -0.37307
 Alpha  occ. eigenvalues --   -0.37027  -0.36291  -0.35025  -0.34653  -0.34272
 Alpha  occ. eigenvalues --   -0.33943  -0.33514  -0.33478  -0.32040  -0.31260
 Alpha  occ. eigenvalues --   -0.31077  -0.30258  -0.29828  -0.28556  -0.26875
 Alpha  occ. eigenvalues --   -0.26462  -0.26366  -0.26257  -0.26109  -0.25519
 Alpha  occ. eigenvalues --   -0.25267  -0.23882  -0.22476  -0.21130  -0.19067
 Alpha virt. eigenvalues --   -0.10717  -0.06630  -0.06090  -0.02562  -0.00782
 Alpha virt. eigenvalues --   -0.00549   0.00170   0.00634   0.01308   0.02260
 Alpha virt. eigenvalues --    0.02603   0.04342   0.04644   0.04948   0.05267

 Mulliken charges:
               1
     1  O   -0.242951
     2  O   -0.167620
     3  O   -0.294502
     4  O   -0.220566
     5  O   -0.226732
     6  O   -0.200417
     7  N   -0.116606
     8  N   -0.250246
     9  N    0.030061
    10  N   -0.328572
    11  C    0.024642
    12  C    0.260810
    13  C   -0.160140
    14  C   -0.127653
    15  C   -0.090269
    16  C    0.122048
    17  C   -0.180532
    18  C    0.097877
    19  C   -0.078382
    20  C   -0.155403
    21  C    0.083168
    22  C    0.207511
    23  C   -0.001919
    24  C    0.056104
    25  C    0.144080
    26  C   -0.107016
    27  C   -0.064108
    28  C    0.096569
    29  C    0.000501
    30  C   -0.022116
    31  C   -0.064537
    32  C    0.018940
    33  C   -0.129902
    34  C    0.140369
    35  C    0.104243
    36  C   -0.024343
    37  C    0.188195
    38  C    0.051259
    39  C   -0.189449
    40  C    0.156460
    41  C   -0.018467
    42  C    0.068585
    43  C    0.021197
    44  H    0.033193
    45  H    0.005500
    46  H   -0.024849
    47  H    0.192730
    48  H    0.164312
    49  H    0.043772
    50  H    0.009384
    51  H    0.018726
    52  H    0.021857
    53  H    0.027341
    54  H    0.054793
    55  H    0.019014
    56  H    0.026649
    57  H    0.052931
    58  H    0.093490
    59  H    0.042314
    60  H    0.005038
    61  H    0.064850
    62  H    0.023314
    63  H    0.035382
    64  H    0.066388
    65  H    0.067601
    66  H    0.019706
    67  H    0.044336
    68  H    0.047246
    69  H   -0.006826
    70  H   -0.019498
    71  H    0.041311
    72  H    0.189093
    73  H   -0.041877
    74  H    0.030127
    75  H    0.002616
    76  H    0.027997
    77  H    0.182025
    78  H   -0.001517
    79  H    0.031361
 Sum of Mulliken charges =   0.00000

 Dipole moment (field-independent basis, Debye):
    X=              2.1653    Y=              2.9970    Z=              4.2182  Tot=              5.6093
 Quadrupole moment (field-independent basis, Debye-Ang):
   XX=           -218.1473   YY=           -248.0238   ZZ=           -265.1439
   XY=            -15.0238   XZ=             32.5168   YZ=              1.1735

 Normal termination of Gaussian 09 at Tue Jul  9 14:26:00 2019.
