 Gaussian 09, Revision D.01,
 Gaussian 09:  ES64L-G09RevD.01 24-Apr-2013

 --------------------------
 # td=(NStates=1) B3LYP/SVP
 --------------------------

 --
 TD
 --
 Symbolic Z-matrix:
 Charge =  0 Multiplicity = 1

                         Standard orientation:
 ---------------------------------------------------------------------
 Center     Atomic      Atomic             Coordinates (Angstroms)
 Number     Number       Type             X           Y           Z
 ---------------------------------------------------------------------
      1          8           0        5.280759   -0.168510   -3.339832
      2          8           0       -2.891391   -2.927456    3.361518
      3          8           0       -3.359820   -0.773024    3.116441
      4          8           0       -1.799245    7.304692    1.302923
      5          8           0       -0.511453    6.919778   -0.571061
      6          8           0       -1.676080   -4.084512    0.022348
      7          7           0        2.298163    0.942882    0.629390
      8          7           0        4.347436   -0.538876   -1.226075
      9          7           0       -1.895390    0.654973   -0.359734
     10          7           0       -2.570993   -1.873521   -0.464289
     11          6           0        4.771874   -1.019393    0.113611
     12          6           0        4.370443   -0.278622    1.327532
     13          6           0        2.954997    0.049061    1.487547
     14          6           0        1.945508   -0.511361    2.189789
     15          6           0        0.729884    0.059005    1.785114
     16          6           0        0.931965    0.924527    0.811326
     17          6           0        6.227635   -1.290678   -0.084340
     18          6           0       -0.546206   -0.148266    2.526516
     19          6           0        6.606222   -0.879230   -1.379685
     20          6           0        0.165153    1.956195    0.150433
     21          6           0       -1.132866    1.785168   -0.300385
     22          6           0        5.387638   -0.508694   -2.151149
     23          6           0       -1.980608    2.915376   -0.854527
     24          6           0        2.136122   -1.567080    3.287315
     25          6           0        7.177022   -1.958821    0.840750
     26          6           0       -3.100791    2.337416   -1.334417
     27          6           0       -1.117837   -1.676103    2.556288
     28          6           0       -3.051293    0.857009   -0.998524
     29          6           0       -1.585347    4.336677   -0.986677
     30          6           0        7.840967   -0.733525   -2.137881
     31          6           0       -1.751163    5.073482    0.368211
     32          6           0       -4.382346    2.999999   -2.004188
     33          6           0       -3.937100   -0.168288   -1.202980
     34          6           0       -2.569067   -1.653438    3.094697
     35          6           0       -3.710232   -1.454935   -0.958333
     36          6           0        9.143818   -0.781075   -1.596645
     37          6           0       -1.278584    6.498356    0.347746
     38          6           0       -4.529009   -2.703140   -1.474476
     39          6           0       -3.807158   -3.819131   -1.215113
     40          6           0       -2.613396   -3.306551   -0.469378
     41          6           0       -5.840580   -2.483588   -2.047177
     42          6           0       -4.145818   -5.251723   -1.315565
     43          6           0       -6.611758   -3.506480   -2.611038
     44          1           0        4.253378   -1.907360    0.147392
     45          1           0        4.935137    0.809670    1.596289
     46          1           0        4.553455   -0.945561    2.220730
     47          1           0        2.799082    1.236008   -0.245821
     48          1           0        3.466954   -0.477472   -1.700501
     49          1           0       -0.282236    0.146616    3.610134
     50          1           0       -1.554985    0.451441    2.212122
     51          1           0        0.602859    2.910845   -0.244667
     52          1           0        3.308244   -1.601058    3.504284
     53          1           0        1.413090   -1.370426    4.121448
     54          1           0        1.906209   -2.694274    2.961433
     55          1           0        6.724854   -2.652134    1.629803
     56          1           0        7.643467   -1.271854    1.625626
     57          1           0        8.079516   -2.493333    0.483204
     58          1           0       -1.037751   -2.026602    1.485867
     59          1           0       -0.375982   -2.126839    3.059723
     60          1           0       -1.773977   -0.497664   -0.316452
     61          1           0       -2.556737    4.857800   -1.588089
     62          1           0       -0.547511    4.342895   -1.112557
     63          1           0        7.923299   -0.708090   -3.160283
     64          1           0       -1.159007    4.608857    1.218094
     65          1           0       -2.854996    5.286894    0.756868
     66          1           0       -3.891718    3.996503   -2.711488
     67          1           0       -5.311246    2.956581   -1.511468
     68          1           0       -4.545872    2.463416   -2.942657
     69          1           0       -4.812792    0.136506   -1.520303
     70          1           0        9.208243   -0.800350   -0.637980
     71          1           0       10.024589   -0.576063   -2.137906
     72          1           0       -3.794620   -3.029113    3.851305
     73          1           0       -6.472217   -1.593337   -2.164213
     74          1           0       -4.168973   -5.646408   -2.392113
     75          1           0       -3.317038   -5.879248   -0.691671
     76          1           0       -5.033239   -5.439053   -0.762856
     77          1           0       -1.215739    8.126014    1.304032
     78          1           0       -7.636789   -3.121728   -2.823126
     79          1           0       -6.284145   -4.490933   -2.904313
 ---------------------------------------------------------------------

 SCF Done:  E(RB3LYP) =  -1947.80913657     A.U. after   17 cycles

 Excitation energies and oscillator strengths:

 Excited State   1:      Singlet-A      2.2427 eV  552.84 nm  f=0.4421  <S**2>=0.000
     155 ->156         0.69474
 This state for optimization and/or second-order correction.
 Total Energy, E(TD-HF/TD-KS) =  -1947.72671918
 Copying the excited state density for this state as the 1-particle RhoCI density.

 The electronic state is 1-A.
 Alpha  occ. eigenvalues --  -19.19931 -19.16658 -19.12587 -19.11894 -19.10212
 Alpha  occ. eigenvalues --  -19.09846 -14.36809 -14.35895 -14.35406 -14.30709
 Alpha  occ. eigenvalues --  -10.32770 -10.30857 -10.28141 -10.27593 -10.25614
 Alpha  occ. eigenvalues --  -10.24588 -10.24539 -10.23554 -10.23375 -10.23092
 Alpha  occ. eigenvalues --  -10.22627 -10.22381 -10.22367 -10.22231 -10.22101
 Alpha  occ. eigenvalues --  -10.22037 -10.21864 -10.21621 -10.21443 -10.21344
 Alpha  occ. eigenvalues --  -10.21250 -10.21169 -10.21090 -10.20379 -10.20186
 Alpha  occ. eigenvalues --  -10.20173 -10.19730 -10.19490 -10.18554 -10.18306
 Alpha  occ. eigenvalues --  -10.17993 -10.17886 -10.17269  -1.09251  -1.08469
 Alpha  occ. eigenvalues --   -1.01281  -0.99710  -0.98875  -0.98602  -0.98186
 Alpha  occ. eigenvalues --   -0.97191  -0.93749  -0.91977  -0.83375  -0.82408
 Alpha  occ. eigenvalues --   -0.81817  -0.81163  -0.80652  -0.80195  -0.77893
 Alpha  occ. eigenvalues --   -0.77594  -0.76162  -0.75215  -0.74809  -0.72804
 Alpha  occ. eigenvalues --   -0.71729  -0.71078  -0.69513  -0.68819  -0.68150
 Alpha  occ. eigenvalues --   -0.67037  -0.65986  -0.64530  -0.61914  -0.61204
 Alpha  occ. eigenvalues --   -0.60041  -0.58960  -0.58603  -0.58337  -0.56739
 Alpha  occ. eigenvalues --   -0.55510  -0.55390  -0.54786  -0.54406  -0.53679
 Alpha  occ. eigenvalues --   -0.52561  -0.51823  -0.51372  -0.50283  -0.49662
 Alpha  occ. eigenvalues --   -0.49303  -0.48731  -0.48484  -0.47914  -0.47847
 Alpha  occ. eigenvalues --   -0.47540  -0.46986  -0.46607  -0.46402  -0.46019
 Alpha  occ. eigenvalues --   -0.45660  -0.45244  -0.44667  -0.44380  -0.43966
 Alpha  occ. eigenvalues --   -0.43480  -0.43119  -0.42725  -0.42065  -0.41860
 Alpha  occ. eigenvalues --   -0.41740  -0.41546  -0.41081  -0.40853  -0.40715
 Alpha  occ. eigenvalues --   -0.40296  -0.40209  -0.39990  -0.39768  -0.39664
 Alpha  occ. eigenvalues --   -0.39441  -0.39003  -0.38736  -0.38581  -0.37883
 Alpha  occ. eigenvalues --   -0.37684  -0.37551  -0.37281  -0.36766  -0.36574
 Alpha  occ. eigenvalues --   -0.36260  -0.35760  -0.35017  -0.34806  -0.34207
 Alpha  occ. eigenvalues --   -0.33467  -0.33034  -0.32064  -0.31725  -0.31467
 Alpha  occ. eigenvalues --   -0.31020  -0.30873  -0.28837  -0.27985  -0.27711
 Alpha  occ. eigenvalues --   -0.27536  -0.26362  -0.26301  -0.25393  -0.24330
 Alpha  occ. eigenvalues --   -0.24190  -0.24031  -0.23510  -0.22978  -0.19688
 Alpha virt. eigenvalues --   -0.10746  -0.07228  -0.06508  -0.01341  -0.01016
 Alpha virt. eigenvalues --    0.00394   0.01431   0.01500   0.01732   0.02676
 Alpha virt. eigenvalues --    0.03129   0.04103   0.04578   0.04724   0.05155

 Mulliken charges:
               1
     1  O   -0.250062
     2  O   -0.212253
     3  O   -0.195547
     4  O   -0.195170
     5  O   -0.286086
     6  O   -0.296960
     7  N   -0.134208
     8  N   -0.250310
     9  N   -0.106059
    10  N   -0.307377
    11  C    0.283241
    12  C    0.135576
    13  C   -0.122793
    14  C   -0.099975
    15  C   -0.005048
    16  C    0.077165
    17  C   -0.138932
    18  C   -0.092027
    19  C   -0.018877
    20  C   -0.108741
    21  C    0.096571
    22  C    0.138284
    23  C   -0.110341
    24  C    0.020231
    25  C    0.034370
    26  C   -0.109120
    27  C    0.023342
    28  C    0.047064
    29  C    0.182643
    30  C   -0.025703
    31  C   -0.087858
    32  C    0.061292
    33  C   -0.041890
    34  C    0.153320
    35  C    0.136197
    36  C    0.049991
    37  C    0.150359
    38  C    0.111199
    39  C   -0.159298
    40  C    0.210601
    41  C   -0.083212
    42  C    0.037244
    43  C   -0.041892
    44  H   -0.012301
    45  H    0.039935
    46  H   -0.005797
    47  H    0.121425
    48  H    0.124625
    49  H    0.016467
    50  H    0.059736
    51  H    0.007013
    52  H    0.020080
    53  H    0.037325
    54  H    0.055727
    55  H    0.015918
    56  H    0.029349
    57  H    0.045489
    58  H    0.087027
    59  H   -0.037955
    60  H    0.220773
    61  H    0.058275
    62  H   -0.006656
    63  H   -0.012018
    64  H    0.059316
    65  H    0.058330
    66  H    0.045377
    67  H    0.044390
    68  H    0.011766
    69  H   -0.113315
    70  H   -0.047651
    71  H    0.019312
    72  H    0.200311
    73  H    0.005400
    74  H    0.049305
    75  H    0.051565
    76  H    0.024445
    77  H    0.207499
    78  H    0.027676
    79  H    0.022886
 Sum of Mulliken charges =   0.00000

 Dipole moment (field-independent basis, Debye):
    X=             -0.8258    Y=              1.4480    Z=              3.4631  Tot=              3.8434
 Quadrupole moment (field-independent basis, Debye-Ang):
   XX=           -211.6531   YY=           -250.9706   ZZ=           -259.4021
   XY=             -7.3857   XZ=             33.1880   YZ=              4.9971

 Normal termination of Gaussian 09 at Mon Jul  8 02:08:13 2019.
