 Gaussian 09, Revision D.01,
 Gaussian 09:  ES64L-G09RevD.01 24-Apr-2013

 --------------------------
 # td=(NStates=1) B3LYP/SVP
 --------------------------

 --
 TD
 --
 Symbolic Z-matrix:
 Charge =  0 Multiplicity = 1

                         Standard orientation:
 ---------------------------------------------------------------------
 Center     Atomic      Atomic             Coordinates (Angstroms)
 Number     Number       Type             X           Y           Z
 ---------------------------------------------------------------------
      1          8           0        5.116115   -0.258298   -3.321407
      2          8           0       -2.907382   -2.975789    3.156782
      3          8           0       -3.248717   -0.780257    3.144298
      4          8           0       -1.459755    7.242428    1.295344
      5          8           0       -0.326093    6.745680   -0.497875
      6          8           0       -1.807492   -3.959071    0.012444
      7          7           0        2.298415    0.970880    0.654738
      8          7           0        4.300940   -0.752135   -1.232556
      9          7           0       -1.923611    0.665764   -0.294846
     10          7           0       -2.605235   -1.863913   -0.521007
     11          6           0        4.858193   -1.179151    0.088298
     12          6           0        4.532403   -0.211519    1.228346
     13          6           0        2.977489    0.007746    1.404029
     14          6           0        2.006170   -0.626331    2.198038
     15          6           0        0.696410   -0.149013    1.855061
     16          6           0        0.986397    0.917577    0.926763
     17          6           0        6.300087   -1.286731   -0.212935
     18          6           0       -0.590871   -0.285906    2.583621
     19          6           0        6.561331   -0.941357   -1.500014
     20          6           0        0.129259    1.978227    0.273315
     21          6           0       -1.056151    1.779041   -0.271861
     22          6           0        5.315069   -0.629053   -2.175945
     23          6           0       -1.914735    2.831837   -0.852807
     24          6           0        2.206530   -1.717975    3.264255
     25          6           0        7.213530   -1.884988    0.741517
     26          6           0       -3.070414    2.320459   -1.307308
     27          6           0       -1.215349   -1.648930    2.567556
     28          6           0       -3.086115    0.942604   -1.016432
     29          6           0       -1.570471    4.303220   -0.894080
     30          6           0        7.874339   -0.898620   -2.187558
     31          6           0       -1.749621    5.124213    0.397357
     32          6           0       -4.191330    3.050685   -1.847059
     33          6           0       -4.002921   -0.065217   -1.238174
     34          6           0       -2.565331   -1.665130    3.051028
     35          6           0       -3.710631   -1.464474   -1.121069
     36          6           0        9.081142   -0.873124   -1.643737
     37          6           0       -1.090104    6.452809    0.288458
     38          6           0       -4.672727   -2.530066   -1.481098
     39          6           0       -4.058095   -3.637051   -1.012604
     40          6           0       -2.730931   -3.176660   -0.370575
     41          6           0       -5.997827   -2.260002   -2.084099
     42          6           0       -4.487683   -5.105714   -1.054994
     43          6           0       -6.666460   -3.188355   -2.900287
     44          1           0        4.379677   -2.149330    0.256791
     45          1           0        5.105866    0.736548    1.251568
     46          1           0        4.938130   -0.658141    2.099165
     47          1           0        2.723012    1.490327    0.059893
     48          1           0        3.267030   -0.637192   -1.359900
     49          1           0       -0.464079   -0.080694    3.608107
     50          1           0       -1.199396    0.450331    2.241228
     51          1           0        0.747363    3.025569    0.406409
     52          1           0        3.479202   -1.858043    3.199140
     53          1           0        1.917218   -1.291957    4.278522
     54          1           0        1.983931   -2.654993    3.015767
     55          1           0        6.618971   -2.313691    1.805553
     56          1           0        7.930089   -1.021826    1.187096
     57          1           0        7.867395   -2.691938    0.476524
     58          1           0       -1.046622   -1.801628    1.622811
     59          1           0       -0.605378   -2.320344    3.054025
     60          1           0       -1.541659   -0.434031   -0.414071
     61          1           0       -2.122502    4.988183   -1.581856
     62          1           0       -0.484113    4.268861   -1.472697
     63          1           0        7.610621   -0.764180   -3.240642
     64          1           0       -1.432832    4.603736    1.337432
     65          1           0       -2.851432    5.433443    0.559579
     66          1           0       -4.001136    4.034508   -1.701397
     67          1           0       -5.207858    2.770102   -1.270087
     68          1           0       -4.201002    2.723846   -2.876297
     69          1           0       -5.022012    0.218838   -1.790778
     70          1           0        9.407217   -0.775694   -0.557417
     71          1           0       10.002566   -0.874934   -2.164412
     72          1           0       -3.942108   -3.117127    3.221773
     73          1           0       -6.399400   -1.284757   -1.949778
     74          1           0       -4.153142   -5.486990   -2.127828
     75          1           0       -4.074461   -5.625503   -0.113595
     76          1           0       -5.768306   -5.179887   -0.923718
     77          1           0       -0.858278    8.130991    1.271129
     78          1           0       -7.526431   -2.672740   -3.106002
     79          1           0       -6.366603   -4.139709   -3.033061
 ---------------------------------------------------------------------

 SCF Done:  E(RB3LYP) =  -1947.79208056     A.U. after   17 cycles

 Excitation energies and oscillator strengths:

 Excited State   1:      Singlet-A      2.1533 eV  575.79 nm  f=0.3127  <S**2>=0.000
     153 ->156         0.17552
     155 ->156         0.68234
 This state for optimization and/or second-order correction.
 Total Energy, E(TD-HF/TD-KS) =  -1947.71294891
 Copying the excited state density for this state as the 1-particle RhoCI density.

 The electronic state is 1-A.
 Alpha  occ. eigenvalues --  -19.18711 -19.15573 -19.13216 -19.11366 -19.09793
 Alpha  occ. eigenvalues --  -19.08888 -14.37611 -14.35787 -14.34426 -14.29787
 Alpha  occ. eigenvalues --  -10.31570 -10.28880 -10.27671 -10.26477 -10.24588
 Alpha  occ. eigenvalues --  -10.24331 -10.24096 -10.24048 -10.22927 -10.22820
 Alpha  occ. eigenvalues --  -10.22782 -10.22688 -10.22177 -10.22000 -10.21998
 Alpha  occ. eigenvalues --  -10.21952 -10.21632 -10.21195 -10.21143 -10.20424
 Alpha  occ. eigenvalues --  -10.20240 -10.20192 -10.20139 -10.19954 -10.19884
 Alpha  occ. eigenvalues --  -10.19852 -10.19848 -10.19640 -10.19126 -10.19098
 Alpha  occ. eigenvalues --  -10.18543 -10.16332 -10.14679  -1.12346  -1.09926
 Alpha  occ. eigenvalues --   -1.02686  -1.01436  -1.00277  -0.99766  -0.99406
 Alpha  occ. eigenvalues --   -0.97039  -0.93228  -0.92867  -0.82959  -0.82147
 Alpha  occ. eigenvalues --   -0.82020  -0.81560  -0.80713  -0.79484  -0.78417
 Alpha  occ. eigenvalues --   -0.77771  -0.76583  -0.75457  -0.74806  -0.72790
 Alpha  occ. eigenvalues --   -0.71501  -0.70996  -0.69682  -0.68821  -0.68233
 Alpha  occ. eigenvalues --   -0.67505  -0.65382  -0.64005  -0.61435  -0.60791
 Alpha  occ. eigenvalues --   -0.59543  -0.59195  -0.58677  -0.57434  -0.57080
 Alpha  occ. eigenvalues --   -0.55562  -0.55212  -0.54665  -0.53798  -0.53704
 Alpha  occ. eigenvalues --   -0.52563  -0.51238  -0.50981  -0.50898  -0.50419
 Alpha  occ. eigenvalues --   -0.50131  -0.49074  -0.48772  -0.48641  -0.48300
 Alpha  occ. eigenvalues --   -0.47697  -0.47171  -0.46948  -0.46543  -0.46172
 Alpha  occ. eigenvalues --   -0.45395  -0.44619  -0.44589  -0.44259  -0.44109
 Alpha  occ. eigenvalues --   -0.43652  -0.43114  -0.42832  -0.42640  -0.42531
 Alpha  occ. eigenvalues --   -0.41985  -0.41635  -0.41220  -0.40989  -0.40887
 Alpha  occ. eigenvalues --   -0.40719  -0.40413  -0.40082  -0.39849  -0.39406
 Alpha  occ. eigenvalues --   -0.39171  -0.39089  -0.39011  -0.38538  -0.38034
 Alpha  occ. eigenvalues --   -0.37795  -0.37425  -0.37265  -0.36736  -0.36349
 Alpha  occ. eigenvalues --   -0.36038  -0.35675  -0.35368  -0.34239  -0.33665
 Alpha  occ. eigenvalues --   -0.33448  -0.33169  -0.33058  -0.31796  -0.31491
 Alpha  occ. eigenvalues --   -0.31307  -0.30744  -0.29259  -0.28584  -0.27836
 Alpha  occ. eigenvalues --   -0.27431  -0.26106  -0.25334  -0.25050  -0.24531
 Alpha  occ. eigenvalues --   -0.24281  -0.24007  -0.23367  -0.22814  -0.19811
 Alpha virt. eigenvalues --   -0.10980  -0.06002  -0.05840  -0.01894   0.01144
 Alpha virt. eigenvalues --    0.01265   0.01303   0.02037   0.02263   0.02986
 Alpha virt. eigenvalues --    0.03191   0.04371   0.04742   0.04952   0.05104

 Mulliken charges:
               1
     1  O   -0.229863
     2  O   -0.247997
     3  O   -0.121895
     4  O   -0.235121
     5  O   -0.142777
     6  O   -0.249347
     7  N    0.035734
     8  N   -0.261935
     9  N   -0.194143
    10  N   -0.198678
    11  C    0.137493
    12  C    0.208068
    13  C   -0.105906
    14  C   -0.155427
    15  C   -0.117198
    16  C   -0.037174
    17  C   -0.142112
    18  C    0.182809
    19  C   -0.073128
    20  C   -0.201536
    21  C    0.234534
    22  C    0.163403
    23  C   -0.066306
    24  C    0.087461
    25  C   -0.023227
    26  C   -0.115299
    27  C    0.105614
    28  C    0.117082
    29  C   -0.015319
    30  C    0.070898
    31  C   -0.020465
    32  C    0.158658
    33  C   -0.133511
    34  C    0.107624
    35  C    0.036135
    36  C   -0.051354
    37  C    0.078882
    38  C    0.068007
    39  C   -0.201488
    40  C    0.136553
    41  C   -0.080750
    42  C   -0.028378
    43  C    0.098043
    44  H    0.020106
    45  H   -0.001557
    46  H   -0.025865
    47  H    0.038790
    48  H    0.140237
    49  H   -0.032352
    50  H   -0.034047
    51  H    0.059706
    52  H   -0.011803
    53  H    0.049442
    54  H    0.017084
    55  H    0.033784
    56  H    0.055321
    57  H    0.046294
    58  H   -0.016619
    59  H   -0.014858
    60  H    0.227898
    61  H    0.016757
    62  H    0.057386
    63  H    0.010792
    64  H    0.056072
    65  H    0.048647
    66  H   -0.024941
    67  H    0.045988
    68  H    0.030012
    69  H    0.004798
    70  H    0.021932
    71  H    0.013387
    72  H    0.198782
    73  H   -0.003428
    74  H    0.073627
    75  H    0.061593
    76  H    0.042333
    77  H    0.222667
    78  H    0.004730
    79  H   -0.009357
 Sum of Mulliken charges =   0.00000

 Dipole moment (field-independent basis, Debye):
    X=             -0.6492    Y=              3.7672    Z=              2.9371  Tot=              4.8207
 Quadrupole moment (field-independent basis, Debye-Ang):
   XX=           -213.9802   YY=           -238.5033   ZZ=           -266.8227
   XY=             -6.1364   XZ=             34.4268   YZ=              4.0104

 Normal termination of Gaussian 09 at Sun Jul  7 14:51:05 2019.
