 Gaussian 09, Revision D.01,
 Gaussian 09:  ES64L-G09RevD.01 24-Apr-2013

 --------------------------
 # td=(NStates=1) B3LYP/SVP
 --------------------------

 --
 TD
 --
 Symbolic Z-matrix:
 Charge =  0 Multiplicity = 1

                         Standard orientation:
 ---------------------------------------------------------------------
 Center     Atomic      Atomic             Coordinates (Angstroms)
 Number     Number       Type             X           Y           Z
 ---------------------------------------------------------------------
      1          8           0        5.138661   -0.524930   -3.376554
      2          8           0       -2.779348   -3.155019    3.345526
      3          8           0       -3.065970   -0.922869    3.499082
      4          8           0       -1.790776    7.321692    1.306656
      5          8           0        0.103008    6.704790   -0.157320
      6          8           0       -2.096225   -3.963360    0.011586
      7          7           0        2.470335    1.077020    0.537629
      8          7           0        4.302204   -0.868528   -1.267477
      9          7           0       -1.769117    0.725754   -0.460873
     10          7           0       -2.802704   -1.856642   -0.407444
     11          6           0        4.900880   -1.222558    0.117205
     12          6           0        4.509525   -0.157449    1.228387
     13          6           0        3.046831    0.025531    1.339523
     14          6           0        2.091888   -0.581214    2.018910
     15          6           0        0.819234   -0.042171    1.681458
     16          6           0        1.093488    0.975356    0.747734
     17          6           0        6.331800   -1.330900   -0.171386
     18          6           0       -0.425032   -0.242350    2.515213
     19          6           0        6.640899   -1.030859   -1.545692
     20          6           0        0.255214    1.979383    0.073725
     21          6           0       -1.017091    1.853361   -0.355818
     22          6           0        5.271769   -0.813763   -2.167352
     23          6           0       -1.807961    2.904984   -0.821127
     24          6           0        2.395475   -1.449115    3.243918
     25          6           0        7.262742   -1.751142    0.997629
     26          6           0       -3.025331    2.364218   -1.287807
     27          6           0       -0.973288   -1.703488    2.558649
     28          6           0       -2.989955    0.871828   -1.163032
     29          6           0       -1.431946    4.320904   -0.946587
     30          6           0        7.939473   -0.918213   -2.254057
     31          6           0       -1.976062    5.130872    0.272389
     32          6           0       -4.316135    2.980396   -1.880385
     33          6           0       -4.067510    0.033490   -1.432005
     34          6           0       -2.342912   -1.778070    3.090176
     35          6           0       -3.913651   -1.380584   -1.093420
     36          6           0        9.124691   -0.999066   -1.739109
     37          6           0       -1.096001    6.434530    0.426121
     38          6           0       -4.930629   -2.402316   -1.377454
     39          6           0       -4.291562   -3.618524   -0.995670
     40          6           0       -2.921577   -3.239503   -0.453839
     41          6           0       -6.186134   -2.172765   -1.972239
     42          6           0       -4.694757   -5.073690   -1.093965
     43          6           0       -6.952410   -3.110900   -2.549010
     44          1           0        4.333759   -2.145807    0.493809
     45          1           0        4.926616    0.880603    0.766665
     46          1           0        5.124838   -0.374259    2.254403
     47          1           0        2.861858    1.508842   -0.273710
     48          1           0        3.389432   -0.966794   -1.529319
     49          1           0       -0.311524    0.125848    3.510042
     50          1           0       -1.290042    0.396597    2.144842
     51          1           0        0.612090    2.992611   -0.006411
     52          1           0        3.354057   -1.478078    3.446211
     53          1           0        1.674500   -1.342987    4.071251
     54          1           0        2.108840   -2.502443    3.202176
     55          1           0        6.501745   -2.203851    1.848656
     56          1           0        8.075747   -1.020078    1.330421
     57          1           0        8.016128   -2.649372    0.455846
     58          1           0       -1.024432   -2.288040    1.523709
     59          1           0       -0.406076   -2.147335    3.246062
     60          1           0       -1.523965   -0.093004   -0.174749
     61          1           0       -1.616017    4.736716   -1.901374
     62          1           0       -0.332148    4.415260   -0.959090
     63          1           0        7.621128   -0.828495   -3.292986
     64          1           0       -1.913693    4.453838    1.227698
     65          1           0       -3.221266    5.515953    0.027289
     66          1           0       -4.115990    4.047474   -2.321961
     67          1           0       -4.967292    3.065282   -0.979240
     68          1           0       -4.820746    2.509331   -2.634375
     69          1           0       -5.026133    0.223937   -1.676241
     70          1           0        9.352889   -1.242515   -0.580627
     71          1           0        9.940103   -0.988184   -2.475091
     72          1           0       -3.577558   -2.842702    3.616711
     73          1           0       -6.456159   -1.218476   -1.926519
     74          1           0       -4.876360   -5.330777   -2.334321
     75          1           0       -3.985901   -5.741662   -0.696851
     76          1           0       -5.801738   -5.077002   -0.755436
     77          1           0       -1.376591    8.233554    1.075931
     78          1           0       -7.828956   -2.807384   -2.924042
     79          1           0       -6.844751   -4.179534   -2.710519
 ---------------------------------------------------------------------

 SCF Done:  E(RB3LYP) =  -1947.77624139     A.U. after   17 cycles

 Excitation energies and oscillator strengths:

 Excited State   1:      Singlet-A      2.0424 eV  607.05 nm  f=0.2329  <S**2>=0.000
     154 ->156         0.35125
     155 ->156         0.60484
 This state for optimization and/or second-order correction.
 Total Energy, E(TD-HF/TD-KS) =  -1947.70118386
 Copying the excited state density for this state as the 1-particle RhoCI density.

 The electronic state is 1-A.
 Alpha  occ. eigenvalues --  -19.20660 -19.15452 -19.14037 -19.12981 -19.10663
 Alpha  occ. eigenvalues --  -19.08521 -14.37923 -14.36323 -14.35598 -14.28681
 Alpha  occ. eigenvalues --  -10.35732 -10.30927 -10.27890 -10.26374 -10.26090
 Alpha  occ. eigenvalues --  -10.25944 -10.25710 -10.24518 -10.24072 -10.23955
 Alpha  occ. eigenvalues --  -10.23952 -10.23760 -10.23007 -10.22770 -10.21688
 Alpha  occ. eigenvalues --  -10.21681 -10.21126 -10.21096 -10.20983 -10.20958
 Alpha  occ. eigenvalues --  -10.20930 -10.20796 -10.20315 -10.20127 -10.19946
 Alpha  occ. eigenvalues --  -10.19899 -10.19878 -10.19800 -10.19768 -10.19265
 Alpha  occ. eigenvalues --  -10.19249 -10.19067 -10.19036  -1.08258  -1.06389
 Alpha  occ. eigenvalues --   -1.02969  -1.00850  -0.99065  -0.98993  -0.97494
 Alpha  occ. eigenvalues --   -0.96694  -0.92931  -0.90848  -0.83574  -0.82308
 Alpha  occ. eigenvalues --   -0.81993  -0.81641  -0.81177  -0.79917  -0.78110
 Alpha  occ. eigenvalues --   -0.77589  -0.76893  -0.75839  -0.74824  -0.73093
 Alpha  occ. eigenvalues --   -0.72180  -0.70748  -0.70296  -0.69456  -0.68679
 Alpha  occ. eigenvalues --   -0.67389  -0.65837  -0.63419  -0.62042  -0.61531
 Alpha  occ. eigenvalues --   -0.59935  -0.58986  -0.58178  -0.57516  -0.57163
 Alpha  occ. eigenvalues --   -0.56949  -0.55962  -0.54587  -0.54224  -0.53511
 Alpha  occ. eigenvalues --   -0.52774  -0.51609  -0.50719  -0.50082  -0.49772
 Alpha  occ. eigenvalues --   -0.49091  -0.48840  -0.48609  -0.47991  -0.47351
 Alpha  occ. eigenvalues --   -0.47312  -0.47025  -0.46752  -0.46174  -0.45779
 Alpha  occ. eigenvalues --   -0.45581  -0.45453  -0.45248  -0.44403  -0.43756
 Alpha  occ. eigenvalues --   -0.43593  -0.43309  -0.43090  -0.42727  -0.42539
 Alpha  occ. eigenvalues --   -0.42366  -0.42123  -0.41596  -0.41519  -0.41194
 Alpha  occ. eigenvalues --   -0.41099  -0.40671  -0.40359  -0.40106  -0.39859
 Alpha  occ. eigenvalues --   -0.39502  -0.38671  -0.38476  -0.38272  -0.38200
 Alpha  occ. eigenvalues --   -0.38088  -0.37857  -0.37778  -0.37764  -0.37324
 Alpha  occ. eigenvalues --   -0.36446  -0.36285  -0.35776  -0.35555  -0.34823
 Alpha  occ. eigenvalues --   -0.34278  -0.33969  -0.33705  -0.32332  -0.31964
 Alpha  occ. eigenvalues --   -0.31685  -0.30411  -0.29364  -0.28894  -0.27843
 Alpha  occ. eigenvalues --   -0.27596  -0.26409  -0.25822  -0.25563  -0.24690
 Alpha  occ. eigenvalues --   -0.24168  -0.24153  -0.23622  -0.21752  -0.19842
 Alpha virt. eigenvalues --   -0.11456  -0.07163  -0.06482  -0.06001  -0.01519
 Alpha virt. eigenvalues --    0.00619   0.00788   0.01238   0.01772   0.02639
 Alpha virt. eigenvalues --    0.03050   0.04025   0.04325   0.04720   0.05011

 Mulliken charges:
               1
     1  O   -0.277531
     2  O   -0.215480
     3  O   -0.213255
     4  O   -0.242373
     5  O   -0.321846
     6  O   -0.164364
     7  N   -0.122582
     8  N   -0.133412
     9  N    0.008809
    10  N   -0.293679
    11  C    0.068356
    12  C    0.047813
    13  C   -0.021267
    14  C   -0.121131
    15  C   -0.049024
    16  C    0.067397
    17  C   -0.120405
    18  C    0.027531
    19  C   -0.084241
    20  C   -0.102279
    21  C    0.104579
    22  C    0.121818
    23  C   -0.106490
    24  C    0.191391
    25  C   -0.060026
    26  C   -0.168071
    27  C    0.070112
    28  C    0.214637
    29  C    0.119905
    30  C    0.051980
    31  C   -0.091653
    32  C    0.109926
    33  C   -0.066174
    34  C    0.124979
    35  C    0.029203
    36  C   -0.046884
    37  C    0.244071
    38  C    0.055037
    39  C   -0.199296
    40  C    0.137952
    41  C    0.031697
    42  C    0.045554
    43  C    0.028856
    44  H    0.040434
    45  H    0.017451
    46  H    0.054485
    47  H    0.120070
    48  H    0.104836
    49  H    0.008089
    50  H    0.017219
    51  H   -0.008993
    52  H   -0.046483
    53  H    0.004792
    54  H   -0.002030
    55  H    0.057401
    56  H    0.071927
    57  H    0.067903
    58  H    0.111621
    59  H   -0.020664
    60  H    0.047009
    61  H    0.009172
    62  H    0.015859
    63  H    0.008773
    64  H    0.091326
    65  H    0.086393
    66  H    0.023329
    67  H    0.037673
    68  H    0.011429
    69  H   -0.067532
    70  H    0.040429
    71  H    0.032850
    72  H    0.112587
    73  H   -0.071953
    74  H    0.047815
    75  H    0.034912
    76  H    0.047711
    77  H    0.216863
    78  H   -0.016848
    79  H    0.014001
 Sum of Mulliken charges =   0.00000

 Dipole moment (field-independent basis, Debye):
    X=             -1.1077    Y=              3.4258    Z=              1.9777  Tot=              4.1078
 Quadrupole moment (field-independent basis, Debye-Ang):
   XX=           -216.4494   YY=           -243.5878   ZZ=           -267.8077
   XY=            -17.9845   XZ=             40.6642   YZ=              0.4248

 Normal termination of Gaussian 09 at Tue Jul  9 04:34:49 2019.
