 Gaussian 09, Revision D.01,
 Gaussian 09:  ES64L-G09RevD.01 24-Apr-2013

 --------------------------
 # td=(NStates=1) B3LYP/SVP
 --------------------------

 --
 TD
 --
 Symbolic Z-matrix:
 Charge =  0 Multiplicity = 1

                         Standard orientation:
 ---------------------------------------------------------------------
 Center     Atomic      Atomic             Coordinates (Angstroms)
 Number     Number       Type             X           Y           Z
 ---------------------------------------------------------------------
      1          8           0        5.509666   -0.412509   -3.298751
      2          8           0       -2.746228   -2.973558    3.163048
      3          8           0       -3.204817   -0.823232    3.163104
      4          8           0       -1.468096    7.067567    1.472393
      5          8           0       -0.639263    7.030001   -0.660715
      6          8           0       -2.003301   -4.050270   -0.047157
      7          7           0        2.314574    0.939550    0.454681
      8          7           0        4.596624   -0.700301   -1.204236
      9          7           0       -1.974427    0.637803   -0.347009
     10          7           0       -2.743275   -1.879888   -0.489708
     11          6           0        4.944777   -1.243390   -0.009683
     12          6           0        4.551575   -0.122341    1.186640
     13          6           0        2.942903    0.055770    1.250901
     14          6           0        2.073984   -0.476772    2.079041
     15          6           0        0.775270    0.061131    1.751078
     16          6           0        0.922196    0.937437    0.713770
     17          6           0        6.478029   -1.294947   -0.072315
     18          6           0       -0.584352   -0.164399    2.418509
     19          6           0        6.899665   -0.984742   -1.415646
     20          6           0        0.103728    1.924366    0.138282
     21          6           0       -1.264344    1.779337   -0.339156
     22          6           0        5.583460   -0.597095   -2.117599
     23          6           0       -2.086243    2.887429   -0.837814
     24          6           0        2.274956   -1.465508    3.160267
     25          6           0        7.271977   -1.765738    1.012761
     26          6           0       -3.299724    2.341907   -1.212516
     27          6           0       -0.948777   -1.661749    2.392522
     28          6           0       -3.250321    0.862913   -0.859226
     29          6           0       -1.592689    4.297242   -1.008920
     30          6           0        8.148121   -0.857834   -2.091149
     31          6           0       -1.867879    5.153668    0.332645
     32          6           0       -4.438470    3.139945   -1.872398
     33          6           0       -4.173651   -0.100273   -1.163816
     34          6           0       -2.419505   -1.756530    2.902499
     35          6           0       -3.871371   -1.433708   -0.918019
     36          6           0        9.375853   -0.744441   -1.437080
     37          6           0       -1.252242    6.516550    0.279386
     38          6           0       -4.826095   -2.520268   -1.322604
     39          6           0       -4.204585   -3.778473   -1.064582
     40          6           0       -2.811968   -3.244290   -0.462355
     41          6           0       -6.172705   -2.380766   -1.930942
     42          6           0       -4.445690   -5.232819   -1.121242
     43          6           0       -6.856167   -3.387184   -2.449498
     44          1           0        4.649618   -2.217189    0.306042
     45          1           0        5.136096    0.791586    0.927053
     46          1           0        5.148356   -0.538026    2.167514
     47          1           0        2.725928    1.391761   -0.460595
     48          1           0        3.577887   -0.875676   -1.713980
     49          1           0       -0.372594    0.231733    3.427400
     50          1           0       -1.250715    0.565067    2.043564
     51          1           0        0.620104    2.911267   -0.006197
     52          1           0        3.374082   -1.647309    3.202422
     53          1           0        1.673416   -1.159522    3.988957
     54          1           0        1.894561   -2.558588    2.953587
     55          1           0        6.883948   -2.666667    1.513833
     56          1           0        7.436681   -1.132886    1.907419
     57          1           0        8.228585   -2.077809    0.755565
     58          1           0       -1.124621   -2.019890    1.431267
     59          1           0       -0.436153   -2.442465    3.117611
     60          1           0       -1.506384   -0.243794   -0.274241
     61          1           0       -2.130390    4.823193   -1.712185
     62          1           0       -0.617238    4.360797   -1.054697
     63          1           0        7.955402   -0.918093   -3.309826
     64          1           0       -1.426886    4.667407    1.185317
     65          1           0       -3.024752    5.351983    0.264475
     66          1           0       -4.130564    4.224735   -1.965061
     67          1           0       -5.321932    3.131755   -1.370575
     68          1           0       -4.594499    2.512041   -2.705270
     69          1           0       -5.287124    0.113603   -1.263059
     70          1           0        9.216826   -0.450747   -0.329808
     71          1           0       10.239214   -1.047334   -2.263551
     72          1           0       -3.559979   -2.886277    3.697281
     73          1           0       -6.570232   -1.373288   -1.607879
     74          1           0       -4.404151   -5.581114   -2.218030
     75          1           0       -3.672248   -5.929035   -0.533675
     76          1           0       -5.343791   -5.490630   -0.538974
     77          1           0       -0.720614    7.804630    1.562935
     78          1           0       -7.842231   -3.298831   -3.007723
     79          1           0       -6.240083   -4.477102   -2.818827
 ---------------------------------------------------------------------

 SCF Done:  E(RB3LYP) =  -1947.81702960     A.U. after   16 cycles

 Excitation energies and oscillator strengths:

 Excited State   1:      Singlet-A      2.2293 eV  556.16 nm  f=0.4965  <S**2>=0.000
     154 ->156         0.12158
     155 ->156         0.68446
     155 <-156        -0.10944
 This state for optimization and/or second-order correction.
 Total Energy, E(TD-HF/TD-KS) =  -1947.73510465
 Copying the excited state density for this state as the 1-particle RhoCI density.

 The electronic state is 1-A.
 Alpha  occ. eigenvalues --  -19.20044 -19.17793 -19.13664 -19.10383 -19.10294
 Alpha  occ. eigenvalues --  -19.10231 -14.37726 -14.37397 -14.36776 -14.29264
 Alpha  occ. eigenvalues --  -10.32840 -10.30204 -10.28230 -10.26421 -10.25900
 Alpha  occ. eigenvalues --  -10.25094 -10.24764 -10.23808 -10.23315 -10.22921
 Alpha  occ. eigenvalues --  -10.22594 -10.22360 -10.22000 -10.21799 -10.21775
 Alpha  occ. eigenvalues --  -10.21701 -10.21255 -10.21166 -10.20698 -10.20506
 Alpha  occ. eigenvalues --  -10.20412 -10.20157 -10.20125 -10.20084 -10.20054
 Alpha  occ. eigenvalues --  -10.19998 -10.19754 -10.19712 -10.19480 -10.19223
 Alpha  occ. eigenvalues --  -10.18955 -10.18484 -10.17698  -1.10753  -1.10236
 Alpha  occ. eigenvalues --   -1.03994  -1.01595  -1.00661  -0.99152  -0.98156
 Alpha  occ. eigenvalues --   -0.97231  -0.96236  -0.93523  -0.82991  -0.81909
 Alpha  occ. eigenvalues --   -0.81441  -0.80738  -0.79749  -0.79022  -0.78069
 Alpha  occ. eigenvalues --   -0.77322  -0.76192  -0.74463  -0.73924  -0.73052
 Alpha  occ. eigenvalues --   -0.71346  -0.70720  -0.69894  -0.69343  -0.68458
 Alpha  occ. eigenvalues --   -0.67356  -0.66053  -0.63484  -0.60738  -0.60334
 Alpha  occ. eigenvalues --   -0.59454  -0.58872  -0.58296  -0.58015  -0.56517
 Alpha  occ. eigenvalues --   -0.56253  -0.55455  -0.54897  -0.54659  -0.53033
 Alpha  occ. eigenvalues --   -0.52263  -0.51684  -0.50887  -0.50261  -0.49684
 Alpha  occ. eigenvalues --   -0.49276  -0.49013  -0.47786  -0.47621  -0.47401
 Alpha  occ. eigenvalues --   -0.46981  -0.46827  -0.46387  -0.46302  -0.45490
 Alpha  occ. eigenvalues --   -0.44697  -0.44607  -0.44433  -0.44326  -0.44139
 Alpha  occ. eigenvalues --   -0.43788  -0.43560  -0.43162  -0.42680  -0.42361
 Alpha  occ. eigenvalues --   -0.42239  -0.41901  -0.41583  -0.41335  -0.41314
 Alpha  occ. eigenvalues --   -0.41172  -0.40588  -0.40113  -0.39903  -0.39709
 Alpha  occ. eigenvalues --   -0.39426  -0.39174  -0.38871  -0.38464  -0.38399
 Alpha  occ. eigenvalues --   -0.38202  -0.37704  -0.37197  -0.37044  -0.36878
 Alpha  occ. eigenvalues --   -0.36737  -0.36637  -0.35805  -0.34604  -0.34246
 Alpha  occ. eigenvalues --   -0.33631  -0.33475  -0.33218  -0.31707  -0.30898
 Alpha  occ. eigenvalues --   -0.30879  -0.30228  -0.28898  -0.28815  -0.27791
 Alpha  occ. eigenvalues --   -0.27084  -0.26220  -0.25912  -0.25466  -0.24755
 Alpha  occ. eigenvalues --   -0.23797  -0.23309  -0.22773  -0.22168  -0.19243
 Alpha virt. eigenvalues --   -0.10683  -0.06842  -0.05854  -0.01441  -0.00565
 Alpha virt. eigenvalues --    0.00367   0.01568   0.01938   0.02065   0.02291
 Alpha virt. eigenvalues --    0.03192   0.03496   0.04063   0.04509   0.04898

 Mulliken charges:
               1
     1  O   -0.205647
     2  O   -0.117059
     3  O   -0.291547
     4  O   -0.206902
     5  O   -0.245105
     6  O   -0.198427
     7  N   -0.128091
     8  N   -0.162572
     9  N   -0.031030
    10  N   -0.218876
    11  C    0.076008
    12  C    0.063289
    13  C   -0.033379
    14  C   -0.126180
    15  C   -0.127468
    16  C    0.068626
    17  C   -0.163511
    18  C    0.151452
    19  C   -0.061482
    20  C   -0.134190
    21  C    0.029914
    22  C    0.104371
    23  C   -0.099149
    24  C    0.097721
    25  C    0.105876
    26  C   -0.175639
    27  C    0.040076
    28  C    0.168053
    29  C    0.262474
    30  C   -0.081418
    31  C   -0.063226
    32  C    0.174053
    33  C   -0.163566
    34  C    0.086063
    35  C    0.079006
    36  C   -0.077952
    37  C    0.138372
    38  C   -0.065304
    39  C   -0.166488
    40  C    0.118448
    41  C    0.047368
    42  C    0.021009
    43  C   -0.106594
    44  H    0.019295
    45  H    0.005539
    46  H    0.035544
    47  H    0.151398
    48  H    0.174791
    49  H    0.000256
    50  H   -0.001122
    51  H    0.009369
    52  H   -0.004057
    53  H    0.012860
    54  H    0.032289
    55  H    0.004931
    56  H    0.029953
    57  H   -0.005612
    58  H    0.029254
    59  H    0.060565
    60  H    0.147773
    61  H   -0.013143
    62  H   -0.052265
    63  H    0.059001
    64  H    0.044667
    65  H    0.063558
    66  H    0.025449
    67  H   -0.003652
    68  H    0.020734
    69  H    0.012400
    70  H    0.060619
    71  H    0.077328
    72  H    0.173719
    73  H    0.002834
    74  H    0.056450
    75  H    0.043838
    76  H    0.035768
    77  H    0.218898
    78  H    0.039007
    79  H    0.050385
 Sum of Mulliken charges =   0.00000

 Dipole moment (field-independent basis, Debye):
    X=              0.6759    Y=              2.0007    Z=              3.5121  Tot=              4.0981
 Quadrupole moment (field-independent basis, Debye-Ang):
   XX=           -231.5600   YY=           -247.4139   ZZ=           -261.9409
   XY=             -9.4245   XZ=             29.9203   YZ=              4.8240

 Normal termination of Gaussian 09 at Mon Jul  8 06:01:53 2019.
