 Gaussian 09, Revision D.01,
 Gaussian 09:  ES64L-G09RevD.01 24-Apr-2013

 --------------------------
 # td=(NStates=1) B3LYP/SVP
 --------------------------

 --
 TD
 --
 Symbolic Z-matrix:
 Charge =  0 Multiplicity = 1

                         Standard orientation:
 ---------------------------------------------------------------------
 Center     Atomic      Atomic             Coordinates (Angstroms)
 Number     Number       Type             X           Y           Z
 ---------------------------------------------------------------------
      1          8           0        5.418859   -0.126961   -3.319172
      2          8           0       -2.876583   -3.001517    3.490330
      3          8           0       -3.137592   -0.740936    3.200271
      4          8           0       -1.795006    7.089202    1.479774
      5          8           0       -1.216843    7.131779   -0.691041
      6          8           0       -1.763723   -4.014278   -0.088727
      7          7           0        2.349177    0.913701    0.506556
      8          7           0        4.435884   -0.666996   -1.288407
      9          7           0       -1.878879    0.564353   -0.383926
     10          7           0       -2.573460   -1.806927   -0.527793
     11          6           0        4.919901   -1.140159   -0.018663
     12          6           0        4.490200   -0.254631    1.176837
     13          6           0        3.003796   -0.000557    1.278239
     14          6           0        2.041329   -0.683168    2.085819
     15          6           0        0.757857   -0.075770    1.765989
     16          6           0        1.058154    0.888537    0.813151
     17          6           0        6.381624   -1.140513   -0.135368
     18          6           0       -0.496438   -0.297502    2.603374
     19          6           0        6.777076   -0.770034   -1.434748
     20          6           0        0.128483    1.894573    0.209047
     21          6           0       -1.157337    1.723096   -0.321813
     22          6           0        5.487677   -0.464277   -2.185343
     23          6           0       -1.999857    2.881826   -0.794764
     24          6           0        2.237577   -1.694111    3.229681
     25          6           0        7.239046   -1.803580    0.932945
     26          6           0       -3.153299    2.241597   -1.234221
     27          6           0       -1.049833   -1.751330    2.539630
     28          6           0       -3.092428    0.897995   -1.061137
     29          6           0       -1.630649    4.346209   -0.827860
     30          6           0        7.990266   -0.574186   -2.081094
     31          6           0       -1.884434    4.994469    0.605642
     32          6           0       -4.369005    2.807523   -1.897326
     33          6           0       -3.985244   -0.168820   -1.300424
     34          6           0       -2.382147   -1.749596    3.049030
     35          6           0       -3.702559   -1.458696   -1.159076
     36          6           0        9.271913   -0.390122   -1.473993
     37          6           0       -1.592938    6.542176    0.304999
     38          6           0       -4.545817   -2.646757   -1.502870
     39          6           0       -3.994874   -3.689181   -1.051021
     40          6           0       -2.601724   -3.239004   -0.552671
     41          6           0       -5.941901   -2.489018   -1.922547
     42          6           0       -4.358870   -5.240709   -1.260672
     43          6           0       -6.748832   -3.326603   -2.675449
     44          1           0        4.421309   -2.310488    0.077318
     45          1           0        5.058772    0.682117    1.006296
     46          1           0        4.809241   -0.617590    2.153486
     47          1           0        2.697757    1.389446   -0.358373
     48          1           0        3.523600   -0.782603   -1.723370
     49          1           0       -0.401197    0.270337    3.341312
     50          1           0       -1.423261    0.356936    2.359283
     51          1           0        0.466155    2.869807   -0.029091
     52          1           0        3.251260   -1.858503    3.479990
     53          1           0        1.832604   -1.227676    4.178257
     54          1           0        1.805033   -2.656159    2.985678
     55          1           0        6.511357   -2.577419    1.339175
     56          1           0        7.577847   -1.165182    1.840657
     57          1           0        8.109854   -2.229796    0.506296
     58          1           0       -0.939236   -2.193476    1.405320
     59          1           0       -0.147145   -2.338350    3.004115
     60          1           0       -1.555125   -0.311846   -0.244591
     61          1           0       -1.992065    4.838561   -1.727613
     62          1           0       -0.497893    4.403474   -0.988458
     63          1           0        7.926450   -0.753887   -3.139264
     64          1           0       -1.162837    4.581651    1.399983
     65          1           0       -2.915870    4.783289    1.001649
     66          1           0       -4.303698    3.750619   -2.167036
     67          1           0       -5.270621    2.668836   -1.190138
     68          1           0       -4.308080    2.292363   -2.750124
     69          1           0       -5.013749    0.137763   -1.870692
     70          1           0        9.332409   -0.193997   -0.280593
     71          1           0       10.288188   -0.311026   -1.980822
     72          1           0       -3.771018   -2.956684    3.487452
     73          1           0       -6.636889   -1.449165   -1.574870
     74          1           0       -4.365891   -5.436431   -2.361960
     75          1           0       -3.813666   -5.816277   -0.437619
     76          1           0       -5.492820   -5.455709   -1.095433
     77          1           0       -1.333702    8.076013    1.430249
     78          1           0       -7.795590   -2.950747   -2.945302
     79          1           0       -6.413725   -4.253501   -3.067609
 ---------------------------------------------------------------------

 SCF Done:  E(RB3LYP) =  -1947.80735962     A.U. after   17 cycles

 Excitation energies and oscillator strengths:

 Excited State   1:      Singlet-A      2.1962 eV  564.55 nm  f=0.4793  <S**2>=0.000
     155 ->156         0.70153
     155 <-156        -0.11617
 This state for optimization and/or second-order correction.
 Total Energy, E(TD-HF/TD-KS) =  -1947.72665237
 Copying the excited state density for this state as the 1-particle RhoCI density.

 The electronic state is 1-A.
 Alpha  occ. eigenvalues --  -19.20508 -19.15226 -19.14605 -19.11708 -19.10654
 Alpha  occ. eigenvalues --  -19.10261 -14.38819 -14.35550 -14.35277 -14.28740
 Alpha  occ. eigenvalues --  -10.33648 -10.31585 -10.28487 -10.26493 -10.26219
 Alpha  occ. eigenvalues --  -10.24233 -10.24218 -10.23492 -10.23071 -10.22608
 Alpha  occ. eigenvalues --  -10.22566 -10.22387 -10.22157 -10.22074 -10.22059
 Alpha  occ. eigenvalues --  -10.21855 -10.21845 -10.21711 -10.21500 -10.20942
 Alpha  occ. eigenvalues --  -10.20600 -10.20491 -10.20427 -10.20143 -10.19757
 Alpha  occ. eigenvalues --  -10.19693 -10.19522 -10.19087 -10.19039 -10.18938
 Alpha  occ. eigenvalues --  -10.18927 -10.18418 -10.17559  -1.11188  -1.06229
 Alpha  occ. eigenvalues --   -1.04474  -1.01756  -1.00294  -0.99819  -0.97837
 Alpha  occ. eigenvalues --   -0.97230  -0.94804  -0.91987  -0.83142  -0.82282
 Alpha  occ. eigenvalues --   -0.81513  -0.80967  -0.80228  -0.79721  -0.77445
 Alpha  occ. eigenvalues --   -0.76925  -0.76300  -0.74861  -0.73176  -0.72898
 Alpha  occ. eigenvalues --   -0.71639  -0.70720  -0.69809  -0.68697  -0.68561
 Alpha  occ. eigenvalues --   -0.67890  -0.65789  -0.63900  -0.61463  -0.60185
 Alpha  occ. eigenvalues --   -0.59908  -0.58664  -0.57957  -0.57456  -0.57321
 Alpha  occ. eigenvalues --   -0.56540  -0.56293  -0.55376  -0.54463  -0.53011
 Alpha  occ. eigenvalues --   -0.52191  -0.51164  -0.50681  -0.50550  -0.50156
 Alpha  occ. eigenvalues --   -0.49992  -0.49280  -0.48404  -0.47701  -0.47359
 Alpha  occ. eigenvalues --   -0.46750  -0.46418  -0.46180  -0.45934  -0.45250
 Alpha  occ. eigenvalues --   -0.45131  -0.44314  -0.43603  -0.43563  -0.43375
 Alpha  occ. eigenvalues --   -0.43281  -0.43080  -0.42700  -0.42562  -0.42503
 Alpha  occ. eigenvalues --   -0.42395  -0.42164  -0.41560  -0.41450  -0.41345
 Alpha  occ. eigenvalues --   -0.41153  -0.41062  -0.40578  -0.40272  -0.39909
 Alpha  occ. eigenvalues --   -0.39558  -0.39146  -0.38882  -0.38335  -0.38041
 Alpha  occ. eigenvalues --   -0.37538  -0.37483  -0.37125  -0.36789  -0.36323
 Alpha  occ. eigenvalues --   -0.35825  -0.35535  -0.35245  -0.34952  -0.34666
 Alpha  occ. eigenvalues --   -0.34485  -0.33699  -0.33420  -0.31449  -0.30611
 Alpha  occ. eigenvalues --   -0.30393  -0.30161  -0.29380  -0.28354  -0.27693
 Alpha  occ. eigenvalues --   -0.26767  -0.26402  -0.26158  -0.25764  -0.24769
 Alpha  occ. eigenvalues --   -0.24321  -0.23479  -0.23307  -0.22567  -0.19226
 Alpha virt. eigenvalues --   -0.10739  -0.07356  -0.05122  -0.01558  -0.01432
 Alpha virt. eigenvalues --   -0.00267   0.00195   0.01100   0.01825   0.03183
 Alpha virt. eigenvalues --    0.03483   0.03629   0.04202   0.04700   0.04795

 Mulliken charges:
               1
     1  O   -0.180209
     2  O   -0.184423
     3  O   -0.278362
     4  O   -0.199685
     5  O   -0.226670
     6  O   -0.224682
     7  N   -0.016982
     8  N   -0.214280
     9  N   -0.013932
    10  N   -0.317848
    11  C    0.034975
    12  C    0.223149
    13  C   -0.113528
    14  C   -0.163066
    15  C   -0.078729
    16  C    0.016789
    17  C   -0.158081
    18  C    0.108419
    19  C   -0.029827
    20  C   -0.063420
    21  C    0.054964
    22  C    0.113440
    23  C   -0.082121
    24  C    0.119089
    25  C    0.071880
    26  C   -0.171664
    27  C   -0.053730
    28  C    0.115756
    29  C    0.074073
    30  C   -0.016450
    31  C   -0.068383
    32  C    0.239172
    33  C   -0.164991
    34  C    0.215854
    35  C    0.107369
    36  C   -0.096526
    37  C    0.164195
    38  C    0.107578
    39  C   -0.198587
    40  C    0.164323
    41  C   -0.105957
    42  C    0.039227
    43  C   -0.044311
    44  H    0.047565
    45  H   -0.014261
    46  H   -0.000328
    47  H    0.137878
    48  H    0.132863
    49  H   -0.068263
    50  H    0.016128
    51  H   -0.050058
    52  H   -0.026645
    53  H    0.035581
    54  H    0.046811
    55  H    0.028584
    56  H    0.045093
    57  H    0.024802
    58  H    0.125871
    59  H    0.042782
    60  H    0.096666
    61  H    0.033947
    62  H    0.020610
    63  H    0.013762
    64  H    0.066956
    65  H    0.064571
    66  H   -0.053233
    67  H    0.047410
    68  H   -0.005431
    69  H    0.008796
    70  H    0.044614
    71  H    0.054789
    72  H    0.140153
    73  H    0.046139
    74  H    0.046661
    75  H    0.061385
    76  H    0.018294
    77  H    0.222233
    78  H    0.038735
    79  H    0.004727
 Sum of Mulliken charges =   0.00000

 Dipole moment (field-independent basis, Debye):
    X=              1.7234    Y=              3.8161    Z=              2.2797  Tot=              4.7675
 Quadrupole moment (field-independent basis, Debye-Ang):
   XX=           -223.5115   YY=           -244.2570   ZZ=           -265.0816
   XY=             -8.4596   XZ=             31.3376   YZ=             11.4442

 Normal termination of Gaussian 09 at Sun Jul  7 23:01:06 2019.
