 Gaussian 09, Revision D.01,
 Gaussian 09:  ES64L-G09RevD.01 24-Apr-2013

 --------------------------
 # td=(NStates=1) B3LYP/SVP
 --------------------------

 --
 TD
 --
 Symbolic Z-matrix:
 Charge =  0 Multiplicity = 1

                         Standard orientation:
 ---------------------------------------------------------------------
 Center     Atomic      Atomic             Coordinates (Angstroms)
 Number     Number       Type             X           Y           Z
 ---------------------------------------------------------------------
      1          8           0        5.428524   -0.132851   -3.343923
      2          8           0       -2.696299   -3.261028    3.537358
      3          8           0       -3.038372   -0.955261    3.563303
      4          8           0       -1.378599    7.166754    1.572695
      5          8           0       -0.262816    6.805690   -0.393797
      6          8           0       -2.304862   -4.067373   -0.272174
      7          7           0        2.386540    0.851795    0.559644
      8          7           0        4.478022   -0.506516   -1.231073
      9          7           0       -1.901306    0.674044   -0.479530
     10          7           0       -2.897636   -1.819127   -0.492056
     11          6           0        4.863132   -1.199844   -0.037288
     12          6           0        4.451066   -0.367255    1.184688
     13          6           0        3.013665   -0.064090    1.440216
     14          6           0        2.105771   -0.646019    2.138586
     15          6           0        0.791708   -0.133922    1.791332
     16          6           0        1.024683    0.862705    0.819812
     17          6           0        6.333969   -1.464444   -0.188567
     18          6           0       -0.487276   -0.400494    2.469716
     19          6           0        6.725635   -0.960839   -1.472114
     20          6           0        0.190512    1.794918    0.104373
     21          6           0       -1.081248    1.888341   -0.327420
     22          6           0        5.452584   -0.535499   -2.212506
     23          6           0       -1.855762    2.941444   -0.835682
     24          6           0        2.300043   -1.695401    3.135684
     25          6           0        7.199366   -2.042732    0.787632
     26          6           0       -3.107948    2.471593   -1.180851
     27          6           0       -1.077783   -1.841241    2.436433
     28          6           0       -3.106831    0.969512   -0.960799
     29          6           0       -1.319233    4.350276   -0.828779
     30          6           0        8.008152   -0.948137   -2.179448
     31          6           0       -1.688774    5.120563    0.504864
     32          6           0       -4.246497    3.237526   -1.672874
     33          6           0       -4.097165    0.112946   -1.311060
     34          6           0       -2.378379   -1.871093    3.174979
     35          6           0       -3.979407   -1.298964   -1.073523
     36          6           0        9.251428   -0.976312   -1.615322
     37          6           0       -0.936728    6.421516    0.468796
     38          6           0       -4.921987   -2.331743   -1.447838
     39          6           0       -4.364815   -3.495168   -1.174758
     40          6           0       -3.074334   -3.196171   -0.530097
     41          6           0       -6.140563   -2.008639   -2.173214
     42          6           0       -4.811480   -4.975302   -1.413360
     43          6           0       -7.039378   -2.871312   -2.783693
     44          1           0        4.227201   -2.249968    0.107052
     45          1           0        4.882591    0.653128    1.132587
     46          1           0        4.711176   -0.713860    2.239680
     47          1           0        2.914314    1.267434   -0.340520
     48          1           0        3.391691   -0.428787   -1.575185
     49          1           0       -0.523328   -0.150399    3.626234
     50          1           0       -1.209787    0.144118    1.865776
     51          1           0        0.779157    2.687296   -0.087442
     52          1           0        3.426692   -1.650199    3.500945
     53          1           0        1.811351   -1.716009    4.074261
     54          1           0        2.171516   -2.655385    2.858436
     55          1           0        6.664995   -2.977278    1.423447
     56          1           0        7.783360   -1.360223    1.506068
     57          1           0        8.102702   -2.478402    0.038023
     58          1           0       -1.231723   -2.333463    1.304567
     59          1           0       -0.417059   -2.578919    3.079957
     60          1           0       -1.632578   -0.404268   -0.386390
     61          1           0       -1.769332    4.959026   -1.755029
     62          1           0       -0.252692    4.491741   -1.033371
     63          1           0        7.949317   -0.857587   -3.359850
     64          1           0       -1.427029    4.477974    1.568962
     65          1           0       -2.902055    4.976695    0.560543
     66          1           0       -4.086120    4.419931   -1.945629
     67          1           0       -5.069980    3.157638   -0.790941
     68          1           0       -4.664223    2.893876   -2.428201
     69          1           0       -4.940088    0.614585   -1.689600
     70          1           0        9.478549   -0.963115   -0.539770
     71          1           0        9.878607   -0.940949   -2.519885
     72          1           0       -3.662569   -3.073190    3.826847
     73          1           0       -6.455598   -0.822367   -2.254594
     74          1           0       -4.914117   -5.165671   -2.479491
     75          1           0       -3.993633   -5.358565   -0.748174
     76          1           0       -5.795429   -5.253812   -0.708831
     77          1           0       -0.866642    8.119220    1.752796
     78          1           0       -7.924914   -2.699910   -3.256443
     79          1           0       -6.851016   -3.959491   -2.600943
 ---------------------------------------------------------------------

 SCF Done:  E(RB3LYP) =  -1947.79756640     A.U. after   16 cycles

 Excitation energies and oscillator strengths:

 Excited State   1:      Singlet-A      2.2463 eV  551.95 nm  f=0.4393  <S**2>=0.000
     154 ->156         0.11463
     155 ->156         0.69152
 This state for optimization and/or second-order correction.
 Total Energy, E(TD-HF/TD-KS) =  -1947.71501657
 Copying the excited state density for this state as the 1-particle RhoCI density.

 The electronic state is 1-A.
 Alpha  occ. eigenvalues --  -19.18173 -19.15447 -19.14963 -19.13144 -19.11166
 Alpha  occ. eigenvalues --  -19.10905 -14.38031 -14.37129 -14.36582 -14.29510
 Alpha  occ. eigenvalues --  -10.33258 -10.30973 -10.29033 -10.26597 -10.26340
 Alpha  occ. eigenvalues --  -10.24676 -10.24448 -10.23936 -10.23867 -10.23515
 Alpha  occ. eigenvalues --  -10.23439 -10.22952 -10.21965 -10.21861 -10.21809
 Alpha  occ. eigenvalues --  -10.21802 -10.21709 -10.21692 -10.21403 -10.21312
 Alpha  occ. eigenvalues --  -10.21070 -10.21040 -10.20770 -10.20407 -10.19984
 Alpha  occ. eigenvalues --  -10.19685 -10.19426 -10.19378 -10.19274 -10.18897
 Alpha  occ. eigenvalues --  -10.18675 -10.18660 -10.18107  -1.10311  -1.06624
 Alpha  occ. eigenvalues --   -1.03855  -1.03697  -1.00687  -0.97673  -0.97615
 Alpha  occ. eigenvalues --   -0.97264  -0.94901  -0.93668  -0.83325  -0.82086
 Alpha  occ. eigenvalues --   -0.81866  -0.81213  -0.80286  -0.79924  -0.77619
 Alpha  occ. eigenvalues --   -0.77364  -0.76350  -0.75861  -0.74094  -0.73041
 Alpha  occ. eigenvalues --   -0.71787  -0.70678  -0.69914  -0.69429  -0.67425
 Alpha  occ. eigenvalues --   -0.66568  -0.66080  -0.64222  -0.60857  -0.60527
 Alpha  occ. eigenvalues --   -0.59476  -0.58365  -0.56955  -0.56421  -0.55845
 Alpha  occ. eigenvalues --   -0.55582  -0.55340  -0.54148  -0.53494  -0.52956
 Alpha  occ. eigenvalues --   -0.52426  -0.51296  -0.51018  -0.50786  -0.49329
 Alpha  occ. eigenvalues --   -0.48920  -0.48469  -0.48197  -0.47670  -0.47590
 Alpha  occ. eigenvalues --   -0.47198  -0.46750  -0.46430  -0.45987  -0.45813
 Alpha  occ. eigenvalues --   -0.45461  -0.45209  -0.44833  -0.44299  -0.44051
 Alpha  occ. eigenvalues --   -0.43546  -0.43354  -0.43061  -0.42772  -0.42650
 Alpha  occ. eigenvalues --   -0.42209  -0.41849  -0.41402  -0.41251  -0.41178
 Alpha  occ. eigenvalues --   -0.40916  -0.40736  -0.40063  -0.39886  -0.39636
 Alpha  occ. eigenvalues --   -0.39435  -0.39242  -0.38818  -0.38389  -0.38289
 Alpha  occ. eigenvalues --   -0.37953  -0.37749  -0.37532  -0.36970  -0.36594
 Alpha  occ. eigenvalues --   -0.35854  -0.35718  -0.35354  -0.34704  -0.34057
 Alpha  occ. eigenvalues --   -0.33952  -0.32952  -0.32917  -0.32147  -0.31762
 Alpha  occ. eigenvalues --   -0.31225  -0.30543  -0.30314  -0.29106  -0.28467
 Alpha  occ. eigenvalues --   -0.27746  -0.27466  -0.26254  -0.26085  -0.24934
 Alpha  occ. eigenvalues --   -0.24725  -0.24144  -0.23826  -0.22849  -0.19820
 Alpha virt. eigenvalues --   -0.10798  -0.06981  -0.06648  -0.01913  -0.01139
 Alpha virt. eigenvalues --    0.00227   0.00412   0.00930   0.01357   0.02079
 Alpha virt. eigenvalues --    0.02953   0.03033   0.04104   0.04500   0.05318

 Mulliken charges:
               1
     1  O   -0.198398
     2  O   -0.289330
     3  O   -0.199689
     4  O   -0.303497
     5  O   -0.150832
     6  O   -0.179197
     7  N   -0.190787
     8  N   -0.264774
     9  N   -0.160423
    10  N   -0.290508
    11  C    0.121528
    12  C    0.175317
    13  C   -0.114463
    14  C   -0.069126
    15  C   -0.091480
    16  C    0.107821
    17  C   -0.084151
    18  C    0.075186
    19  C   -0.073054
    20  C   -0.096479
    21  C    0.127023
    22  C    0.159759
    23  C   -0.014103
    24  C    0.122552
    25  C   -0.081145
    26  C   -0.136580
    27  C   -0.115736
    28  C    0.107132
    29  C    0.035324
    30  C   -0.089928
    31  C   -0.147021
    32  C    0.116832
    33  C   -0.102046
    34  C    0.169136
    35  C    0.111691
    36  C   -0.012112
    37  C    0.214950
    38  C    0.112913
    39  C   -0.243792
    40  C    0.136067
    41  C   -0.091465
    42  C    0.045079
    43  C   -0.003350
    44  H    0.043406
    45  H   -0.009393
    46  H    0.007067
    47  H    0.162471
    48  H    0.172051
    49  H    0.034569
    50  H    0.002124
    51  H   -0.015958
    52  H   -0.010245
    53  H   -0.002567
    54  H   -0.004952
    55  H    0.054355
    56  H    0.068329
    57  H    0.062016
    58  H    0.119514
    59  H    0.048297
    60  H    0.193568
    61  H    0.033476
    62  H    0.023621
    63  H    0.054059
    64  H    0.078656
    65  H    0.079956
    66  H    0.044052
    67  H    0.044442
    68  H   -0.038388
    69  H   -0.067248
    70  H    0.033787
    71  H    0.038495
    72  H    0.186644
    73  H    0.026599
    74  H    0.056807
    75  H    0.046358
    76  H    0.044452
    77  H    0.230362
    78  H   -0.000380
    79  H    0.014751
 Sum of Mulliken charges =   0.00000

 Dipole moment (field-independent basis, Debye):
    X=              0.9376    Y=              3.7162    Z=              1.8906  Tot=              4.2736
 Quadrupole moment (field-independent basis, Debye-Ang):
   XX=           -223.0140   YY=           -248.0770   ZZ=           -265.1208
   XY=            -13.2874   XZ=             31.4878   YZ=              5.2331

 Normal termination of Gaussian 09 at Mon Jul  8 00:42:39 2019.
