 Gaussian 09, Revision D.01,
 Gaussian 09:  ES64L-G09RevD.01 24-Apr-2013

 --------------------------
 # td=(NStates=1) B3LYP/SVP
 --------------------------

 --
 TD
 --
 Symbolic Z-matrix:
 Charge =  0 Multiplicity = 1

                         Standard orientation:
 ---------------------------------------------------------------------
 Center     Atomic      Atomic             Coordinates (Angstroms)
 Number     Number       Type             X           Y           Z
 ---------------------------------------------------------------------
      1          8           0        5.266818   -0.605247   -3.459384
      2          8           0       -2.884542   -3.210051    3.084714
      3          8           0       -3.033096   -0.970950    3.365508
      4          8           0       -1.492092    7.218406    1.542566
      5          8           0       -0.559950    6.981727   -0.577685
      6          8           0       -1.987266   -3.869074   -0.202449
      7          7           0        2.315862    0.836353    0.537485
      8          7           0        4.441077   -0.850943   -1.247528
      9          7           0       -2.019673    0.667999   -0.316995
     10          7           0       -2.769693   -1.772340   -0.513817
     11          6           0        4.996423   -1.191818    0.048095
     12          6           0        4.506165   -0.110075    1.186481
     13          6           0        2.982990    0.036455    1.333609
     14          6           0        2.061672   -0.630993    2.109272
     15          6           0        0.804570   -0.097452    1.757219
     16          6           0        0.959771    0.771100    0.719226
     17          6           0        6.439138   -1.280875   -0.126254
     18          6           0       -0.546771   -0.344256    2.540042
     19          6           0        6.777844   -0.980666   -1.407481
     20          6           0        0.093375    1.828050    0.122736
     21          6           0       -1.251997    1.742258   -0.165622
     22          6           0        5.409762   -0.699608   -2.193388
     23          6           0       -1.922122    2.948947   -0.840021
     24          6           0        2.377493   -1.662534    3.214363
     25          6           0        7.299085   -1.700098    1.014275
     26          6           0       -3.167324    2.345156   -1.159717
     27          6           0       -1.064498   -1.808274    2.475585
     28          6           0       -3.174629    1.030874   -0.894407
     29          6           0       -1.382674    4.401736   -0.927447
     30          6           0        7.981986   -0.829999   -2.145583
     31          6           0       -1.754238    5.084481    0.343267
     32          6           0       -4.317277    3.080815   -1.893485
     33          6           0       -4.154714    0.022542   -1.075739
     34          6           0       -2.409115   -1.961404    3.000812
     35          6           0       -3.858080   -1.365640   -0.946596
     36          6           0        9.269106   -0.614798   -1.683343
     37          6           0       -1.147551    6.487283    0.433430
     38          6           0       -4.871847   -2.427065   -1.436237
     39          6           0       -4.130829   -3.583538   -1.222434
     40          6           0       -2.836171   -3.219259   -0.678115
     41          6           0       -6.174247   -2.201662   -1.978209
     42          6           0       -4.466398   -5.061156   -1.163410
     43          6           0       -6.939058   -3.080583   -2.588308
     44          1           0        4.600127   -2.049101    0.573557
     45          1           0        4.986229    0.883385    1.097654
     46          1           0        4.885795   -0.534014    1.992836
     47          1           0        2.978869    1.362995   -0.262568
     48          1           0        3.481423   -0.812418   -1.533157
     49          1           0       -0.426870   -0.143583    3.547464
     50          1           0       -1.399698    0.144372    2.188512
     51          1           0        0.677637    2.793840   -0.055026
     52          1           0        3.526607   -1.629122    3.541550
     53          1           0        1.925482   -1.154833    4.129972
     54          1           0        2.117500   -2.695888    2.787915
     55          1           0        6.843702   -2.184287    1.716337
     56          1           0        7.670341   -0.633738    1.452459
     57          1           0        8.214486   -2.158815    0.614288
     58          1           0       -1.126422   -2.332347    1.467464
     59          1           0       -0.574131   -2.744127    3.013444
     60          1           0       -1.708229   -0.311663   -0.116205
     61          1           0       -1.540602    4.876188   -1.769134
     62          1           0       -0.267822    4.405574   -0.827400
     63          1           0        7.838284   -0.832777   -3.134234
     64          1           0       -1.441605    4.634783    1.322368
     65          1           0       -2.841890    5.104453    0.565294
     66          1           0       -4.157660    4.286335   -2.213464
     67          1           0       -5.131305    3.126878   -1.270500
     68          1           0       -4.459910    2.571726   -2.956736
     69          1           0       -5.210410    0.291981   -1.315052
     70          1           0        9.569321   -0.793498   -0.550722
     71          1           0       10.089573   -0.312994   -2.303756
     72          1           0       -3.845365   -2.964034    3.401613
     73          1           0       -6.409509   -1.206688   -1.848782
     74          1           0       -4.067917   -5.594253   -2.120859
     75          1           0       -3.956657   -5.247840   -0.174057
     76          1           0       -5.596723   -5.172842   -0.888252
     77          1           0       -0.960596    8.005750    1.493290
     78          1           0       -8.084874   -2.909469   -2.920672
     79          1           0       -6.788204   -4.163562   -2.521336
 ---------------------------------------------------------------------

 SCF Done:  E(RB3LYP) =  -1947.82967343     A.U. after   17 cycles

 Excitation energies and oscillator strengths:

 Excited State   1:      Singlet-A      2.0821 eV  595.47 nm  f=0.4947  <S**2>=0.000
     155 ->156         0.70085
     155 <-156        -0.10995
 This state for optimization and/or second-order correction.
 Total Energy, E(TD-HF/TD-KS) =  -1947.75315622
 Copying the excited state density for this state as the 1-particle RhoCI density.

 The electronic state is 1-A.
 Alpha  occ. eigenvalues --  -19.20051 -19.17954 -19.13814 -19.11133 -19.10590
 Alpha  occ. eigenvalues --  -19.10059 -14.38917 -14.36673 -14.36104 -14.28324
 Alpha  occ. eigenvalues --  -10.33800 -10.29920 -10.29210 -10.26263 -10.25562
 Alpha  occ. eigenvalues --  -10.24072 -10.23618 -10.22613 -10.22481 -10.22292
 Alpha  occ. eigenvalues --  -10.22284 -10.22277 -10.22253 -10.21826 -10.21571
 Alpha  occ. eigenvalues --  -10.21461 -10.21443 -10.21152 -10.21110 -10.20667
 Alpha  occ. eigenvalues --  -10.20577 -10.20571 -10.20552 -10.20543 -10.20338
 Alpha  occ. eigenvalues --  -10.19913 -10.19612 -10.19499 -10.19072 -10.19012
 Alpha  occ. eigenvalues --  -10.18744 -10.18432 -10.18354  -1.09869  -1.08525
 Alpha  occ. eigenvalues --   -1.04900  -1.00411  -1.00241  -0.99932  -0.99813
 Alpha  occ. eigenvalues --   -0.98510  -0.93886  -0.93729  -0.83116  -0.82901
 Alpha  occ. eigenvalues --   -0.81615  -0.81401  -0.80184  -0.79705  -0.78348
 Alpha  occ. eigenvalues --   -0.77360  -0.76516  -0.76270  -0.74298  -0.72020
 Alpha  occ. eigenvalues --   -0.71701  -0.70485  -0.69364  -0.68958  -0.68445
 Alpha  occ. eigenvalues --   -0.67259  -0.66597  -0.64311  -0.61901  -0.61210
 Alpha  occ. eigenvalues --   -0.60756  -0.59129  -0.58494  -0.57636  -0.57269
 Alpha  occ. eigenvalues --   -0.56556  -0.55359  -0.54875  -0.54495  -0.53864
 Alpha  occ. eigenvalues --   -0.52722  -0.51630  -0.51142  -0.50653  -0.49804
 Alpha  occ. eigenvalues --   -0.48954  -0.48676  -0.48242  -0.47692  -0.47583
 Alpha  occ. eigenvalues --   -0.47159  -0.47070  -0.46885  -0.46379  -0.46079
 Alpha  occ. eigenvalues --   -0.45575  -0.45264  -0.45041  -0.44642  -0.44470
 Alpha  occ. eigenvalues --   -0.43862  -0.43789  -0.43550  -0.42717  -0.42542
 Alpha  occ. eigenvalues --   -0.42457  -0.42113  -0.41859  -0.41681  -0.41639
 Alpha  occ. eigenvalues --   -0.41377  -0.41101  -0.40701  -0.40466  -0.40358
 Alpha  occ. eigenvalues --   -0.39638  -0.39111  -0.39036  -0.38411  -0.38071
 Alpha  occ. eigenvalues --   -0.37879  -0.37591  -0.36930  -0.36707  -0.36327
 Alpha  occ. eigenvalues --   -0.36020  -0.35738  -0.35659  -0.35346  -0.34126
 Alpha  occ. eigenvalues --   -0.34027  -0.33746  -0.32923  -0.32762  -0.31877
 Alpha  occ. eigenvalues --   -0.31372  -0.30779  -0.29805  -0.28962  -0.28472
 Alpha  occ. eigenvalues --   -0.26436  -0.26358  -0.26061  -0.25188  -0.24905
 Alpha  occ. eigenvalues --   -0.24471  -0.23924  -0.23270  -0.22695  -0.18618
 Alpha virt. eigenvalues --   -0.10436  -0.06727  -0.06106  -0.02755   0.00294
 Alpha virt. eigenvalues --    0.00455   0.01062   0.01923   0.02197   0.02925
 Alpha virt. eigenvalues --    0.03714   0.04285   0.04633   0.04995   0.05355

 Mulliken charges:
               1
     1  O   -0.286463
     2  O   -0.200373
     3  O   -0.277959
     4  O   -0.171264
     5  O   -0.281543
     6  O   -0.138213
     7  N   -0.088679
     8  N   -0.156786
     9  N   -0.019885
    10  N   -0.236425
    11  C    0.121779
    12  C    0.228723
    13  C   -0.137128
    14  C   -0.152366
    15  C   -0.091048
    16  C    0.013811
    17  C   -0.169154
    18  C    0.235067
    19  C   -0.053193
    20  C   -0.100454
    21  C    0.072067
    22  C    0.165753
    23  C   -0.127608
    24  C    0.036025
    25  C    0.155287
    26  C   -0.130412
    27  C   -0.085768
    28  C    0.137835
    29  C    0.246964
    30  C    0.036951
    31  C   -0.037348
    32  C    0.032401
    33  C   -0.165428
    34  C    0.123711
    35  C    0.045837
    36  C   -0.059642
    37  C    0.171584
    38  C    0.027980
    39  C   -0.247219
    40  C    0.134943
    41  C    0.076311
    42  C    0.043533
    43  C   -0.057499
    44  H    0.006319
    45  H   -0.002866
    46  H   -0.076453
    47  H    0.170146
    48  H    0.127828
    49  H   -0.018321
    50  H   -0.004526
    51  H    0.017303
    52  H    0.009833
    53  H    0.042002
    54  H    0.068403
    55  H   -0.026971
    56  H    0.047740
    57  H    0.041298
    58  H    0.067576
    59  H    0.030220
    60  H    0.169305
    61  H   -0.021958
    62  H    0.002312
    63  H   -0.037950
    64  H    0.038903
    65  H    0.042035
    66  H    0.031056
    67  H    0.016049
    68  H    0.056091
    69  H   -0.017849
    70  H    0.028455
    71  H    0.029252
    72  H    0.200740
    73  H   -0.057116
    74  H    0.064622
    75  H    0.046610
    76  H    0.029945
    77  H    0.177198
    78  H    0.044194
    79  H    0.023868
 Sum of Mulliken charges =   0.00000

 Dipole moment (field-independent basis, Debye):
    X=              0.3917    Y=              2.4775    Z=              4.1095  Tot=              4.8145
 Quadrupole moment (field-independent basis, Debye-Ang):
   XX=           -219.1383   YY=           -246.1725   ZZ=           -270.3687
   XY=             -0.2784   XZ=             34.0631   YZ=              3.9469

 Normal termination of Gaussian 09 at Tue Jul  9 16:47:29 2019.
