 Gaussian 09, Revision D.01,
 Gaussian 09:  ES64L-G09RevD.01 24-Apr-2013

 --------------------------
 # td=(NStates=1) B3LYP/SVP
 --------------------------

 --
 TD
 --
 Symbolic Z-matrix:
 Charge =  0 Multiplicity = 1

                         Standard orientation:
 ---------------------------------------------------------------------
 Center     Atomic      Atomic             Coordinates (Angstroms)
 Number     Number       Type             X           Y           Z
 ---------------------------------------------------------------------
      1          8           0        5.362269   -0.427206   -3.378927
      2          8           0       -3.022004   -3.076126    3.237266
      3          8           0       -3.177814   -0.768818    3.374797
      4          8           0       -1.151144    7.301020    1.351370
      5          8           0        0.129096    6.734559   -0.384592
      6          8           0       -2.255944   -3.982344   -0.033919
      7          7           0        2.389769    0.793088    0.606741
      8          7           0        4.292826   -0.850481   -1.288225
      9          7           0       -1.898703    0.705524   -0.330250
     10          7           0       -2.792583   -1.734877   -0.502490
     11          6           0        4.724845   -1.266570    0.078591
     12          6           0        4.459906   -0.334818    1.243889
     13          6           0        3.013588   -0.143076    1.348762
     14          6           0        2.078147   -0.744039    2.171206
     15          6           0        0.796679   -0.103508    1.801864
     16          6           0        1.112287    0.853833    0.805099
     17          6           0        6.244480   -1.506564   -0.200799
     18          6           0       -0.468445   -0.300092    2.528670
     19          6           0        6.555739   -1.119365   -1.525104
     20          6           0        0.238933    1.866747    0.079789
     21          6           0       -1.072351    1.796413   -0.231486
     22          6           0        5.383163   -0.703377   -2.171719
     23          6           0       -1.760144    2.897456   -0.813716
     24          6           0        2.313195   -1.768723    3.278639
     25          6           0        7.096113   -1.987769    0.895382
     26          6           0       -3.041553    2.454129   -1.185474
     27          6           0       -1.209989   -1.722182    2.342519
     28          6           0       -3.127308    1.029003   -0.822273
     29          6           0       -1.252106    4.301948   -0.814441
     30          6           0        7.883152   -1.079181   -2.165390
     31          6           0       -1.469097    5.023492    0.401244
     32          6           0       -4.182408    3.220463   -1.852803
     33          6           0       -4.106517    0.130841   -1.172556
     34          6           0       -2.541610   -1.803007    3.028221
     35          6           0       -3.920003   -1.203325   -1.004415
     36          6           0        9.075743   -0.929834   -1.687386
     37          6           0       -0.821142    6.489895    0.392995
     38          6           0       -4.883663   -2.328783   -1.586718
     39          6           0       -4.290614   -3.442604   -1.171278
     40          6           0       -2.879060   -3.061667   -0.513780
     41          6           0       -6.230173   -2.007866   -2.161991
     42          6           0       -4.710265   -4.824832   -1.305722
     43          6           0       -7.160203   -2.842197   -2.565191
     44          1           0        4.290483   -2.337917    0.087312
     45          1           0        5.003332    0.629408    1.213353
     46          1           0        4.817874   -1.008422    2.031197
     47          1           0        2.791691    1.600359    0.042368
     48          1           0        3.596780   -0.780358   -1.674310
     49          1           0       -0.473418    0.022135    3.646499
     50          1           0       -1.177613    0.405784    2.150159
     51          1           0        0.751505    2.848323   -0.070510
     52          1           0        3.405394   -1.790996    3.545295
     53          1           0        1.884858   -1.439030    4.200694
     54          1           0        1.970051   -2.858722    3.005604
     55          1           0        6.775339   -3.185771    1.306375
     56          1           0        7.491083   -1.202877    1.621414
     57          1           0        8.255609   -2.229246    0.502749
     58          1           0       -1.309884   -2.066793    1.459715
     59          1           0       -0.727487   -2.387688    3.029286
     60          1           0       -1.562012   -0.288443   -0.192733
     61          1           0       -1.475142    4.784224   -1.787980
     62          1           0       -0.106381    3.995633   -0.800041
     63          1           0        7.865529   -1.212427   -3.275636
     64          1           0       -1.090482    4.248436    1.259347
     65          1           0       -2.578621    5.217173    0.528328
     66          1           0       -4.072457    4.121622   -2.243570
     67          1           0       -4.997717    3.381180   -1.072158
     68          1           0       -4.791668    2.580848   -2.667655
     69          1           0       -5.154120    0.297768   -1.580816
     70          1           0        9.278600   -1.016071   -0.784560
     71          1           0       10.048261   -0.485897   -2.201284
     72          1           0       -3.989341   -2.936513    3.502651
     73          1           0       -6.723788   -0.985736   -1.926453
     74          1           0       -4.933374   -5.045001   -2.429833
     75          1           0       -3.976471   -5.617192   -0.910588
     76          1           0       -5.562381   -4.941658   -0.740309
     77          1           0       -0.616148    8.240142    1.361042
     78          1           0       -8.187253   -2.418818   -2.754105
     79          1           0       -6.831393   -3.823980   -2.776989
 ---------------------------------------------------------------------

 SCF Done:  E(RB3LYP) =  -1947.74671678     A.U. after   16 cycles

 Excitation energies and oscillator strengths:

 Excited State   1:      Singlet-A      2.3610 eV  525.14 nm  f=0.4049  <S**2>=0.000
     153 ->156        -0.24964
     155 ->156         0.64741
 This state for optimization and/or second-order correction.
 Total Energy, E(TD-HF/TD-KS) =  -1947.65995271
 Copying the excited state density for this state as the 1-particle RhoCI density.

 The electronic state is 1-A.
 Alpha  occ. eigenvalues --  -19.20978 -19.17528 -19.12526 -19.10809 -19.09837
 Alpha  occ. eigenvalues --  -19.09321 -14.39099 -14.37237 -14.33149 -14.29154
 Alpha  occ. eigenvalues --  -10.33470 -10.30768 -10.27572 -10.26270 -10.26075
 Alpha  occ. eigenvalues --  -10.25755 -10.24405 -10.24186 -10.23488 -10.23305
 Alpha  occ. eigenvalues --  -10.23201 -10.23176 -10.23124 -10.22694 -10.22359
 Alpha  occ. eigenvalues --  -10.21920 -10.21403 -10.21105 -10.20939 -10.20691
 Alpha  occ. eigenvalues --  -10.20504 -10.20199 -10.19754 -10.19395 -10.19383
 Alpha  occ. eigenvalues --  -10.19219 -10.19190 -10.18985 -10.18550 -10.18206
 Alpha  occ. eigenvalues --  -10.18179 -10.17896 -10.17647  -1.10755  -1.06299
 Alpha  occ. eigenvalues --   -1.01583  -1.01356  -1.01289  -0.99317  -0.99147
 Alpha  occ. eigenvalues --   -0.96712  -0.93994  -0.92411  -0.84292  -0.83399
 Alpha  occ. eigenvalues --   -0.82239  -0.81234  -0.80306  -0.80203  -0.78115
 Alpha  occ. eigenvalues --   -0.77859  -0.76626  -0.76209  -0.75334  -0.73313
 Alpha  occ. eigenvalues --   -0.72459  -0.71306  -0.70287  -0.69083  -0.68097
 Alpha  occ. eigenvalues --   -0.67503  -0.66507  -0.64592  -0.61735  -0.61655
 Alpha  occ. eigenvalues --   -0.59566  -0.58347  -0.58061  -0.58028  -0.57881
 Alpha  occ. eigenvalues --   -0.57137  -0.55555  -0.54905  -0.54613  -0.54137
 Alpha  occ. eigenvalues --   -0.52432  -0.51861  -0.51493  -0.51043  -0.50088
 Alpha  occ. eigenvalues --   -0.48781  -0.48367  -0.48185  -0.48045  -0.47619
 Alpha  occ. eigenvalues --   -0.47433  -0.47048  -0.46720  -0.46335  -0.46072
 Alpha  occ. eigenvalues --   -0.45446  -0.45266  -0.44862  -0.44099  -0.43668
 Alpha  occ. eigenvalues --   -0.43405  -0.43318  -0.43261  -0.42742  -0.42563
 Alpha  occ. eigenvalues --   -0.42228  -0.42065  -0.41617  -0.41184  -0.40990
 Alpha  occ. eigenvalues --   -0.40671  -0.40378  -0.40032  -0.39962  -0.39851
 Alpha  occ. eigenvalues --   -0.39638  -0.39571  -0.39183  -0.39061  -0.38110
 Alpha  occ. eigenvalues --   -0.37721  -0.37628  -0.37259  -0.37100  -0.36746
 Alpha  occ. eigenvalues --   -0.36496  -0.35998  -0.35491  -0.34607  -0.34183
 Alpha  occ. eigenvalues --   -0.33282  -0.33162  -0.32317  -0.31931  -0.31460
 Alpha  occ. eigenvalues --   -0.30220  -0.29720  -0.29092  -0.27986  -0.27463
 Alpha  occ. eigenvalues --   -0.26187  -0.25966  -0.25706  -0.25048  -0.24539
 Alpha  occ. eigenvalues --   -0.24310  -0.23846  -0.22913  -0.22699  -0.20110
 Alpha virt. eigenvalues --   -0.10776  -0.06640  -0.04911  -0.01971  -0.00405
 Alpha virt. eigenvalues --    0.00076   0.00437   0.01166   0.01382   0.02361
 Alpha virt. eigenvalues --    0.03409   0.03735   0.04114   0.04628   0.05097

 Mulliken charges:
               1
     1  O   -0.247146
     2  O   -0.214758
     3  O   -0.290308
     4  O   -0.186298
     5  O   -0.274838
     6  O   -0.209387
     7  N    0.012553
     8  N   -0.101995
     9  N   -0.080289
    10  N   -0.253428
    11  C    0.082203
    12  C    0.273720
    13  C   -0.124630
    14  C   -0.107489
    15  C   -0.117999
    16  C   -0.020605
    17  C   -0.166790
    18  C    0.038908
    19  C    0.042278
    20  C   -0.086183
    21  C    0.112894
    22  C    0.098461
    23  C   -0.126001
    24  C    0.082202
    25  C   -0.065276
    26  C   -0.109730
    27  C    0.164638
    28  C    0.201717
    29  C    0.078411
    30  C    0.000197
    31  C   -0.019634
    32  C    0.110641
    33  C   -0.132081
    34  C    0.131779
    35  C    0.018986
    36  C    0.014480
    37  C    0.151246
    38  C    0.067802
    39  C   -0.224672
    40  C    0.146606
    41  C   -0.053343
    42  C    0.075331
    43  C   -0.031856
    44  H    0.049298
    45  H    0.008463
    46  H   -0.003685
    47  H    0.137914
    48  H   -0.018451
    49  H    0.021724
    50  H   -0.013121
    51  H    0.012884
    52  H   -0.003404
    53  H    0.014008
    54  H    0.058304
    55  H    0.073173
    56  H    0.063017
    57  H    0.042884
    58  H   -0.029118
    59  H    0.008782
    60  H    0.174668
    61  H    0.027729
    62  H    0.017305
    63  H    0.023238
    64  H    0.072379
    65  H    0.030914
    66  H   -0.024696
    67  H    0.026831
    68  H    0.039225
    69  H   -0.006280
    70  H   -0.092399
    71  H    0.046216
    72  H    0.200779
    73  H    0.015779
    74  H    0.044009
    75  H    0.035742
    76  H    0.002989
    77  H    0.249996
    78  H    0.033024
    79  H   -0.000433
 Sum of Mulliken charges =   0.00000

 Dipole moment (field-independent basis, Debye):
    X=              0.8119    Y=              4.6921    Z=              4.0768  Tot=              6.2686
 Quadrupole moment (field-independent basis, Debye-Ang):
   XX=           -219.3638   YY=           -235.0775   ZZ=           -269.7330
   XY=            -13.6073   XZ=             37.6203   YZ=              3.2628

 Normal termination of Gaussian 09 at Mon Jul  8 00:45:55 2019.
