 Gaussian 09, Revision D.01,
 Gaussian 09:  ES64L-G09RevD.01 24-Apr-2013

 --------------------------
 # td=(NStates=1) B3LYP/SVP
 --------------------------

 --
 TD
 --
 Symbolic Z-matrix:
 Charge =  0 Multiplicity = 1

                         Standard orientation:
 ---------------------------------------------------------------------
 Center     Atomic      Atomic             Coordinates (Angstroms)
 Number     Number       Type             X           Y           Z
 ---------------------------------------------------------------------
      1          8           0        5.458082    0.057240   -3.375538
      2          8           0       -2.629136   -3.301122    3.135765
      3          8           0       -2.972852   -1.123746    3.226208
      4          8           0       -2.562097    7.127406    1.338570
      5          8           0       -1.152243    6.954724   -0.525209
      6          8           0       -1.542479   -4.031692   -0.016272
      7          7           0        2.278865    1.126299    0.568043
      8          7           0        4.495718   -0.414566   -1.360875
      9          7           0       -1.982871    0.652858   -0.295180
     10          7           0       -2.439087   -1.963782   -0.564868
     11          6           0        4.838770   -0.911396   -0.050638
     12          6           0        4.433003    0.044987    1.106258
     13          6           0        2.979372    0.157119    1.262311
     14          6           0        2.063021   -0.522646    2.082261
     15          6           0        0.757703    0.061510    1.834014
     16          6           0        0.865649    0.987592    0.863464
     17          6           0        6.375267   -1.028505   -0.113371
     18          6           0       -0.580494   -0.268340    2.604152
     19          6           0        6.761211   -0.697628   -1.390883
     20          6           0        0.005899    1.984715    0.277810
     21          6           0       -1.259843    1.869458   -0.268647
     22          6           0        5.567887   -0.238507   -2.159100
     23          6           0       -2.245373    2.894950   -0.830028
     24          6           0        2.493737   -1.422382    3.186837
     25          6           0        7.216324   -1.586949    0.937023
     26          6           0       -3.342124    2.267242   -1.184002
     27          6           0       -0.817843   -1.788239    2.479942
     28          6           0       -3.146282    0.864184   -0.932706
     29          6           0       -1.865120    4.313622   -0.836539
     30          6           0        8.131610   -0.531546   -2.000400
     31          6           0       -2.050841    4.927621    0.460618
     32          6           0       -4.580424    2.895529   -1.918432
     33          6           0       -3.983230   -0.251858   -1.161401
     34          6           0       -2.237213   -2.081015    3.000408
     35          6           0       -3.715191   -1.551712   -1.021024
     36          6           0        9.321804   -0.484029   -1.455296
     37          6           0       -1.861603    6.441016    0.385181
     38          6           0       -4.478043   -2.766754   -1.460597
     39          6           0       -3.740640   -3.908885   -1.082190
     40          6           0       -2.495742   -3.413888   -0.526984
     41          6           0       -5.829415   -2.721328   -2.088787
     42          6           0       -3.992093   -5.394058   -1.161139
     43          6           0       -6.703066   -3.726271   -2.566543
     44          1           0        4.422466   -1.841069   -0.017383
     45          1           0        4.967475    0.883200    0.939214
     46          1           0        4.900549   -0.338719    1.985459
     47          1           0        2.739110    1.786933   -0.293677
     48          1           0        3.403402   -0.158679   -1.693601
     49          1           0       -0.503607   -0.071714    3.738233
     50          1           0       -1.286156    0.264429    2.096222
     51          1           0        0.567871    2.852510    0.028408
     52          1           0        3.631341   -1.508382    3.294969
     53          1           0        2.129053   -1.137247    4.140583
     54          1           0        2.096838   -2.349837    2.989452
     55          1           0        6.900630   -2.458821    1.636523
     56          1           0        7.646399   -0.771072    1.384756
     57          1           0        8.098256   -2.183363    0.555783
     58          1           0       -0.915167   -2.042392    1.426226
     59          1           0       -0.235563   -2.659686    3.053819
     60          1           0       -1.568430   -0.244289   -0.284539
     61          1           0       -2.542400    4.826842   -1.559910
     62          1           0       -0.886653    4.304407   -1.143448
     63          1           0        8.029887   -0.343896   -3.104677
     64          1           0       -1.411056    4.821701    1.207790
     65          1           0       -3.097868    4.558310    1.026196
     66          1           0       -4.407623    3.999975   -2.379117
     67          1           0       -5.350360    2.845867   -1.290624
     68          1           0       -4.721991    2.322495   -2.771445
     69          1           0       -4.843435   -0.017280   -1.842228
     70          1           0        9.456381   -0.420105   -0.406040
     71          1           0       10.016755   -0.608656   -2.278856
     72          1           0       -3.528989   -3.296151    3.244423
     73          1           0       -6.137031   -1.681264   -2.479941
     74          1           0       -4.228286   -5.485283   -2.384220
     75          1           0       -2.828244   -5.738483   -0.844626
     76          1           0       -4.769001   -5.762789   -0.484484
     77          1           0       -2.201955    8.090715    1.464031
     78          1           0       -7.740714   -3.397790   -2.816191
     79          1           0       -6.384498   -4.790205   -2.464538
 ---------------------------------------------------------------------

 SCF Done:  E(RB3LYP) =  -1947.82558011     A.U. after   19 cycles

 Excitation energies and oscillator strengths:

 Excited State   1:      Singlet-A      1.8764 eV  660.76 nm  f=0.2450  <S**2>=0.000
     154 ->156         0.23436
     155 ->156         0.65845
 This state for optimization and/or second-order correction.
 Total Energy, E(TD-HF/TD-KS) =  -1947.75662411
 Copying the excited state density for this state as the 1-particle RhoCI density.

 The electronic state is 1-A.
 Alpha  occ. eigenvalues --  -19.20300 -19.17348 -19.13660 -19.10097 -19.09262
 Alpha  occ. eigenvalues --  -19.08446 -14.39113 -14.36916 -14.36060 -14.28395
 Alpha  occ. eigenvalues --  -10.33691 -10.29512 -10.27719 -10.25766 -10.25454
 Alpha  occ. eigenvalues --  -10.25048 -10.24175 -10.23288 -10.22999 -10.22766
 Alpha  occ. eigenvalues --  -10.22466 -10.22462 -10.21947 -10.21786 -10.21659
 Alpha  occ. eigenvalues --  -10.21460 -10.21395 -10.21194 -10.21092 -10.20874
 Alpha  occ. eigenvalues --  -10.20821 -10.20767 -10.20633 -10.20433 -10.20185
 Alpha  occ. eigenvalues --  -10.19822 -10.19475 -10.19344 -10.19134 -10.19013
 Alpha  occ. eigenvalues --  -10.18919 -10.18734 -10.18599  -1.11215  -1.08438
 Alpha  occ. eigenvalues --   -1.00331  -0.99672  -0.99629  -0.99322  -0.98119
 Alpha  occ. eigenvalues --   -0.96664  -0.93118  -0.89173  -0.85134  -0.82304
 Alpha  occ. eigenvalues --   -0.81988  -0.80507  -0.80153  -0.79645  -0.78272
 Alpha  occ. eigenvalues --   -0.77348  -0.76327  -0.75839  -0.74261  -0.72974
 Alpha  occ. eigenvalues --   -0.72175  -0.71904  -0.70410  -0.69423  -0.68420
 Alpha  occ. eigenvalues --   -0.67257  -0.66699  -0.64562  -0.61347  -0.61134
 Alpha  occ. eigenvalues --   -0.60489  -0.59685  -0.59183  -0.57440  -0.57165
 Alpha  occ. eigenvalues --   -0.56747  -0.55440  -0.55196  -0.53882  -0.53048
 Alpha  occ. eigenvalues --   -0.52205  -0.51638  -0.50890  -0.50613  -0.49935
 Alpha  occ. eigenvalues --   -0.48514  -0.48400  -0.48252  -0.47919  -0.47514
 Alpha  occ. eigenvalues --   -0.47363  -0.47326  -0.46646  -0.46498  -0.46269
 Alpha  occ. eigenvalues --   -0.46037  -0.45344  -0.44837  -0.44124  -0.43900
 Alpha  occ. eigenvalues --   -0.43589  -0.43412  -0.43356  -0.42930  -0.42362
 Alpha  occ. eigenvalues --   -0.42156  -0.42099  -0.41554  -0.41454  -0.41195
 Alpha  occ. eigenvalues --   -0.40952  -0.40643  -0.40163  -0.39651  -0.39569
 Alpha  occ. eigenvalues --   -0.39170  -0.38878  -0.38448  -0.38343  -0.38051
 Alpha  occ. eigenvalues --   -0.37972  -0.37824  -0.37467  -0.37374  -0.36724
 Alpha  occ. eigenvalues --   -0.36382  -0.35950  -0.35619  -0.34596  -0.34096
 Alpha  occ. eigenvalues --   -0.33784  -0.33628  -0.33010  -0.32760  -0.30960
 Alpha  occ. eigenvalues --   -0.30730  -0.30154  -0.29132  -0.28403  -0.27629
 Alpha  occ. eigenvalues --   -0.26572  -0.25305  -0.25289  -0.24806  -0.24546
 Alpha  occ. eigenvalues --   -0.24110  -0.23872  -0.23444  -0.21573  -0.19316
 Alpha virt. eigenvalues --   -0.11316  -0.06997  -0.05673  -0.01771  -0.01418
 Alpha virt. eigenvalues --   -0.00021   0.01027   0.01753   0.02006   0.03229
 Alpha virt. eigenvalues --    0.03421   0.03592   0.04134   0.04277   0.05235

 Mulliken charges:
               1
     1  O   -0.279186
     2  O   -0.073086
     3  O   -0.280298
     4  O   -0.225742
     5  O   -0.271675
     6  O   -0.235789
     7  N   -0.216797
     8  N   -0.251544
     9  N   -0.034640
    10  N   -0.369607
    11  C    0.152843
    12  C    0.263150
    13  C   -0.032934
    14  C   -0.138628
    15  C   -0.123319
    16  C    0.068875
    17  C   -0.198527
    18  C    0.224760
    19  C   -0.050981
    20  C   -0.077013
    21  C    0.084599
    22  C    0.157226
    23  C   -0.127741
    24  C    0.140663
    25  C    0.066182
    26  C   -0.131972
    27  C   -0.060269
    28  C    0.048307
    29  C    0.261466
    30  C   -0.035877
    31  C    0.007004
    32  C    0.154350
    33  C   -0.095164
    34  C    0.080115
    35  C    0.124613
    36  C    0.023189
    37  C    0.155323
    38  C    0.060303
    39  C   -0.181671
    40  C    0.169450
    41  C   -0.080711
    42  C   -0.020074
    43  C   -0.041911
    44  H   -0.010496
    45  H   -0.056675
    46  H   -0.019197
    47  H    0.177503
    48  H    0.181755
    49  H    0.023661
    50  H   -0.027786
    51  H   -0.023534
    52  H    0.002944
    53  H    0.005921
    54  H    0.004448
    55  H    0.043061
    56  H    0.019988
    57  H    0.032570
    58  H    0.068953
    59  H    0.046837
    60  H    0.134727
    61  H    0.008386
    62  H   -0.012889
    63  H    0.025505
    64  H   -0.006841
    65  H    0.061693
    66  H    0.041737
    67  H    0.001542
    68  H    0.016279
    69  H   -0.025874
    70  H   -0.002878
    71  H    0.033793
    72  H    0.141807
    73  H    0.016098
    74  H    0.064777
    75  H    0.077188
    76  H    0.052411
    77  H    0.222584
    78  H    0.043972
    79  H    0.028774
 Sum of Mulliken charges =   0.00000

 Dipole moment (field-independent basis, Debye):
    X=             -0.2917    Y=              3.5770    Z=              3.7953  Tot=              5.2234
 Quadrupole moment (field-independent basis, Debye-Ang):
   XX=           -221.5479   YY=           -242.7672   ZZ=           -266.0927
   XY=            -10.6402   XZ=             38.0825   YZ=              5.7268

 Normal termination of Gaussian 09 at Mon Jul  8 13:37:22 2019.
