 Gaussian 09, Revision D.01,
 Gaussian 09:  ES64L-G09RevD.01 24-Apr-2013

 --------------------------
 # td=(NStates=1) B3LYP/SVP
 --------------------------

 --
 TD
 --
 Symbolic Z-matrix:
 Charge =  0 Multiplicity = 1

                         Standard orientation:
 ---------------------------------------------------------------------
 Center     Atomic      Atomic             Coordinates (Angstroms)
 Number     Number       Type             X           Y           Z
 ---------------------------------------------------------------------
      1          8           0        5.288969    0.034221   -3.332932
      2          8           0       -2.936556   -2.970737    3.148898
      3          8           0       -3.220936   -0.771744    3.164423
      4          8           0       -1.982968    7.330105    1.219312
      5          8           0       -0.572654    6.925020   -0.522075
      6          8           0       -1.736287   -4.068856   -0.026436
      7          7           0        2.300741    0.931287    0.594583
      8          7           0        4.396348   -0.486222   -1.210407
      9          7           0       -1.977786    0.708945   -0.080565
     10          7           0       -2.635858   -1.946131   -0.370303
     11          6           0        4.801927   -1.106822   -0.035120
     12          6           0        4.438963   -0.224819    1.246919
     13          6           0        2.894026   -0.029640    1.422363
     14          6           0        1.996649   -0.677758    2.200882
     15          6           0        0.761456   -0.007944    1.879626
     16          6           0        0.995863    0.948024    0.896858
     17          6           0        6.269337   -1.290116   -0.175801
     18          6           0       -0.492858   -0.165615    2.713852
     19          6           0        6.755187   -0.779730   -1.388680
     20          6           0        0.132209    1.961988    0.228318
     21          6           0       -1.175911    1.806307   -0.278021
     22          6           0        5.323187   -0.373453   -2.127408
     23          6           0       -1.992385    2.864119   -0.870695
     24          6           0        2.293401   -1.549182    3.352899
     25          6           0        7.253585   -1.835185    0.829891
     26          6           0       -3.204776    2.361575   -1.319431
     27          6           0       -1.016628   -1.676262    2.686065
     28          6           0       -3.016420    0.885483   -0.943947
     29          6           0       -1.647890    4.311984   -1.116456
     30          6           0        7.962499   -0.691835   -2.132234
     31          6           0       -1.806814    5.080826    0.257526
     32          6           0       -4.437185    2.980086   -1.805813
     33          6           0       -3.955396   -0.172837   -1.257129
     34          6           0       -2.477898   -1.703788    2.999239
     35          6           0       -3.748326   -1.526290   -1.026339
     36          6           0        9.228271   -0.854687   -1.661242
     37          6           0       -1.381661    6.563712    0.257547
     38          6           0       -4.574504   -2.741708   -1.453998
     39          6           0       -3.873138   -3.866512   -1.050442
     40          6           0       -2.685343   -3.360522   -0.379687
     41          6           0       -5.845251   -2.621314   -2.041134
     42          6           0       -4.164274   -5.293220   -1.268263
     43          6           0       -6.472504   -3.473346   -2.894868
     44          1           0        4.477351   -2.188634    0.011413
     45          1           0        4.916118    0.690173    1.039544
     46          1           0        4.816611   -0.666474    2.036651
     47          1           0        2.681702    1.662328    0.183670
     48          1           0        3.443138   -0.465036   -1.591191
     49          1           0       -0.347975    0.010210    3.802011
     50          1           0       -1.341547    0.413295    2.385625
     51          1           0        0.565324    3.014666    0.037626
     52          1           0        3.535511   -1.641025    3.484186
     53          1           0        1.866417   -1.189990    4.452571
     54          1           0        1.524746   -2.513169    3.158144
     55          1           0        6.669487   -2.457461    1.625783
     56          1           0        7.447708   -0.965422    1.532817
     57          1           0        8.162041   -2.160236    0.517423
     58          1           0       -1.113694   -2.113902    1.677054
     59          1           0       -0.540781   -2.340448    3.358101
     60          1           0       -1.677619   -0.376914   -0.204276
     61          1           0       -2.235835    4.859579   -1.827532
     62          1           0       -0.593631    4.400888   -1.504846
     63          1           0        7.779772   -0.500911   -3.249675
     64          1           0       -1.604976    4.454242    1.115271
     65          1           0       -2.781167    5.232497    0.534160
     66          1           0       -4.465346    4.081939   -1.935332
     67          1           0       -5.304503    2.603291   -1.047771
     68          1           0       -4.352906    2.417086   -2.909428
     69          1           0       -4.886022    0.095362   -1.739184
     70          1           0        9.380491   -1.266453   -0.456055
     71          1           0       10.045932   -0.828415   -2.234450
     72          1           0       -4.041082   -2.574932    3.061889
     73          1           0       -6.574406   -1.720327   -1.762174
     74          1           0       -3.692355   -5.564753   -2.391594
     75          1           0       -3.519916   -6.018674   -0.747777
     76          1           0       -5.262666   -5.738013   -1.249934
     77          1           0       -1.589029    8.228675    1.208170
     78          1           0       -7.436690   -3.125768   -3.206931
     79          1           0       -6.075250   -4.475610   -3.378325
 ---------------------------------------------------------------------

 SCF Done:  E(RB3LYP) =  -1947.80576092     A.U. after   17 cycles

 Excitation energies and oscillator strengths:

 Excited State   1:      Singlet-A      2.0919 eV  592.70 nm  f=0.3227  <S**2>=0.000
     155 ->156         0.68280
 This state for optimization and/or second-order correction.
 Total Energy, E(TD-HF/TD-KS) =  -1947.72888641
 Copying the excited state density for this state as the 1-particle RhoCI density.

 The electronic state is 1-A.
 Alpha  occ. eigenvalues --  -19.19481 -19.16729 -19.13737 -19.11363 -19.10233
 Alpha  occ. eigenvalues --  -19.09210 -14.37506 -14.37415 -14.36831 -14.29858
 Alpha  occ. eigenvalues --  -10.33048 -10.29833 -10.28271 -10.26544 -10.26296
 Alpha  occ. eigenvalues --  -10.25503 -10.25173 -10.23879 -10.23838 -10.23429
 Alpha  occ. eigenvalues --  -10.23278 -10.23127 -10.22912 -10.22445 -10.22098
 Alpha  occ. eigenvalues --  -10.21909 -10.21866 -10.21231 -10.21086 -10.21023
 Alpha  occ. eigenvalues --  -10.20918 -10.20908 -10.20665 -10.20567 -10.20480
 Alpha  occ. eigenvalues --  -10.20160 -10.19974 -10.19952 -10.19641 -10.19147
 Alpha  occ. eigenvalues --  -10.19113 -10.18993 -10.18453  -1.10585  -1.07581
 Alpha  occ. eigenvalues --   -1.02778  -1.01293  -1.00695  -1.00042  -0.99320
 Alpha  occ. eigenvalues --   -0.97538  -0.94666  -0.91630  -0.83406  -0.82439
 Alpha  occ. eigenvalues --   -0.81908  -0.81153  -0.80587  -0.79328  -0.78018
 Alpha  occ. eigenvalues --   -0.77102  -0.76336  -0.75517  -0.74369  -0.72943
 Alpha  occ. eigenvalues --   -0.71420  -0.70612  -0.69510  -0.69008  -0.68648
 Alpha  occ. eigenvalues --   -0.67157  -0.66569  -0.64173  -0.61860  -0.61247
 Alpha  occ. eigenvalues --   -0.61142  -0.58321  -0.57824  -0.57220  -0.56696
 Alpha  occ. eigenvalues --   -0.56199  -0.55621  -0.54799  -0.53477  -0.52994
 Alpha  occ. eigenvalues --   -0.52173  -0.51775  -0.51087  -0.50530  -0.49740
 Alpha  occ. eigenvalues --   -0.49090  -0.48451  -0.48277  -0.48075  -0.47641
 Alpha  occ. eigenvalues --   -0.47212  -0.46896  -0.46573  -0.46133  -0.45882
 Alpha  occ. eigenvalues --   -0.45607  -0.44974  -0.44634  -0.44272  -0.44034
 Alpha  occ. eigenvalues --   -0.43573  -0.43198  -0.42983  -0.42670  -0.42337
 Alpha  occ. eigenvalues --   -0.42116  -0.41933  -0.41449  -0.41336  -0.40951
 Alpha  occ. eigenvalues --   -0.40871  -0.40687  -0.40183  -0.40068  -0.39754
 Alpha  occ. eigenvalues --   -0.39486  -0.39165  -0.38976  -0.38337  -0.38312
 Alpha  occ. eigenvalues --   -0.37892  -0.37583  -0.37339  -0.36709  -0.36534
 Alpha  occ. eigenvalues --   -0.36364  -0.35462  -0.35212  -0.35019  -0.34464
 Alpha  occ. eigenvalues --   -0.34117  -0.34035  -0.33781  -0.33423  -0.31141
 Alpha  occ. eigenvalues --   -0.30841  -0.30320  -0.29108  -0.28705  -0.27840
 Alpha  occ. eigenvalues --   -0.26881  -0.26666  -0.26554  -0.24786  -0.24512
 Alpha  occ. eigenvalues --   -0.23895  -0.23676  -0.22732  -0.22324  -0.19800
 Alpha virt. eigenvalues --   -0.11161  -0.06930  -0.05331  -0.01700  -0.00128
 Alpha virt. eigenvalues --    0.00885   0.01529   0.01755   0.02112   0.02506
 Alpha virt. eigenvalues --    0.02873   0.03416   0.03563   0.04072   0.04760

 Mulliken charges:
               1
     1  O   -0.292917
     2  O   -0.276734
     3  O   -0.250042
     4  O   -0.204170
     5  O   -0.188679
     6  O   -0.220520
     7  N    0.001955
     8  N   -0.082653
     9  N   -0.083266
    10  N   -0.323269
    11  C    0.107520
    12  C    0.328228
    13  C   -0.120796
    14  C   -0.044135
    15  C   -0.094672
    16  C    0.021006
    17  C   -0.245466
    18  C    0.105980
    19  C   -0.047687
    20  C   -0.110185
    21  C    0.088943
    22  C    0.097964
    23  C   -0.118774
    24  C   -0.072999
    25  C    0.119514
    26  C   -0.084729
    27  C    0.004366
    28  C    0.060478
    29  C    0.115523
    30  C   -0.031001
    31  C    0.008050
    32  C    0.004272
    33  C   -0.093542
    34  C    0.124901
    35  C    0.086186
    36  C   -0.030678
    37  C    0.135809
    38  C    0.101851
    39  C   -0.107322
    40  C    0.153160
    41  C   -0.127220
    42  C    0.001242
    43  C   -0.049286
    44  H    0.035262
    45  H   -0.024436
    46  H   -0.079120
    47  H    0.067250
    48  H    0.139234
    49  H    0.008690
    50  H    0.016491
    51  H    0.020557
    52  H    0.048594
    53  H    0.050776
    54  H    0.071814
    55  H    0.011781
    56  H    0.026782
    57  H    0.017067
    58  H    0.069849
    59  H    0.017855
    60  H    0.214862
    61  H   -0.000918
    62  H    0.035352
    63  H    0.040356
    64  H    0.036074
    65  H   -0.016744
    66  H    0.039339
    67  H    0.079896
    68  H    0.073560
    69  H   -0.040124
    70  H    0.034500
    71  H   -0.008245
    72  H    0.230365
    73  H    0.035889
    74  H    0.041988
    75  H    0.026806
    76  H    0.054046
    77  H    0.191055
    78  H    0.016050
    79  H    0.051244
 Sum of Mulliken charges =   0.00000

 Dipole moment (field-independent basis, Debye):
    X=             -2.0516    Y=              3.6854    Z=              2.2248  Tot=              4.7687
 Quadrupole moment (field-independent basis, Debye-Ang):
   XX=           -228.8729   YY=           -240.5907   ZZ=           -266.9766
   XY=            -13.8933   XZ=             40.7042   YZ=              9.0959

 Normal termination of Gaussian 09 at Tue Jul  9 13:11:17 2019.
