 Gaussian 09, Revision D.01,
 Gaussian 09:  ES64L-G09RevD.01 24-Apr-2013

 --------------------------
 # td=(NStates=1) B3LYP/SVP
 --------------------------

 --
 TD
 --
 Symbolic Z-matrix:
 Charge =  0 Multiplicity = 1

                         Standard orientation:
 ---------------------------------------------------------------------
 Center     Atomic      Atomic             Coordinates (Angstroms)
 Number     Number       Type             X           Y           Z
 ---------------------------------------------------------------------
      1          8           0        5.432448   -0.481599   -3.469575
      2          8           0       -3.141313   -3.034737    3.251914
      3          8           0       -3.319292   -0.764855    3.146772
      4          8           0       -1.592684    7.343528    1.447436
      5          8           0       -0.484504    7.005589   -0.472656
      6          8           0       -1.802369   -3.915383    0.042874
      7          7           0        2.388463    0.958988    0.641053
      8          7           0        4.387299   -0.687876   -1.350544
      9          7           0       -1.907695    0.579238   -0.426755
     10          7           0       -2.580224   -1.803220   -0.455089
     11          6           0        4.845359   -1.219326   -0.011854
     12          6           0        4.401484   -0.368655    1.254908
     13          6           0        2.977710   -0.059163    1.334891
     14          6           0        1.941966   -0.680864    2.205473
     15          6           0        0.736649   -0.101755    1.835279
     16          6           0        0.942469    0.915580    0.875240
     17          6           0        6.323336   -1.386981   -0.169365
     18          6           0       -0.518062   -0.305465    2.633651
     19          6           0        6.672468   -0.912490   -1.412549
     20          6           0        0.137025    1.893126    0.106904
     21          6           0       -1.141586    1.803152   -0.286098
     22          6           0        5.490428   -0.670396   -2.257443
     23          6           0       -1.964467    2.912718   -0.843143
     24          6           0        2.160183   -1.729916    3.163786
     25          6           0        7.155399   -1.818987    1.026753
     26          6           0       -3.134046    2.360645   -1.250235
     27          6           0       -1.123660   -1.753051    2.645077
     28          6           0       -3.109370    0.912939   -1.011156
     29          6           0       -1.420817    4.361211   -0.907837
     30          6           0        8.039592   -0.736473   -1.909586
     31          6           0       -1.764027    5.101594    0.265150
     32          6           0       -4.284021    3.097738   -1.839282
     33          6           0       -4.054761   -0.034923   -1.273127
     34          6           0       -2.569979   -1.747142    3.112180
     35          6           0       -3.779577   -1.448031   -1.084146
     36          6           0        9.242032   -0.453718   -1.423308
     37          6           0       -1.256298    6.504857    0.347426
     38          6           0       -4.707879   -2.523293   -1.464841
     39          6           0       -4.006708   -3.707587   -1.106631
     40          6           0       -2.684918   -3.198635   -0.392208
     41          6           0       -5.898971   -2.400565   -2.253123
     42          6           0       -4.308582   -5.100901   -1.198918
     43          6           0       -6.812418   -3.328439   -2.811688
     44          1           0        4.264008   -2.120241    0.022969
     45          1           0        4.937759    0.707761    1.116334
     46          1           0        4.815169   -0.968590    2.066434
     47          1           0        2.778788    1.278224   -0.103254
     48          1           0        3.529280   -0.828023   -1.638376
     49          1           0       -0.619021    0.160744    3.625129
     50          1           0       -1.275111    0.235295    2.117825
     51          1           0        0.624639    2.859174    0.015794
     52          1           0        3.311984   -1.904060    3.048293
     53          1           0        1.697921   -1.313796    4.202979
     54          1           0        1.696460   -2.650914    3.074135
     55          1           0        6.592132   -2.932727    1.123822
     56          1           0        7.151822   -0.954157    1.661498
     57          1           0        8.268456   -1.774745    0.671339
     58          1           0       -0.883940   -2.080810    1.709643
     59          1           0       -0.617791   -2.400762    3.316137
     60          1           0       -1.554126   -0.339835   -0.267137
     61          1           0       -2.087285    4.879238   -1.653271
     62          1           0       -0.334210    4.026343   -1.211388
     63          1           0        8.062215   -0.745626   -3.067289
     64          1           0       -1.421069    4.675388    1.059423
     65          1           0       -2.848703    5.207002    0.550514
     66          1           0       -4.160884    4.224989   -1.952818
     67          1           0       -5.162519    2.884129   -1.013109
     68          1           0       -4.618916    2.789934   -2.908768
     69          1           0       -4.842244    0.323286   -1.863082
     70          1           0        9.358118   -0.547774   -0.291729
     71          1           0       10.139628   -0.592974   -2.160725
     72          1           0       -3.967768   -2.799667    3.563789
     73          1           0       -6.179774   -1.403794   -2.302160
     74          1           0       -4.449282   -5.518674   -2.172430
     75          1           0       -3.341886   -5.580733   -0.947505
     76          1           0       -5.356062   -5.180145   -0.665008
     77          1           0       -1.048336    8.111372    1.162010
     78          1           0       -7.690099   -2.963659   -3.095595
     79          1           0       -6.678243   -4.372236   -2.630269
 ---------------------------------------------------------------------

 SCF Done:  E(RB3LYP) =  -1947.82277836     A.U. after   16 cycles

 Excitation energies and oscillator strengths:

 Excited State   1:      Singlet-A      2.0855 eV  594.51 nm  f=0.4070  <S**2>=0.000
     154 ->156         0.13643
     155 ->156         0.69091
 This state for optimization and/or second-order correction.
 Total Energy, E(TD-HF/TD-KS) =  -1947.74613781
 Copying the excited state density for this state as the 1-particle RhoCI density.

 The electronic state is 1-A.
 Alpha  occ. eigenvalues --  -19.18101 -19.16404 -19.13674 -19.12668 -19.10769
 Alpha  occ. eigenvalues --  -19.10733 -14.38128 -14.36028 -14.34811 -14.29703
 Alpha  occ. eigenvalues --  -10.33128 -10.31906 -10.29328 -10.26803 -10.25402
 Alpha  occ. eigenvalues --  -10.24823 -10.24520 -10.24298 -10.24070 -10.23999
 Alpha  occ. eigenvalues --  -10.23682 -10.23530 -10.23121 -10.22746 -10.22677
 Alpha  occ. eigenvalues --  -10.21993 -10.21819 -10.21559 -10.21455 -10.21156
 Alpha  occ. eigenvalues --  -10.21073 -10.20588 -10.20572 -10.20475 -10.20453
 Alpha  occ. eigenvalues --  -10.20421 -10.19720 -10.19475 -10.19463 -10.19148
 Alpha  occ. eigenvalues --  -10.18811 -10.18749 -10.18607  -1.08718  -1.07740
 Alpha  occ. eigenvalues --   -1.02106  -1.01591  -0.99289  -0.98911  -0.98372
 Alpha  occ. eigenvalues --   -0.96940  -0.93738  -0.90579  -0.84911  -0.83075
 Alpha  occ. eigenvalues --   -0.82888  -0.81628  -0.80772  -0.80214  -0.79620
 Alpha  occ. eigenvalues --   -0.77630  -0.77045  -0.76259  -0.75136  -0.73263
 Alpha  occ. eigenvalues --   -0.72716  -0.71705  -0.70537  -0.69260  -0.68991
 Alpha  occ. eigenvalues --   -0.67550  -0.65749  -0.63730  -0.61542  -0.61282
 Alpha  occ. eigenvalues --   -0.59881  -0.58657  -0.58359  -0.58043  -0.57467
 Alpha  occ. eigenvalues --   -0.57030  -0.56151  -0.55194  -0.54028  -0.53189
 Alpha  occ. eigenvalues --   -0.52347  -0.51953  -0.51586  -0.50845  -0.50766
 Alpha  occ. eigenvalues --   -0.49683  -0.49163  -0.48541  -0.48532  -0.48052
 Alpha  occ. eigenvalues --   -0.47414  -0.47098  -0.47044  -0.46486  -0.46253
 Alpha  occ. eigenvalues --   -0.45906  -0.45596  -0.45380  -0.44958  -0.44742
 Alpha  occ. eigenvalues --   -0.43695  -0.43434  -0.43113  -0.43015  -0.42461
 Alpha  occ. eigenvalues --   -0.42259  -0.42075  -0.42049  -0.41811  -0.41464
 Alpha  occ. eigenvalues --   -0.40900  -0.40761  -0.40591  -0.40335  -0.40077
 Alpha  occ. eigenvalues --   -0.39870  -0.39603  -0.39515  -0.38964  -0.38652
 Alpha  occ. eigenvalues --   -0.38607  -0.38228  -0.37871  -0.37842  -0.37008
 Alpha  occ. eigenvalues --   -0.36398  -0.36079  -0.35873  -0.35765  -0.34950
 Alpha  occ. eigenvalues --   -0.34175  -0.33423  -0.32753  -0.32324  -0.31624
 Alpha  occ. eigenvalues --   -0.31242  -0.31186  -0.28845  -0.28721  -0.28347
 Alpha  occ. eigenvalues --   -0.27728  -0.26836  -0.26565  -0.26194  -0.25857
 Alpha  occ. eigenvalues --   -0.25014  -0.24321  -0.23392  -0.21812  -0.19293
 Alpha virt. eigenvalues --   -0.10902  -0.06921  -0.06324  -0.02299  -0.01491
 Alpha virt. eigenvalues --   -0.01015  -0.00545   0.00191   0.01997   0.02577
 Alpha virt. eigenvalues --    0.03217   0.04205   0.04929   0.05241   0.05597

 Mulliken charges:
               1
     1  O   -0.216413
     2  O   -0.181813
     3  O   -0.247783
     4  O   -0.234671
     5  O   -0.250162
     6  O   -0.202765
     7  N   -0.021489
     8  N   -0.205230
     9  N   -0.097947
    10  N   -0.315926
    11  C    0.106969
    12  C    0.115168
    13  C   -0.089988
    14  C   -0.112954
    15  C   -0.087921
    16  C    0.069187
    17  C   -0.202503
    18  C    0.067553
    19  C   -0.032525
    20  C   -0.099323
    21  C    0.124149
    22  C    0.182554
    23  C   -0.120290
    24  C    0.068824
    25  C    0.064582
    26  C   -0.080489
    27  C    0.073054
    28  C    0.121383
    29  C    0.109453
    30  C   -0.050337
    31  C    0.139696
    32  C   -0.013964
    33  C   -0.086275
    34  C    0.165571
    35  C    0.105980
    36  C   -0.064646
    37  C    0.130132
    38  C    0.061714
    39  C   -0.218285
    40  C    0.168319
    41  C   -0.045553
    42  C    0.082261
    43  C    0.046743
    44  H    0.004756
    45  H    0.026711
    46  H    0.015632
    47  H    0.049615
    48  H    0.077517
    49  H    0.013034
    50  H   -0.014797
    51  H   -0.002224
    52  H    0.007059
    53  H    0.038619
    54  H    0.023293
    55  H    0.087096
    56  H    0.049508
    57  H    0.039203
    58  H    0.031753
    59  H    0.005435
    60  H    0.136691
    61  H    0.011080
    62  H    0.073709
    63  H    0.030539
    64  H   -0.032074
    65  H    0.045558
    66  H    0.025543
    67  H    0.058495
    68  H    0.054407
    69  H   -0.049051
    70  H    0.010935
    71  H    0.055958
    72  H    0.139459
    73  H   -0.033379
    74  H    0.018879
    75  H    0.033455
    76  H    0.064415
    77  H    0.183238
    78  H   -0.007895
    79  H    0.003790
 Sum of Mulliken charges =   0.00000

 Dipole moment (field-independent basis, Debye):
    X=              0.0230    Y=              0.9243    Z=              2.7630  Tot=              2.9136
 Quadrupole moment (field-independent basis, Debye-Ang):
   XX=           -224.8981   YY=           -255.2884   ZZ=           -267.4717
   XY=            -11.1694   XZ=             33.6378   YZ=             -0.4088

 Normal termination of Gaussian 09 at Wed Jul 10 15:06:50 2019.
