 Gaussian 09, Revision D.01,
 Gaussian 09:  ES64L-G09RevD.01 24-Apr-2013

 --------------------------
 # td=(NStates=1) B3LYP/SVP
 --------------------------

 --
 TD
 --
 Symbolic Z-matrix:
 Charge =  0 Multiplicity = 1

                         Standard orientation:
 ---------------------------------------------------------------------
 Center     Atomic      Atomic             Coordinates (Angstroms)
 Number     Number       Type             X           Y           Z
 ---------------------------------------------------------------------
      1          8           0        5.314125   -0.058251   -3.376622
      2          8           0       -3.028671   -3.245602    2.957972
      3          8           0       -3.337288   -0.962572    3.082570
      4          8           0       -0.860745    7.204969    1.790734
      5          8           0       -0.250766    7.031541   -0.421101
      6          8           0       -2.162508   -3.941194   -0.260571
      7          7           0        2.373329    0.760718    0.575140
      8          7           0        4.339191   -0.681840   -1.298340
      9          7           0       -1.787416    0.737629   -0.394775
     10          7           0       -2.804326   -1.754528   -0.517661
     11          6           0        4.845459   -1.422826   -0.010251
     12          6           0        4.417916   -0.530659    1.238397
     13          6           0        2.969983   -0.245797    1.386590
     14          6           0        2.011556   -0.848300    2.117768
     15          6           0        0.703334   -0.274162    1.740716
     16          6           0        0.993200    0.791101    0.763088
     17          6           0        6.298540   -1.504054   -0.265803
     18          6           0       -0.502793   -0.506958    2.517465
     19          6           0        6.567607   -0.954177   -1.436117
     20          6           0        0.242892    1.900054    0.303491
     21          6           0       -0.986582    1.896968   -0.196625
     22          6           0        5.359957   -0.543171   -2.235499
     23          6           0       -1.826839    3.002479   -0.708265
     24          6           0        2.209194   -2.000316    3.164659
     25          6           0        7.062519   -2.183233    0.795826
     26          6           0       -3.006835    2.561732   -1.226766
     27          6           0       -1.108766   -1.895548    2.470590
     28          6           0       -3.025766    1.119595   -1.022559
     29          6           0       -1.272434    4.384077   -0.764764
     30          6           0        7.954126   -0.982634   -2.100448
     31          6           0       -1.260328    5.047714    0.643353
     32          6           0       -4.135566    3.395078   -1.728005
     33          6           0       -4.043769    0.251363   -1.312143
     34          6           0       -2.674659   -1.938482    2.876686
     35          6           0       -3.919129   -1.221097   -1.000292
     36          6           0        9.098759   -0.925030   -1.566295
     37          6           0       -0.747987    6.494242    0.577582
     38          6           0       -4.946975   -2.170917   -1.399434
     39          6           0       -4.432843   -3.431654   -1.041188
     40          6           0       -2.922285   -3.061481   -0.566925
     41          6           0       -6.263895   -1.933005   -2.006813
     42          6           0       -4.805711   -4.845354   -1.229440
     43          6           0       -7.076307   -2.731473   -2.685790
     44          1           0        4.227001   -2.462780    0.083753
     45          1           0        4.893083    0.345865    0.947967
     46          1           0        4.987548   -0.876164    2.229415
     47          1           0        2.854530    1.368753   -0.029375
     48          1           0        3.388885   -0.638899   -1.616848
     49          1           0       -0.504580   -0.440980    3.500508
     50          1           0       -1.273328    0.194100    2.238634
     51          1           0        0.699872    2.788066    0.323008
     52          1           0        3.304157   -1.819063    3.401671
     53          1           0        1.596330   -1.895363    3.974021
     54          1           0        2.180098   -2.954114    2.590791
     55          1           0        6.615659   -3.326912    1.171292
     56          1           0        7.352233   -1.525183    1.606939
     57          1           0        8.082911   -2.493189    0.611270
     58          1           0       -0.793106   -2.228300    1.388070
     59          1           0       -0.622006   -2.788342    3.030661
     60          1           0       -1.558449   -0.313367   -0.370288
     61          1           0       -1.834592    4.921944   -1.438867
     62          1           0       -0.258336    4.334870   -1.077398
     63          1           0        8.000318   -1.272471   -3.256493
     64          1           0       -0.517611    4.254619    1.358399
     65          1           0       -2.319415    4.949815    1.165635
     66          1           0       -3.645807    4.372947   -1.816320
     67          1           0       -5.048876    3.162858   -1.163678
     68          1           0       -4.442197    2.740129   -2.752085
     69          1           0       -4.977831    0.714533   -1.842995
     70          1           0        9.262098   -0.824959   -0.574702
     71          1           0        9.947615   -1.063240   -2.299560
     72          1           0       -3.968719   -3.099371    3.263784
     73          1           0       -6.411388   -0.799303   -1.942891
     74          1           0       -4.838785   -4.946032   -2.191122
     75          1           0       -4.264155   -5.364100   -0.527075
     76          1           0       -5.811510   -4.893666   -0.777009
     77          1           0       -0.364978    7.965916    1.634819
     78          1           0       -7.878844   -2.128546   -3.315925
     79          1           0       -6.949902   -3.789514   -2.819135
 ---------------------------------------------------------------------

 SCF Done:  E(RB3LYP) =  -1947.82336331     A.U. after   16 cycles

 Excitation energies and oscillator strengths:

 Excited State   1:      Singlet-A      2.1020 eV  589.84 nm  f=0.3608  <S**2>=0.000
     155 ->156         0.70156
 This state for optimization and/or second-order correction.
 Total Energy, E(TD-HF/TD-KS) =  -1947.74611691
 Copying the excited state density for this state as the 1-particle RhoCI density.

 The electronic state is 1-A.
 Alpha  occ. eigenvalues --  -19.18488 -19.18375 -19.14595 -19.13060 -19.10720
 Alpha  occ. eigenvalues --  -19.10374 -14.37701 -14.35791 -14.35459 -14.29859
 Alpha  occ. eigenvalues --  -10.34117 -10.31733 -10.28962 -10.26630 -10.26490
 Alpha  occ. eigenvalues --  -10.25508 -10.24861 -10.24701 -10.23962 -10.23391
 Alpha  occ. eigenvalues --  -10.22510 -10.22289 -10.22255 -10.22155 -10.22151
 Alpha  occ. eigenvalues --  -10.21222 -10.21059 -10.20911 -10.20736 -10.20610
 Alpha  occ. eigenvalues --  -10.20453 -10.20273 -10.20116 -10.19927 -10.19924
 Alpha  occ. eigenvalues --  -10.19872 -10.19692 -10.19472 -10.19304 -10.18924
 Alpha  occ. eigenvalues --  -10.17846 -10.17592 -10.16675  -1.09307  -1.09246
 Alpha  occ. eigenvalues --   -1.02719  -1.01249  -1.01034  -1.00858  -0.96968
 Alpha  occ. eigenvalues --   -0.95615  -0.93914  -0.92706  -0.83170  -0.82685
 Alpha  occ. eigenvalues --   -0.82348  -0.80958  -0.80853  -0.79711  -0.78048
 Alpha  occ. eigenvalues --   -0.77358  -0.76580  -0.75623  -0.75344  -0.72456
 Alpha  occ. eigenvalues --   -0.72182  -0.70983  -0.70701  -0.69042  -0.68634
 Alpha  occ. eigenvalues --   -0.65986  -0.65659  -0.64007  -0.60158  -0.59832
 Alpha  occ. eigenvalues --   -0.59762  -0.59497  -0.57947  -0.57694  -0.56087
 Alpha  occ. eigenvalues --   -0.55557  -0.55489  -0.55032  -0.53730  -0.52943
 Alpha  occ. eigenvalues --   -0.52355  -0.51896  -0.50908  -0.50529  -0.50213
 Alpha  occ. eigenvalues --   -0.48890  -0.48650  -0.48539  -0.48106  -0.47702
 Alpha  occ. eigenvalues --   -0.47408  -0.46992  -0.46953  -0.46867  -0.46450
 Alpha  occ. eigenvalues --   -0.45084  -0.44966  -0.44807  -0.44402  -0.44029
 Alpha  occ. eigenvalues --   -0.43789  -0.43551  -0.43430  -0.42896  -0.42618
 Alpha  occ. eigenvalues --   -0.42345  -0.42115  -0.41925  -0.41865  -0.41666
 Alpha  occ. eigenvalues --   -0.41260  -0.40984  -0.40443  -0.40072  -0.40057
 Alpha  occ. eigenvalues --   -0.39724  -0.39272  -0.39026  -0.38644  -0.38417
 Alpha  occ. eigenvalues --   -0.38043  -0.37898  -0.37664  -0.37095  -0.36871
 Alpha  occ. eigenvalues --   -0.36484  -0.35833  -0.35605  -0.35129  -0.34041
 Alpha  occ. eigenvalues --   -0.33775  -0.33302  -0.33162  -0.32553  -0.31272
 Alpha  occ. eigenvalues --   -0.31199  -0.30595  -0.29661  -0.29154  -0.28546
 Alpha  occ. eigenvalues --   -0.27920  -0.26662  -0.26154  -0.25700  -0.25540
 Alpha  occ. eigenvalues --   -0.24348  -0.23828  -0.23281  -0.22626  -0.19319
 Alpha virt. eigenvalues --   -0.10869  -0.06082  -0.05310  -0.03298  -0.01320
 Alpha virt. eigenvalues --    0.00900   0.01230   0.01754   0.02618   0.02925
 Alpha virt. eigenvalues --    0.03935   0.04132   0.05076   0.05214   0.05490

 Mulliken charges:
               1
     1  O   -0.233959
     2  O   -0.176792
     3  O   -0.207508
     4  O   -0.187627
     5  O   -0.240137
     6  O   -0.177291
     7  N   -0.106184
     8  N   -0.254715
     9  N   -0.189858
    10  N   -0.189481
    11  C    0.039959
    12  C    0.178091
    13  C   -0.041031
    14  C   -0.182731
    15  C   -0.097570
    16  C    0.103020
    17  C   -0.084903
    18  C    0.204490
    19  C   -0.069133
    20  C   -0.089503
    21  C    0.160741
    22  C    0.187301
    23  C   -0.111760
    24  C    0.157992
    25  C    0.045581
    26  C   -0.130685
    27  C   -0.155586
    28  C    0.147636
    29  C    0.192765
    30  C   -0.028354
    31  C   -0.147770
    32  C    0.084306
    33  C   -0.166702
    34  C    0.169104
    35  C    0.104981
    36  C    0.002493
    37  C    0.205158
    38  C   -0.022800
    39  C   -0.304330
    40  C    0.098920
    41  C    0.009824
    42  C    0.256224
    43  C   -0.048117
    44  H    0.057537
    45  H   -0.046595
    46  H    0.042098
    47  H    0.099338
    48  H    0.123092
    49  H   -0.046240
    50  H   -0.001574
    51  H   -0.072729
    52  H   -0.000917
    53  H    0.010825
    54  H    0.039313
    55  H    0.057040
    56  H    0.032053
    57  H    0.004621
    58  H    0.068368
    59  H    0.033116
    60  H    0.179122
    61  H   -0.017644
    62  H    0.011063
    63  H    0.040381
    64  H    0.086493
    65  H    0.070306
    66  H    0.037163
    67  H    0.043600
    68  H    0.042030
    69  H    0.008754
    70  H   -0.034446
    71  H    0.032342
    72  H    0.173011
    73  H   -0.004545
    74  H    0.006347
    75  H    0.004665
    76  H    0.006384
    77  H    0.154762
    78  H    0.045621
    79  H    0.011184
 Sum of Mulliken charges =   0.00000

 Dipole moment (field-independent basis, Debye):
    X=              0.2303    Y=              0.7382    Z=              3.5541  Tot=              3.6373
 Quadrupole moment (field-independent basis, Debye-Ang):
   XX=           -221.6355   YY=           -250.1510   ZZ=           -264.5955
   XY=            -10.3991   XZ=             32.8608   YZ=              2.5645

 Normal termination of Gaussian 09 at Tue Jul  9 00:13:05 2019.
