 Gaussian 09, Revision D.01,
 Gaussian 09:  ES64L-G09RevD.01 24-Apr-2013

 --------------------------
 # td=(NStates=1) B3LYP/SVP
 --------------------------

 --
 TD
 --
 Symbolic Z-matrix:
 Charge =  0 Multiplicity = 1

                         Standard orientation:
 ---------------------------------------------------------------------
 Center     Atomic      Atomic             Coordinates (Angstroms)
 Number     Number       Type             X           Y           Z
 ---------------------------------------------------------------------
      1          8           0        5.352453   -0.255646   -3.426524
      2          8           0       -2.727484   -3.148806    3.136580
      3          8           0       -3.318194   -0.966194    3.423805
      4          8           0       -1.748623    7.234282    1.327093
      5          8           0       -0.248970    6.809448   -0.270265
      6          8           0       -1.854566   -4.067837   -0.006521
      7          7           0        2.322084    0.886004    0.605352
      8          7           0        4.397005   -0.602324   -1.206340
      9          7           0       -1.948141    0.685412   -0.438934
     10          7           0       -2.620831   -1.890183   -0.496234
     11          6           0        4.893372   -1.147888    0.057593
     12          6           0        4.386767   -0.149473    1.208940
     13          6           0        3.013326    0.014885    1.380725
     14          6           0        2.103920   -0.561341    2.145930
     15          6           0        0.834696    0.014437    1.879337
     16          6           0        0.976988    0.917384    0.784560
     17          6           0        6.324870   -1.157418   -0.189001
     18          6           0       -0.584502   -0.194142    2.510025
     19          6           0        6.766678   -0.758041   -1.402704
     20          6           0        0.134106    1.821207    0.201849
     21          6           0       -1.185116    1.791792   -0.289333
     22          6           0        5.490669   -0.482401   -2.181249
     23          6           0       -1.981207    2.825963   -0.869415
     24          6           0        2.413692   -1.573608    3.275080
     25          6           0        7.216324   -1.678391    0.870619
     26          6           0       -3.198102    2.346403   -1.211378
     27          6           0       -0.987334   -1.640616    2.491202
     28          6           0       -3.148068    0.922405   -1.054502
     29          6           0       -1.559582    4.288561   -0.995044
     30          6           0        8.010304   -0.841931   -2.125830
     31          6           0       -1.979749    5.104596    0.202497
     32          6           0       -4.404055    3.020983   -1.830152
     33          6           0       -4.058003   -0.069580   -1.318502
     34          6           0       -2.480493   -1.841395    3.066091
     35          6           0       -3.761886   -1.381663   -0.948772
     36          6           0        9.250773   -0.904576   -1.508354
     37          6           0       -1.328474    6.506161    0.357638
     38          6           0       -4.727675   -2.528175   -1.458846
     39          6           0       -4.050266   -3.684005   -1.158597
     40          6           0       -2.770725   -3.245722   -0.476546
     41          6           0       -6.007519   -2.341364   -1.886215
     42          6           0       -4.403995   -5.097281   -1.310620
     43          6           0       -6.846663   -3.205305   -2.547401
     44          1           0        4.636573   -2.230993   -0.014133
     45          1           0        5.011866    0.743982    0.934722
     46          1           0        4.737978   -0.697289    2.135608
     47          1           0        2.557200    1.372348   -0.326325
     48          1           0        3.535918   -0.725693   -1.563981
     49          1           0       -0.327369    0.190884    3.405777
     50          1           0       -1.322554    0.534969    1.949074
     51          1           0        0.425026    2.935512   -0.328230
     52          1           0        3.331684   -1.623714    3.623924
     53          1           0        1.580097   -1.477549    4.158579
     54          1           0        2.214505   -2.669420    2.829535
     55          1           0        6.545207   -2.637833    1.170250
     56          1           0        7.320948   -0.760405    1.683448
     57          1           0        8.121914   -2.413258    0.706976
     58          1           0       -1.193071   -2.094276    1.385769
     59          1           0       -0.365875   -2.415457    2.982513
     60          1           0       -1.664559   -0.269395   -0.296102
     61          1           0       -1.911231    4.595890   -1.773069
     62          1           0       -0.475830    4.314012   -0.992998
     63          1           0        8.019806   -0.656165   -3.141658
     64          1           0       -1.832236    4.577524    1.151731
     65          1           0       -3.138804    5.173747    0.334374
     66          1           0       -4.447294    4.151406   -1.802936
     67          1           0       -5.151574    2.762694   -1.089207
     68          1           0       -4.640772    2.481495   -2.842513
     69          1           0       -5.052993    0.412724   -1.716342
     70          1           0        9.686258   -1.045151   -0.556694
     71          1           0       10.290816   -0.933101   -1.959992
     72          1           0       -3.654993   -3.393165    3.551185
     73          1           0       -6.695601   -1.458359   -1.639493
     74          1           0       -4.476268   -5.478697   -2.411746
     75          1           0       -3.609804   -5.778051   -0.686782
     76          1           0       -5.275548   -5.270161   -1.009239
     77          1           0       -1.218043    8.008054    1.388497
     78          1           0       -7.769246   -2.814768   -2.945977
     79          1           0       -6.598305   -4.349453   -3.032565
 ---------------------------------------------------------------------

 SCF Done:  E(RB3LYP) =  -1947.73184522     A.U. after   23 cycles

 Excitation energies and oscillator strengths:

 Excited State   1:      Singlet-A      2.1116 eV  587.15 nm  f=0.5110  <S**2>=0.000
     154 ->156        -0.21468
     155 ->156         0.67127
     155 <-156        -0.12083
 This state for optimization and/or second-order correction.
 Total Energy, E(TD-HF/TD-KS) =  -1947.65424379
 Copying the excited state density for this state as the 1-particle RhoCI density.

 The electronic state is 1-A.
 Alpha  occ. eigenvalues --  -19.20834 -19.17197 -19.12307 -19.10816 -19.10398
 Alpha  occ. eigenvalues --  -19.09458 -14.38148 -14.36040 -14.34687 -14.30096
 Alpha  occ. eigenvalues --  -10.33533 -10.30637 -10.29481 -10.26467 -10.25733
 Alpha  occ. eigenvalues --  -10.24454 -10.24181 -10.24089 -10.23637 -10.23373
 Alpha  occ. eigenvalues --  -10.22957 -10.22877 -10.22824 -10.22641 -10.22310
 Alpha  occ. eigenvalues --  -10.21744 -10.21253 -10.21040 -10.20984 -10.20878
 Alpha  occ. eigenvalues --  -10.20693 -10.20639 -10.20616 -10.20390 -10.19925
 Alpha  occ. eigenvalues --  -10.19903 -10.19895 -10.19700 -10.19652 -10.19485
 Alpha  occ. eigenvalues --  -10.19482 -10.19231 -10.17940  -1.13522  -1.06409
 Alpha  occ. eigenvalues --   -1.00419  -0.99838  -0.99714  -0.98054  -0.97173
 Alpha  occ. eigenvalues --   -0.95992  -0.93808  -0.91121  -0.83820  -0.83379
 Alpha  occ. eigenvalues --   -0.83058  -0.81432  -0.81173  -0.80523  -0.78635
 Alpha  occ. eigenvalues --   -0.78044  -0.76246  -0.75629  -0.75015  -0.73047
 Alpha  occ. eigenvalues --   -0.71729  -0.70851  -0.70519  -0.70158  -0.69206
 Alpha  occ. eigenvalues --   -0.67599  -0.66493  -0.64816  -0.63444  -0.62574
 Alpha  occ. eigenvalues --   -0.61291  -0.59694  -0.58475  -0.57897  -0.57698
 Alpha  occ. eigenvalues --   -0.57190  -0.56759  -0.55811  -0.54382  -0.53992
 Alpha  occ. eigenvalues --   -0.52529  -0.52129  -0.51575  -0.50896  -0.50765
 Alpha  occ. eigenvalues --   -0.49689  -0.49516  -0.48506  -0.47931  -0.47438
 Alpha  occ. eigenvalues --   -0.47254  -0.46835  -0.46154  -0.45876  -0.45345
 Alpha  occ. eigenvalues --   -0.45129  -0.45046  -0.44797  -0.44296  -0.43953
 Alpha  occ. eigenvalues --   -0.43298  -0.43115  -0.43010  -0.42727  -0.42427
 Alpha  occ. eigenvalues --   -0.42381  -0.42007  -0.41810  -0.41595  -0.41098
 Alpha  occ. eigenvalues --   -0.40658  -0.40203  -0.39464  -0.39388  -0.39100
 Alpha  occ. eigenvalues --   -0.38993  -0.38827  -0.38644  -0.38460  -0.38163
 Alpha  occ. eigenvalues --   -0.37723  -0.37302  -0.37140  -0.36806  -0.36591
 Alpha  occ. eigenvalues --   -0.35806  -0.35791  -0.35089  -0.34428  -0.34089
 Alpha  occ. eigenvalues --   -0.33266  -0.32896  -0.32286  -0.31975  -0.31753
 Alpha  occ. eigenvalues --   -0.31269  -0.29612  -0.28878  -0.27949  -0.27026
 Alpha  occ. eigenvalues --   -0.26565  -0.26384  -0.25620  -0.25410  -0.24834
 Alpha  occ. eigenvalues --   -0.24606  -0.24121  -0.23657  -0.22047  -0.19346
 Alpha virt. eigenvalues --   -0.11330  -0.06970  -0.06590  -0.01881  -0.01238
 Alpha virt. eigenvalues --   -0.00713   0.00699   0.01996   0.02337   0.03072
 Alpha virt. eigenvalues --    0.03740   0.04040   0.04592   0.04677   0.04755

 Mulliken charges:
               1
     1  O   -0.269421
     2  O   -0.202906
     3  O   -0.289600
     4  O   -0.080297
     5  O   -0.312170
     6  O   -0.303751
     7  N   -0.071356
     8  N   -0.239197
     9  N   -0.041317
    10  N   -0.238392
    11  C    0.144528
    12  C    0.180521
    13  C   -0.021940
    14  C   -0.108299
    15  C   -0.139167
    16  C    0.072113
    17  C   -0.255878
    18  C    0.193896
    19  C    0.047401
    20  C   -0.114036
    21  C   -0.007901
    22  C    0.171723
    23  C   -0.148240
    24  C    0.072807
    25  C   -0.018251
    26  C   -0.128067
    27  C   -0.089629
    28  C    0.044632
    29  C    0.331718
    30  C    0.064164
    31  C   -0.042751
    32  C    0.075330
    33  C   -0.128188
    34  C    0.157029
    35  C    0.128545
    36  C   -0.062549
    37  C    0.138978
    38  C    0.093183
    39  C   -0.157689
    40  C    0.171859
    41  C   -0.101797
    42  C    0.129209
    43  C   -0.108204
    44  H    0.036773
    45  H    0.014622
    46  H    0.004669
    47  H    0.138892
    48  H    0.092452
    49  H   -0.022884
    50  H    0.039405
    51  H    0.037618
    52  H   -0.027977
    53  H    0.045020
    54  H    0.043058
    55  H    0.019149
    56  H    0.079841
    57  H    0.060337
    58  H    0.108766
    59  H    0.033244
    60  H    0.131425
    61  H   -0.084912
    62  H   -0.003387
    63  H   -0.000872
    64  H    0.038493
    65  H    0.026931
    66  H    0.026652
    67  H    0.024340
    68  H    0.064186
    69  H    0.010134
    70  H   -0.003319
    71  H    0.015945
    72  H    0.215055
    73  H    0.022920
    74  H    0.032358
    75  H    0.055277
    76  H   -0.048195
    77  H    0.174193
    78  H    0.020086
    79  H    0.043066
 Sum of Mulliken charges =   0.00000

 Dipole moment (field-independent basis, Debye):
    X=              0.6249    Y=              3.0129    Z=              3.2295  Tot=              4.4607
 Quadrupole moment (field-independent basis, Debye-Ang):
   XX=           -212.1081   YY=           -243.6211   ZZ=           -266.5495
   XY=            -21.3532   XZ=             35.4862   YZ=              1.9053

 Normal termination of Gaussian 09 at Tue Jul  9 22:27:17 2019.
