 Gaussian 09, Revision D.01,
 Gaussian 09:  ES64L-G09RevD.01 24-Apr-2013

 --------------------------
 # td=(NStates=1) B3LYP/SVP
 --------------------------

 --
 TD
 --
 Symbolic Z-matrix:
 Charge =  0 Multiplicity = 1

                         Standard orientation:
 ---------------------------------------------------------------------
 Center     Atomic      Atomic             Coordinates (Angstroms)
 Number     Number       Type             X           Y           Z
 ---------------------------------------------------------------------
      1          8           0        5.281914   -0.297147   -3.347430
      2          8           0       -3.093995   -3.073600    3.062789
      3          8           0       -3.260698   -0.852740    3.431885
      4          8           0       -1.041087    7.161745    1.684396
      5          8           0       -0.030518    6.832868   -0.368392
      6          8           0       -2.189210   -3.977106   -0.140485
      7          7           0        2.404451    0.780656    0.706996
      8          7           0        4.380275   -0.512379   -1.175518
      9          7           0       -1.856380    0.769690   -0.313644
     10          7           0       -2.905360   -1.744241   -0.393720
     11          6           0        4.830201   -1.244345    0.000367
     12          6           0        4.486829   -0.464381    1.280907
     13          6           0        3.000156   -0.196788    1.368618
     14          6           0        1.928878   -0.947179    2.044231
     15          6           0        0.708564   -0.236321    1.766026
     16          6           0        1.033000    0.833221    0.849095
     17          6           0        6.333322   -1.480062   -0.217717
     18          6           0       -0.578929   -0.479720    2.410148
     19          6           0        6.617862   -0.959384   -1.436760
     20          6           0        0.218690    1.788848    0.196033
     21          6           0       -1.001322    1.852593   -0.165069
     22          6           0        5.395123   -0.539522   -2.136921
     23          6           0       -1.771100    2.998112   -0.807021
     24          6           0        2.216704   -1.964283    3.052186
     25          6           0        7.296570   -2.009703    0.855801
     26          6           0       -2.959140    2.496052   -1.174372
     27          6           0       -1.194803   -1.845216    2.512706
     28          6           0       -3.113185    1.066904   -0.924879
     29          6           0       -1.272752    4.378357   -0.846692
     30          6           0        7.908379   -0.971568   -2.217801
     31          6           0       -1.458304    5.089201    0.484761
     32          6           0       -4.118564    3.230169   -1.988142
     33          6           0       -4.057615    0.239865   -1.386883
     34          6           0       -2.623471   -1.802402    3.014932
     35          6           0       -3.957819   -1.171692   -1.062858
     36          6           0        9.131295   -1.134719   -1.680430
     37          6           0       -0.756081    6.521355    0.514043
     38          6           0       -4.976068   -2.240992   -1.418072
     39          6           0       -4.312286   -3.469565   -1.095704
     40          6           0       -2.997907   -3.094654   -0.524300
     41          6           0       -6.223750   -1.894287   -2.058630
     42          6           0       -4.747341   -4.886810   -1.317597
     43          6           0       -7.061988   -2.812281   -2.700435
     44          1           0        4.197653   -2.160270    0.208565
     45          1           0        5.146051    0.416250    1.063331
     46          1           0        4.924039   -1.000318    2.305321
     47          1           0        2.856446    1.440825    0.114761
     48          1           0        3.370941   -0.765925   -1.312924
     49          1           0       -0.524986   -0.130137    3.327875
     50          1           0       -1.381855    0.066051    1.981403
     51          1           0        0.939358    2.519623    0.050834
     52          1           0        3.285393   -2.090049    3.313426
     53          1           0        1.679544   -1.802334    3.982744
     54          1           0        1.907973   -2.983164    2.641452
     55          1           0        6.676692   -2.579558    1.568127
     56          1           0        7.639150   -1.083207    1.559856
     57          1           0        8.197216   -2.593793    0.327162
     58          1           0       -1.298876   -2.508465    1.596991
     59          1           0       -0.508281   -2.563840    3.037599
     60          1           0       -1.748410   -0.253273   -0.368887
     61          1           0       -1.720327    5.120617   -1.522279
     62          1           0       -0.351998    4.400217   -1.258032
     63          1           0        7.689771   -1.097858   -3.408069
     64          1           0       -0.682135    4.446317    1.201597
     65          1           0       -2.568586    5.155172    0.657457
     66          1           0       -3.771986    4.187686   -2.126789
     67          1           0       -4.948736    3.282194   -1.202338
     68          1           0       -4.311625    2.752492   -2.798224
     69          1           0       -4.889855    0.358362   -1.938918
     70          1           0        9.392722   -1.106455   -0.679630
     71          1           0        9.939425   -1.274780   -2.390884
     72          1           0       -3.993619   -2.972701    3.265828
     73          1           0       -6.338297   -0.812744   -2.097402
     74          1           0       -4.980975   -5.072486   -2.438325
     75          1           0       -3.975371   -5.495238   -0.913894
     76          1           0       -5.629053   -4.877078   -0.742930
     77          1           0       -0.685394    8.003632    1.622115
     78          1           0       -7.792469   -2.452108   -3.250595
     79          1           0       -6.770592   -3.774737   -2.864655
 ---------------------------------------------------------------------

 SCF Done:  E(RB3LYP) =  -1947.86244961     A.U. after   17 cycles

 Excitation energies and oscillator strengths:

 Excited State   1:      Singlet-A      2.0180 eV  614.40 nm  f=0.3577  <S**2>=0.000
     154 ->156         0.28195
     155 ->156         0.64780
 This state for optimization and/or second-order correction.
 Total Energy, E(TD-HF/TD-KS) =  -1947.78829048
 Copying the excited state density for this state as the 1-particle RhoCI density.

 The electronic state is 1-A.
 Alpha  occ. eigenvalues --  -19.19566 -19.15921 -19.14661 -19.11217 -19.10733
 Alpha  occ. eigenvalues --  -19.10197 -14.39243 -14.36238 -14.35892 -14.29229
 Alpha  occ. eigenvalues --  -10.33501 -10.30345 -10.29251 -10.26207 -10.25237
 Alpha  occ. eigenvalues --  -10.24810 -10.24376 -10.23927 -10.23858 -10.23613
 Alpha  occ. eigenvalues --  -10.23432 -10.23066 -10.22790 -10.22685 -10.21581
 Alpha  occ. eigenvalues --  -10.21097 -10.21093 -10.20848 -10.20426 -10.20364
 Alpha  occ. eigenvalues --  -10.20276 -10.20133 -10.19526 -10.19450 -10.19439
 Alpha  occ. eigenvalues --  -10.19388 -10.19366 -10.19290 -10.18826 -10.18560
 Alpha  occ. eigenvalues --  -10.18527 -10.18146 -10.16330  -1.11547  -1.08329
 Alpha  occ. eigenvalues --   -1.04179  -1.01980  -1.00125  -0.99632  -0.98912
 Alpha  occ. eigenvalues --   -0.96835  -0.94611  -0.91363  -0.83379  -0.82599
 Alpha  occ. eigenvalues --   -0.82118  -0.81495  -0.80160  -0.79916  -0.77923
 Alpha  occ. eigenvalues --   -0.77367  -0.76909  -0.75681  -0.75188  -0.72921
 Alpha  occ. eigenvalues --   -0.71683  -0.71486  -0.70268  -0.69464  -0.68661
 Alpha  occ. eigenvalues --   -0.67691  -0.65937  -0.64251  -0.61772  -0.61543
 Alpha  occ. eigenvalues --   -0.61258  -0.60167  -0.58882  -0.57958  -0.57246
 Alpha  occ. eigenvalues --   -0.56805  -0.56210  -0.55205  -0.53807  -0.53630
 Alpha  occ. eigenvalues --   -0.52780  -0.52126  -0.51337  -0.50706  -0.50057
 Alpha  occ. eigenvalues --   -0.49786  -0.49251  -0.48515  -0.48254  -0.47845
 Alpha  occ. eigenvalues --   -0.47506  -0.46687  -0.46609  -0.46560  -0.45969
 Alpha  occ. eigenvalues --   -0.45583  -0.45265  -0.44371  -0.44104  -0.43893
 Alpha  occ. eigenvalues --   -0.43698  -0.43285  -0.43142  -0.42945  -0.42827
 Alpha  occ. eigenvalues --   -0.42489  -0.42359  -0.41873  -0.41599  -0.41323
 Alpha  occ. eigenvalues --   -0.41159  -0.41035  -0.40860  -0.40400  -0.40079
 Alpha  occ. eigenvalues --   -0.39882  -0.39518  -0.39356  -0.38925  -0.38709
 Alpha  occ. eigenvalues --   -0.38216  -0.38012  -0.37682  -0.36937  -0.36610
 Alpha  occ. eigenvalues --   -0.36343  -0.36075  -0.35044  -0.34832  -0.34680
 Alpha  occ. eigenvalues --   -0.34169  -0.33896  -0.33615  -0.31833  -0.31484
 Alpha  occ. eigenvalues --   -0.31295  -0.30718  -0.29178  -0.28847  -0.27582
 Alpha  occ. eigenvalues --   -0.27004  -0.26684  -0.25927  -0.25922  -0.25224
 Alpha  occ. eigenvalues --   -0.24605  -0.23946  -0.23768  -0.21535  -0.19192
 Alpha virt. eigenvalues --   -0.11156  -0.06460  -0.06090  -0.01818  -0.00436
 Alpha virt. eigenvalues --   -0.00287   0.00951   0.01732   0.02405   0.03421
 Alpha virt. eigenvalues --    0.03602   0.04513   0.04763   0.05445   0.05761

 Mulliken charges:
               1
     1  O   -0.232417
     2  O   -0.152450
     3  O   -0.241743
     4  O   -0.149120
     5  O   -0.185145
     6  O   -0.249125
     7  N    0.018800
     8  N   -0.209548
     9  N   -0.142068
    10  N   -0.282824
    11  C    0.020411
    12  C    0.105485
    13  C   -0.105787
    14  C   -0.142591
    15  C   -0.080572
    16  C   -0.026494
    17  C   -0.120715
    18  C    0.216228
    19  C   -0.086437
    20  C   -0.053262
    21  C    0.205644
    22  C    0.181852
    23  C   -0.043856
    24  C    0.080896
    25  C    0.021007
    26  C   -0.217403
    27  C   -0.070165
    28  C    0.236569
    29  C    0.146054
    30  C   -0.039012
    31  C   -0.072396
    32  C    0.236253
    33  C   -0.056041
    34  C    0.141333
    35  C    0.007666
    36  C   -0.004978
    37  C    0.131453
    38  C    0.032499
    39  C   -0.230216
    40  C    0.171905
    41  C   -0.055351
    42  C    0.130853
    43  C    0.084877
    44  H    0.024896
    45  H   -0.006505
    46  H    0.041555
    47  H    0.102499
    48  H    0.154312
    49  H   -0.039416
    50  H   -0.014065
    51  H   -0.052956
    52  H   -0.006969
    53  H    0.024980
    54  H    0.035977
    55  H    0.022266
    56  H    0.061081
    57  H    0.078577
    58  H    0.055698
    59  H    0.016334
    60  H    0.141075
    61  H   -0.007704
    62  H   -0.025301
    63  H    0.066696
    64  H    0.067899
    65  H    0.051993
    66  H   -0.025117
    67  H    0.029850
    68  H   -0.010558
    69  H   -0.085526
    70  H    0.005164
    71  H    0.026268
    72  H    0.143481
    73  H   -0.010586
    74  H    0.051601
    75  H    0.022119
    76  H    0.020180
    77  H    0.149789
    78  H   -0.016870
    79  H   -0.012787
 Sum of Mulliken charges =   0.00000

 Dipole moment (field-independent basis, Debye):
    X=              1.5658    Y=              3.1837    Z=              1.9461  Tot=              4.0466
 Quadrupole moment (field-independent basis, Debye-Ang):
   XX=           -218.3763   YY=           -238.7189   ZZ=           -266.3080
   XY=            -14.7212   XZ=             38.4644   YZ=              4.3162

 Normal termination of Gaussian 09 at Mon Jul  8 13:02:54 2019.
