 Gaussian 09, Revision D.01,
 Gaussian 09:  ES64L-G09RevD.01 24-Apr-2013

 --------------------------
 # td=(NStates=1) B3LYP/SVP
 --------------------------

 --
 TD
 --
 Symbolic Z-matrix:
 Charge =  0 Multiplicity = 1

                         Standard orientation:
 ---------------------------------------------------------------------
 Center     Atomic      Atomic             Coordinates (Angstroms)
 Number     Number       Type             X           Y           Z
 ---------------------------------------------------------------------
      1          8           0        5.273971   -0.122881   -3.241885
      2          8           0       -3.123561   -3.139720    3.304737
      3          8           0       -3.270084   -0.810136    3.303510
      4          8           0       -0.875227    7.063261    1.811976
      5          8           0       -0.060295    7.004127   -0.342793
      6          8           0       -2.270946   -3.918128   -0.159140
      7          7           0        2.422154    0.688986    0.651208
      8          7           0        4.376908   -0.823935   -1.212439
      9          7           0       -1.845507    0.720377   -0.445198
     10          7           0       -2.879385   -1.654033   -0.552140
     11          6           0        4.848919   -1.459096   -0.115627
     12          6           0        4.511861   -0.670623    1.226762
     13          6           0        2.992272   -0.395020    1.346140
     14          6           0        1.994955   -0.938931    2.106464
     15          6           0        0.772418   -0.233798    1.741129
     16          6           0        1.034626    0.762293    0.878923
     17          6           0        6.275492   -1.551025   -0.295597
     18          6           0       -0.545675   -0.409985    2.517746
     19          6           0        6.621301   -1.038427   -1.421235
     20          6           0        0.301326    1.779430    0.097429
     21          6           0       -0.961354    1.835437   -0.363760
     22          6           0        5.363604   -0.571823   -2.183890
     23          6           0       -1.649946    3.068122   -0.810121
     24          6           0        2.081444   -2.046665    3.197552
     25          6           0        7.028665   -2.324967    0.801463
     26          6           0       -2.904197    2.567951   -1.261442
     27          6           0       -1.274597   -1.826582    2.414737
     28          6           0       -3.017119    1.168287   -0.973343
     29          6           0       -1.033765    4.422615   -0.751711
     30          6           0        7.903113   -0.778691   -2.140528
     31          6           0       -1.304641    5.111831    0.654552
     32          6           0       -4.002485    3.490115   -1.772302
     33          6           0       -4.043775    0.318053   -1.369551
     34          6           0       -2.680328   -1.792114    3.112627
     35          6           0       -3.899842   -1.186352   -1.056595
     36          6           0        9.141795   -1.037831   -1.677637
     37          6           0       -0.648676    6.462120    0.619658
     38          6           0       -4.952038   -2.194062   -1.499275
     39          6           0       -4.479223   -3.371396   -1.128453
     40          6           0       -3.088924   -3.060780   -0.532929
     41          6           0       -6.211771   -1.862124   -2.156288
     42          6           0       -5.043555   -4.823801   -1.321091
     43          6           0       -7.000751   -2.701511   -2.926205
     44          1           0        4.525018   -2.603452    0.074450
     45          1           0        5.062632    0.281654    1.352159
     46          1           0        4.583023   -1.162588    2.259321
     47          1           0        2.947307    1.048586   -0.079026
     48          1           0        3.380781   -0.827222   -1.635139
     49          1           0       -0.586912   -0.180868    3.552149
     50          1           0       -1.248172    0.307705    2.079068
     51          1           0        0.897718    2.741580   -0.131029
     52          1           0        3.174862   -2.037028    3.428572
     53          1           0        1.350940   -1.965105    4.087249
     54          1           0        1.842995   -3.057037    2.715194
     55          1           0        6.350530   -3.094012    1.357188
     56          1           0        7.405625   -1.490794    1.405497
     57          1           0        7.667245   -2.842347    0.456582
     58          1           0       -1.169756   -2.139421    1.208443
     59          1           0       -0.555035   -2.601945    2.795568
     60          1           0       -1.565954   -0.227790   -0.300927
     61          1           0       -1.537703    4.941497   -1.625326
     62          1           0        0.022487    4.152393   -0.856998
     63          1           0        7.699745   -0.507374   -3.276686
     64          1           0       -0.781595    4.460448    1.470343
     65          1           0       -2.349121    5.133248    0.740143
     66          1           0       -3.679380    4.610883   -1.796363
     67          1           0       -4.963321    3.295962   -1.289915
     68          1           0       -4.208636    3.249476   -2.729299
     69          1           0       -5.064589    0.684663   -1.648845
     70          1           0        9.373735   -1.328870   -0.652313
     71          1           0        9.942345   -0.862444   -2.354868
     72          1           0       -4.083175   -2.927234    3.710261
     73          1           0       -6.647339   -0.800193   -1.974984
     74          1           0       -5.048422   -5.170825   -2.414578
     75          1           0       -4.265210   -5.519758   -0.702696
     76          1           0       -6.092340   -4.963829   -0.868395
     77          1           0       -0.394027    7.952017    1.796914
     78          1           0       -8.078350   -2.279948   -3.183865
     79          1           0       -6.592781   -3.665872   -3.214697
 ---------------------------------------------------------------------

 SCF Done:  E(RB3LYP) =  -1947.86542398     A.U. after   16 cycles

 Excitation energies and oscillator strengths:

 Excited State   1:      Singlet-A      2.2030 eV  562.79 nm  f=0.4261  <S**2>=0.000
     155 ->156         0.70201
 This state for optimization and/or second-order correction.
 Total Energy, E(TD-HF/TD-KS) =  -1947.78446412
 Copying the excited state density for this state as the 1-particle RhoCI density.

 The electronic state is 1-A.
 Alpha  occ. eigenvalues --  -19.19718 -19.17072 -19.13768 -19.13632 -19.12084
 Alpha  occ. eigenvalues --  -19.11929 -14.36126 -14.35874 -14.35804 -14.30255
 Alpha  occ. eigenvalues --  -10.33375 -10.31476 -10.28822 -10.28208 -10.25047
 Alpha  occ. eigenvalues --  -10.24375 -10.23991 -10.23658 -10.22445 -10.22411
 Alpha  occ. eigenvalues --  -10.22186 -10.22138 -10.21656 -10.21503 -10.21441
 Alpha  occ. eigenvalues --  -10.21441 -10.21298 -10.21083 -10.20986 -10.20596
 Alpha  occ. eigenvalues --  -10.20573 -10.20544 -10.20276 -10.20153 -10.19940
 Alpha  occ. eigenvalues --  -10.19604 -10.19557 -10.19316 -10.19052 -10.19005
 Alpha  occ. eigenvalues --  -10.18582 -10.18307 -10.18016  -1.09445  -1.08561
 Alpha  occ. eigenvalues --   -1.07033  -1.01622  -0.99938  -0.99450  -0.97552
 Alpha  occ. eigenvalues --   -0.97370  -0.96455  -0.95015  -0.82898  -0.82447
 Alpha  occ. eigenvalues --   -0.81026  -0.80727  -0.79577  -0.78727  -0.77809
 Alpha  occ. eigenvalues --   -0.76420  -0.74763  -0.74064  -0.73501  -0.72426
 Alpha  occ. eigenvalues --   -0.72202  -0.70799  -0.69174  -0.68758  -0.68268
 Alpha  occ. eigenvalues --   -0.65786  -0.64876  -0.63611  -0.60742  -0.60590
 Alpha  occ. eigenvalues --   -0.59429  -0.58212  -0.57896  -0.57235  -0.56063
 Alpha  occ. eigenvalues --   -0.55473  -0.54852  -0.54479  -0.53999  -0.52517
 Alpha  occ. eigenvalues --   -0.52123  -0.51741  -0.51184  -0.50442  -0.49947
 Alpha  occ. eigenvalues --   -0.48862  -0.48722  -0.48417  -0.47779  -0.47515
 Alpha  occ. eigenvalues --   -0.47160  -0.46820  -0.46590  -0.45951  -0.45576
 Alpha  occ. eigenvalues --   -0.44750  -0.44714  -0.44586  -0.43980  -0.43650
 Alpha  occ. eigenvalues --   -0.43180  -0.42984  -0.42619  -0.41941  -0.41882
 Alpha  occ. eigenvalues --   -0.41597  -0.41473  -0.41359  -0.41105  -0.40875
 Alpha  occ. eigenvalues --   -0.40293  -0.40252  -0.40095  -0.40004  -0.39792
 Alpha  occ. eigenvalues --   -0.39629  -0.39295  -0.39141  -0.38845  -0.38735
 Alpha  occ. eigenvalues --   -0.38150  -0.37992  -0.37601  -0.37267  -0.36079
 Alpha  occ. eigenvalues --   -0.35918  -0.35700  -0.35266  -0.35022  -0.34612
 Alpha  occ. eigenvalues --   -0.34272  -0.33120  -0.32890  -0.32065  -0.31966
 Alpha  occ. eigenvalues --   -0.31479  -0.30739  -0.29538  -0.29071  -0.28572
 Alpha  occ. eigenvalues --   -0.28424  -0.27542  -0.26909  -0.25411  -0.25096
 Alpha  occ. eigenvalues --   -0.24509  -0.23942  -0.23871  -0.23374  -0.18941
 Alpha virt. eigenvalues --   -0.10112  -0.06311  -0.04589  -0.01805  -0.00981
 Alpha virt. eigenvalues --    0.00611   0.01445   0.01768   0.02997   0.03279
 Alpha virt. eigenvalues --    0.03868   0.04215   0.04767   0.04984   0.05297

 Mulliken charges:
               1
     1  O   -0.131583
     2  O   -0.271754
     3  O   -0.159304
     4  O   -0.199185
     5  O   -0.256774
     6  O   -0.205767
     7  N   -0.091021
     8  N   -0.200077
     9  N   -0.077798
    10  N   -0.180654
    11  C    0.076220
    12  C    0.159509
    13  C   -0.140814
    14  C   -0.114205
    15  C   -0.148231
    16  C    0.129539
    17  C   -0.219827
    18  C    0.084131
    19  C   -0.094639
    20  C   -0.123210
    21  C    0.094434
    22  C    0.122002
    23  C   -0.105078
    24  C    0.061702
    25  C    0.238775
    26  C   -0.166435
    27  C   -0.124798
    28  C    0.162834
    29  C    0.095499
    30  C   -0.029764
    31  C    0.011752
    32  C    0.141827
    33  C   -0.126610
    34  C    0.188097
    35  C   -0.008910
    36  C   -0.010532
    37  C    0.170403
    38  C    0.049295
    39  C   -0.181286
    40  C    0.163623
    41  C   -0.076955
    42  C   -0.011218
    43  C   -0.036742
    44  H    0.032327
    45  H    0.001827
    46  H    0.008513
    47  H    0.079823
    48  H    0.156030
    49  H   -0.006996
    50  H   -0.000718
    51  H    0.004638
    52  H    0.003962
    53  H    0.048045
    54  H    0.043781
    55  H    0.025325
    56  H    0.036565
    57  H   -0.072637
    58  H    0.099875
    59  H    0.016518
    60  H    0.138095
    61  H    0.041397
    62  H    0.020183
    63  H    0.042222
    64  H    0.073391
    65  H    0.037556
    66  H    0.026298
    67  H    0.020293
    68  H   -0.013534
    69  H   -0.009468
    70  H    0.014698
    71  H    0.017606
    72  H    0.198369
    73  H    0.022060
    74  H    0.057202
    75  H    0.057360
    76  H    0.046714
    77  H    0.201366
    78  H    0.052592
    79  H    0.022254
 Sum of Mulliken charges =   0.00000

 Dipole moment (field-independent basis, Debye):
    X=             -0.2596    Y=              1.7619    Z=              2.4001  Tot=              2.9887
 Quadrupole moment (field-independent basis, Debye-Ang):
   XX=           -219.2141   YY=           -246.8362   ZZ=           -260.7686
   XY=            -12.9983   XZ=             25.7565   YZ=              8.1806

 Normal termination of Gaussian 09 at Mon Jul  8 07:47:00 2019.
