 Gaussian 09, Revision D.01,
 Gaussian 09:  ES64L-G09RevD.01 24-Apr-2013

 --------------------------
 # td=(NStates=1) B3LYP/SVP
 --------------------------

 --
 TD
 --
 Symbolic Z-matrix:
 Charge =  0 Multiplicity = 1

                         Standard orientation:
 ---------------------------------------------------------------------
 Center     Atomic      Atomic             Coordinates (Angstroms)
 Number     Number       Type             X           Y           Z
 ---------------------------------------------------------------------
      1          8           0        5.302451   -0.317318   -3.460252
      2          8           0       -2.836140   -3.077019    3.388131
      3          8           0       -3.081822   -0.807299    3.565055
      4          8           0       -1.231893    7.223608    1.479542
      5          8           0       -0.276730    6.901001   -0.451718
      6          8           0       -1.978542   -3.963273   -0.041122
      7          7           0        2.332673    0.828948    0.575769
      8          7           0        4.406792   -0.498254   -1.332637
      9          7           0       -1.986888    0.683189   -0.308563
     10          7           0       -2.714333   -1.815389   -0.498777
     11          6           0        4.780079   -1.183779   -0.115978
     12          6           0        4.488014   -0.381159    1.192076
     13          6           0        3.024094   -0.121430    1.343068
     14          6           0        2.070690   -0.623178    2.175474
     15          6           0        0.829947   -0.004926    1.859729
     16          6           0        0.988066    0.941146    0.805530
     17          6           0        6.306739   -1.394085   -0.236514
     18          6           0       -0.429839   -0.355977    2.733275
     19          6           0        6.671545   -0.959985   -1.528132
     20          6           0        0.085451    1.997392    0.266616
     21          6           0       -1.141144    1.781795   -0.229366
     22          6           0        5.394074   -0.506918   -2.252894
     23          6           0       -1.945352    2.933408   -0.825791
     24          6           0        2.315004   -1.704025    3.192671
     25          6           0        7.151277   -1.995419    0.847332
     26          6           0       -3.055107    2.450458   -1.317829
     27          6           0       -1.013787   -1.671433    2.485376
     28          6           0       -3.169172    1.041226   -1.056314
     29          6           0       -1.409848    4.261019   -0.851069
     30          6           0        7.981828   -0.968650   -2.174006
     31          6           0       -1.678911    5.057239    0.368214
     32          6           0       -4.170606    3.117074   -2.004210
     33          6           0       -4.117508    0.077730   -1.293947
     34          6           0       -2.482925   -1.778109    3.234279
     35          6           0       -3.865712   -1.267061   -1.006993
     36          6           0        9.157241   -1.107200   -1.539058
     37          6           0       -1.018396    6.511491    0.373938
     38          6           0       -4.838026   -2.469429   -1.516230
     39          6           0       -4.200212   -3.633249   -1.141945
     40          6           0       -2.914605   -3.261663   -0.538784
     41          6           0       -6.135445   -2.156671   -2.138257
     42          6           0       -4.644038   -5.058890   -1.534682
     43          6           0       -7.130124   -3.129804   -2.441359
     44          1           0        4.275562   -2.150007   -0.269254
     45          1           0        5.247566    0.460202    1.340564
     46          1           0        4.821593   -1.019721    2.043268
     47          1           0        2.735133    1.628092    0.054982
     48          1           0        3.460052   -0.591800   -1.550964
     49          1           0       -0.239461   -0.371347    3.730848
     50          1           0       -1.088139    0.555563    2.484616
     51          1           0        0.686102    2.876378   -0.000275
     52          1           0        3.286287   -1.683512    3.589970
     53          1           0        1.473581   -1.655580    4.065452
     54          1           0        2.204412   -2.689599    2.877626
     55          1           0        6.470498   -2.547132    1.493330
     56          1           0        7.352396   -1.271133    1.589481
     57          1           0        7.953734   -2.519018    0.450797
     58          1           0       -1.078285   -2.039304    1.428648
     59          1           0       -0.567489   -2.451033    3.030045
     60          1           0       -1.666527   -0.273373   -0.038150
     61          1           0       -1.641298    4.928738   -1.938909
     62          1           0       -0.351519    4.312054   -0.797102
     63          1           0        7.889012   -1.214177   -3.282369
     64          1           0       -1.209765    4.764350    1.356059
     65          1           0       -2.975307    5.262188    0.529726
     66          1           0       -3.730714    3.982286   -2.375533
     67          1           0       -5.222634    3.252685   -1.347183
     68          1           0       -4.354392    2.586013   -3.016755
     69          1           0       -5.138659    0.476259   -1.538956
     70          1           0        9.355360   -0.846082   -0.401247
     71          1           0        9.976737   -1.025171   -2.030222
     72          1           0       -3.847499   -2.995971    3.376881
     73          1           0       -6.395606   -1.079042   -2.330317
     74          1           0       -4.950927   -5.137599   -2.652399
     75          1           0       -3.699115   -5.894892   -1.281802
     76          1           0       -5.571766   -5.438638   -0.679482
     77          1           0       -0.995893    8.094581    1.163512
     78          1           0       -8.064405   -2.681443   -2.837754
     79          1           0       -7.144671   -4.292517   -1.930104
 ---------------------------------------------------------------------

 SCF Done:  E(RB3LYP) =  -1947.80727883     A.U. after   16 cycles

 Excitation energies and oscillator strengths:

 Excited State   1:      Singlet-A      1.9967 eV  620.94 nm  f=0.3321  <S**2>=0.000
     155 ->156         0.70050
 This state for optimization and/or second-order correction.
 Total Energy, E(TD-HF/TD-KS) =  -1947.73390022
 Copying the excited state density for this state as the 1-particle RhoCI density.

 The electronic state is 1-A.
 Alpha  occ. eigenvalues --  -19.19100 -19.17542 -19.13839 -19.11999 -19.11017
 Alpha  occ. eigenvalues --  -19.09047 -14.37687 -14.36881 -14.34760 -14.30685
 Alpha  occ. eigenvalues --  -10.32884 -10.30498 -10.27951 -10.27811 -10.25663
 Alpha  occ. eigenvalues --  -10.24814 -10.24795 -10.24703 -10.24225 -10.23661
 Alpha  occ. eigenvalues --  -10.23022 -10.22845 -10.22725 -10.22521 -10.22439
 Alpha  occ. eigenvalues --  -10.22330 -10.22324 -10.22179 -10.22161 -10.21629
 Alpha  occ. eigenvalues --  -10.21512 -10.21376 -10.20816 -10.20377 -10.20286
 Alpha  occ. eigenvalues --  -10.20125 -10.19934 -10.18866 -10.18615 -10.18362
 Alpha  occ. eigenvalues --  -10.17977 -10.17556 -10.17392  -1.12938  -1.08330
 Alpha  occ. eigenvalues --   -1.02964  -1.01612  -1.00468  -0.99237  -0.97731
 Alpha  occ. eigenvalues --   -0.97128  -0.94311  -0.90032  -0.84612  -0.82382
 Alpha  occ. eigenvalues --   -0.81777  -0.80458  -0.80051  -0.79479  -0.78420
 Alpha  occ. eigenvalues --   -0.77253  -0.76083  -0.75156  -0.74398  -0.72458
 Alpha  occ. eigenvalues --   -0.71877  -0.70660  -0.69428  -0.68697  -0.67790
 Alpha  occ. eigenvalues --   -0.65733  -0.64952  -0.64137  -0.62147  -0.61329
 Alpha  occ. eigenvalues --   -0.60141  -0.58741  -0.57264  -0.57199  -0.56890
 Alpha  occ. eigenvalues --   -0.55989  -0.55331  -0.54772  -0.53551  -0.53313
 Alpha  occ. eigenvalues --   -0.51809  -0.50945  -0.50667  -0.50418  -0.50076
 Alpha  occ. eigenvalues --   -0.49477  -0.48781  -0.48344  -0.47921  -0.47817
 Alpha  occ. eigenvalues --   -0.47397  -0.46854  -0.46684  -0.46249  -0.45873
 Alpha  occ. eigenvalues --   -0.45763  -0.45227  -0.44373  -0.44260  -0.43950
 Alpha  occ. eigenvalues --   -0.43547  -0.43220  -0.43053  -0.42611  -0.42592
 Alpha  occ. eigenvalues --   -0.42230  -0.41901  -0.41566  -0.41433  -0.41358
 Alpha  occ. eigenvalues --   -0.40655  -0.40201  -0.39713  -0.39434  -0.39368
 Alpha  occ. eigenvalues --   -0.39089  -0.39005  -0.38722  -0.38534  -0.38334
 Alpha  occ. eigenvalues --   -0.38143  -0.37775  -0.37311  -0.37157  -0.36796
 Alpha  occ. eigenvalues --   -0.36184  -0.35808  -0.34576  -0.34463  -0.34246
 Alpha  occ. eigenvalues --   -0.33871  -0.33703  -0.33327  -0.32168  -0.31665
 Alpha  occ. eigenvalues --   -0.30917  -0.30809  -0.29224  -0.28928  -0.27375
 Alpha  occ. eigenvalues --   -0.26930  -0.26411  -0.26199  -0.24817  -0.24642
 Alpha  occ. eigenvalues --   -0.24371  -0.23756  -0.23559  -0.22965  -0.19771
 Alpha virt. eigenvalues --   -0.11564  -0.07429  -0.05296  -0.02384  -0.00186
 Alpha virt. eigenvalues --    0.00901   0.01034   0.01919   0.02057   0.02960
 Alpha virt. eigenvalues --    0.03510   0.03776   0.04266   0.04463   0.04983

 Mulliken charges:
               1
     1  O   -0.233934
     2  O   -0.197120
     3  O   -0.196512
     4  O   -0.153253
     5  O   -0.195928
     6  O   -0.234254
     7  N   -0.100388
     8  N   -0.130427
     9  N   -0.147493
    10  N   -0.303749
    11  C    0.070616
    12  C    0.158180
    13  C   -0.055013
    14  C   -0.087086
    15  C   -0.128954
    16  C   -0.021316
    17  C   -0.218268
    18  C    0.141679
    19  C   -0.089888
    20  C   -0.119807
    21  C    0.190831
    22  C    0.134068
    23  C   -0.030607
    24  C    0.111415
    25  C    0.201639
    26  C   -0.133720
    27  C   -0.030300
    28  C    0.155118
    29  C    0.081448
    30  C   -0.024098
    31  C   -0.119018
    32  C    0.099647
    33  C   -0.148103
    34  C    0.112846
    35  C    0.110894
    36  C    0.004804
    37  C    0.102456
    38  C    0.033189
    39  C   -0.135239
    40  C    0.185364
    41  C   -0.053195
    42  C   -0.084679
    43  C   -0.068880
    44  H    0.027538
    45  H    0.022861
    46  H   -0.019880
    47  H    0.118499
    48  H    0.107490
    49  H   -0.035737
    50  H    0.018714
    51  H   -0.001269
    52  H   -0.009864
    53  H    0.021154
    54  H    0.008200
    55  H   -0.007937
    56  H    0.004547
    57  H    0.033364
    58  H    0.079764
    59  H   -0.006093
    60  H    0.177436
    61  H    0.065018
    62  H   -0.014451
    63  H    0.040691
    64  H    0.067879
    65  H    0.060477
    66  H   -0.022149
    67  H    0.073274
    68  H    0.027399
    69  H    0.008154
    70  H    0.032577
    71  H   -0.031553
    72  H    0.190732
    73  H    0.022124
    74  H    0.074334
    75  H    0.068629
    76  H    0.058080
    77  H    0.168462
    78  H    0.036859
    79  H    0.081713
 Sum of Mulliken charges =   0.00000

 Dipole moment (field-independent basis, Debye):
    X=             -2.3291    Y=              2.9014    Z=              1.9645  Tot=              4.2074
 Quadrupole moment (field-independent basis, Debye-Ang):
   XX=           -213.8063   YY=           -241.2510   ZZ=           -272.8787
   XY=             -8.6024   XZ=             39.8451   YZ=             -0.3290

 Normal termination of Gaussian 09 at Wed Jul 10 04:01:07 2019.
