 Gaussian 09, Revision D.01,
 Gaussian 09:  ES64L-G09RevD.01 24-Apr-2013

 --------------------------
 # td=(NStates=1) B3LYP/SVP
 --------------------------

 --
 TD
 --
 Symbolic Z-matrix:
 Charge =  0 Multiplicity = 1

                         Standard orientation:
 ---------------------------------------------------------------------
 Center     Atomic      Atomic             Coordinates (Angstroms)
 Number     Number       Type             X           Y           Z
 ---------------------------------------------------------------------
      1          8           0        5.282603   -0.450595   -3.367407
      2          8           0       -2.884326   -2.846744    3.479774
      3          8           0       -3.074140   -0.566980    3.510835
      4          8           0       -1.709249    7.448283    1.176451
      5          8           0       -0.699212    6.902408   -0.754493
      6          8           0       -1.720583   -4.093059    0.045533
      7          7           0        2.288675    1.000564    0.435062
      8          7           0        4.384262   -0.662402   -1.231624
      9          7           0       -1.909735    0.623683   -0.313911
     10          7           0       -2.577183   -2.003179   -0.426469
     11          6           0        4.901045   -1.076918    0.079758
     12          6           0        4.531556   -0.002411    1.206024
     13          6           0        3.075096    0.247156    1.387405
     14          6           0        2.004723   -0.365679    2.141018
     15          6           0        0.826875    0.086684    1.799127
     16          6           0        0.980912    0.993694    0.734403
     17          6           0        6.375383   -1.260353   -0.118989
     18          6           0       -0.503250   -0.163826    2.584035
     19          6           0        6.642720   -0.967104   -1.373519
     20          6           0        0.115453    1.914940    0.018222
     21          6           0       -1.160812    1.855077   -0.330771
     22          6           0        5.397644   -0.624835   -2.157184
     23          6           0       -2.053710    2.806241   -0.904036
     24          6           0        2.381164   -1.456689    3.125342
     25          6           0        7.285888   -1.658924    1.043738
     26          6           0       -3.269612    2.207631   -1.252190
     27          6           0       -1.052357   -1.588624    2.617200
     28          6           0       -3.154466    0.802504   -0.942772
     29          6           0       -1.674709    4.321285   -0.985072
     30          6           0        7.938692   -0.883320   -2.181742
     31          6           0       -1.900498    5.168919    0.266732
     32          6           0       -4.510255    2.794038   -1.936052
     33          6           0       -4.075172   -0.195013   -1.255003
     34          6           0       -2.447598   -1.550717    3.202120
     35          6           0       -3.707053   -1.595407   -1.002784
     36          6           0        9.206767   -0.894672   -1.575244
     37          6           0       -1.329976    6.464531    0.151202
     38          6           0       -4.650363   -2.788287   -1.372407
     39          6           0       -3.886518   -3.832456   -1.042558
     40          6           0       -2.594462   -3.363451   -0.355743
     41          6           0       -6.051849   -2.491421   -1.921022
     42          6           0       -4.288469   -5.268937   -1.211913
     43          6           0       -6.707827   -3.572955   -2.664814
     44          1           0        4.520334   -2.053414    0.269156
     45          1           0        4.895704    0.978799    0.932869
     46          1           0        4.950652   -0.327271    2.148510
     47          1           0        2.777993    1.441402   -0.309107
     48          1           0        3.356714   -0.629915   -1.559949
     49          1           0       -0.222996    0.346030    3.526675
     50          1           0       -1.247517    0.442908    2.012185
     51          1           0        0.703420    2.740003   -0.205973
     52          1           0        3.310138   -1.524763    3.729218
     53          1           0        1.523909   -1.370802    4.073570
     54          1           0        1.954706   -2.397996    2.701722
     55          1           0        6.693273   -2.392170    1.673804
     56          1           0        7.546667   -0.822624    1.810735
     57          1           0        8.042702   -2.517034    0.586947
     58          1           0       -1.222052   -2.336356    1.678629
     59          1           0       -0.247056   -2.294107    3.094608
     60          1           0       -1.672565   -0.308044   -0.355338
     61          1           0       -2.380688    4.734882   -1.730110
     62          1           0       -0.727390    4.444123   -1.426830
     63          1           0        7.888403   -0.936182   -3.420148
     64          1           0       -1.299559    4.805829    1.231190
     65          1           0       -2.805284    5.071425    0.682614
     66          1           0       -4.488820    3.848508   -2.081614
     67          1           0       -5.435089    2.624472   -1.345156
     68          1           0       -4.692887    2.423459   -2.915898
     69          1           0       -5.119663   -0.124489   -1.712499
     70          1           0        9.228032   -0.621567   -0.436392
     71          1           0       10.002398   -0.639562   -2.335750
     72          1           0       -3.874809   -2.773697    3.676555
     73          1           0       -6.418123   -1.548552   -1.822507
     74          1           0       -3.970670   -5.857113   -2.350433
     75          1           0       -3.777081   -5.936630   -0.438193
     76          1           0       -5.434903   -5.296203   -1.102561
     77          1           0       -1.069393    8.150068    0.987298
     78          1           0       -7.795255   -3.162586   -2.675849
     79          1           0       -6.225895   -4.402197   -3.193975
 ---------------------------------------------------------------------

 SCF Done:  E(RB3LYP) =  -1947.83293533     A.U. after   16 cycles

 Excitation energies and oscillator strengths:

 Excited State   1:      Singlet-A      2.1553 eV  575.25 nm  f=0.5181  <S**2>=0.000
     155 ->156         0.70106
     155 <-156        -0.10212
 This state for optimization and/or second-order correction.
 Total Energy, E(TD-HF/TD-KS) =  -1947.75372883
 Copying the excited state density for this state as the 1-particle RhoCI density.

 The electronic state is 1-A.
 Alpha  occ. eigenvalues --  -19.16208 -19.16139 -19.14237 -19.11851 -19.11004
 Alpha  occ. eigenvalues --  -19.09978 -14.38715 -14.36275 -14.35920 -14.29624
 Alpha  occ. eigenvalues --  -10.32791 -10.30758 -10.28468 -10.27049 -10.25405
 Alpha  occ. eigenvalues --  -10.25295 -10.24726 -10.24324 -10.23557 -10.23361
 Alpha  occ. eigenvalues --  -10.23289 -10.22676 -10.22485 -10.22446 -10.22392
 Alpha  occ. eigenvalues --  -10.22275 -10.22198 -10.22173 -10.22086 -10.21885
 Alpha  occ. eigenvalues --  -10.21807 -10.21320 -10.20966 -10.20749 -10.20648
 Alpha  occ. eigenvalues --  -10.20524 -10.20506 -10.20397 -10.20212 -10.19661
 Alpha  occ. eigenvalues --  -10.19477 -10.19073 -10.18488  -1.09192  -1.06619
 Alpha  occ. eigenvalues --   -1.02620  -1.01966  -0.99310  -0.98990  -0.98590
 Alpha  occ. eigenvalues --   -0.97383  -0.94178  -0.92684  -0.83649  -0.82272
 Alpha  occ. eigenvalues --   -0.82092  -0.81908  -0.80185  -0.79784  -0.79473
 Alpha  occ. eigenvalues --   -0.76661  -0.75912  -0.74936  -0.74116  -0.72965
 Alpha  occ. eigenvalues --   -0.71498  -0.70982  -0.69776  -0.69152  -0.68107
 Alpha  occ. eigenvalues --   -0.66684  -0.66518  -0.63939  -0.60524  -0.59881
 Alpha  occ. eigenvalues --   -0.59390  -0.58839  -0.58388  -0.58046  -0.57088
 Alpha  occ. eigenvalues --   -0.56853  -0.55841  -0.55474  -0.53857  -0.53486
 Alpha  occ. eigenvalues --   -0.52773  -0.52120  -0.51674  -0.50147  -0.49547
 Alpha  occ. eigenvalues --   -0.49143  -0.48271  -0.48022  -0.47894  -0.47551
 Alpha  occ. eigenvalues --   -0.47019  -0.46891  -0.46531  -0.46134  -0.45658
 Alpha  occ. eigenvalues --   -0.45557  -0.44889  -0.44394  -0.44259  -0.44169
 Alpha  occ. eigenvalues --   -0.43432  -0.43099  -0.42843  -0.42607  -0.42446
 Alpha  occ. eigenvalues --   -0.42255  -0.42009  -0.41765  -0.41676  -0.41459
 Alpha  occ. eigenvalues --   -0.41090  -0.40787  -0.40418  -0.40118  -0.39942
 Alpha  occ. eigenvalues --   -0.39757  -0.39224  -0.39012  -0.38741  -0.38060
 Alpha  occ. eigenvalues --   -0.37939  -0.37795  -0.37568  -0.37201  -0.36928
 Alpha  occ. eigenvalues --   -0.36337  -0.35844  -0.35509  -0.34964  -0.34377
 Alpha  occ. eigenvalues --   -0.33941  -0.32928  -0.32035  -0.31524  -0.31381
 Alpha  occ. eigenvalues --   -0.30926  -0.30817  -0.29200  -0.28678  -0.27296
 Alpha  occ. eigenvalues --   -0.27089  -0.26757  -0.26726  -0.25874  -0.25438
 Alpha  occ. eigenvalues --   -0.24824  -0.24637  -0.23974  -0.22814  -0.19556
 Alpha virt. eigenvalues --   -0.11116  -0.07157  -0.05847  -0.03352  -0.01411
 Alpha virt. eigenvalues --   -0.00002   0.00538   0.00886   0.02464   0.03443
 Alpha virt. eigenvalues --    0.03616   0.04027   0.04512   0.04929   0.05247

 Mulliken charges:
               1
     1  O   -0.233934
     2  O   -0.243404
     3  O   -0.220599
     4  O   -0.276024
     5  O   -0.192468
     6  O   -0.190394
     7  N   -0.094557
     8  N   -0.251015
     9  N   -0.100674
    10  N   -0.241383
    11  C    0.142159
    12  C    0.229222
    13  C   -0.114217
    14  C   -0.111382
    15  C   -0.099587
    16  C    0.049221
    17  C   -0.175740
    18  C    0.137746
    19  C   -0.062057
    20  C   -0.105536
    21  C    0.213213
    22  C    0.152114
    23  C   -0.116842
    24  C    0.004684
    25  C    0.014302
    26  C   -0.124300
    27  C   -0.107189
    28  C    0.140664
    29  C    0.143668
    30  C   -0.076786
    31  C    0.075625
    32  C    0.140382
    33  C   -0.119573
    34  C    0.174216
    35  C   -0.008227
    36  C   -0.066343
    37  C    0.136975
    38  C    0.040240
    39  C   -0.191662
    40  C    0.154786
    41  C   -0.011190
    42  C   -0.038775
    43  C   -0.033851
    44  H    0.015071
    45  H   -0.005585
    46  H   -0.004856
    47  H    0.100204
    48  H    0.158713
    49  H    0.032469
    50  H    0.016389
    51  H   -0.038175
    52  H    0.038664
    53  H    0.016275
    54  H    0.048968
    55  H    0.012559
    56  H    0.073453
    57  H    0.072965
    58  H    0.100121
    59  H    0.036469
    60  H    0.101396
    61  H    0.009274
    62  H    0.009555
    63  H    0.072702
    64  H    0.057525
    65  H   -0.001851
    66  H   -0.006639
    67  H    0.025806
    68  H    0.021290
    69  H    0.000184
    70  H    0.054749
    71  H    0.045763
    72  H    0.191308
    73  H   -0.017439
    74  H    0.049701
    75  H    0.042545
    76  H    0.040835
    77  H    0.173199
    78  H    0.047437
    79  H    0.067446
 Sum of Mulliken charges =   0.00000

 Dipole moment (field-independent basis, Debye):
    X=              0.0687    Y=              2.1475    Z=              1.6603  Tot=              2.7153
 Quadrupole moment (field-independent basis, Debye-Ang):
   XX=           -220.3355   YY=           -263.2744   ZZ=           -268.5024
   XY=             -0.5070   XZ=             38.8246   YZ=             -0.4558

 Normal termination of Gaussian 09 at Mon Jul  8 19:52:29 2019.
