 Gaussian 09, Revision D.01,
 Gaussian 09:  ES64L-G09RevD.01 24-Apr-2013

 --------------------------
 # td=(NStates=1) B3LYP/SVP
 --------------------------

 --
 TD
 --
 Symbolic Z-matrix:
 Charge =  0 Multiplicity = 1

                         Standard orientation:
 ---------------------------------------------------------------------
 Center     Atomic      Atomic             Coordinates (Angstroms)
 Number     Number       Type             X           Y           Z
 ---------------------------------------------------------------------
      1          8           0        5.481088   -0.101470   -3.347792
      2          8           0       -2.875506   -2.960484    3.363885
      3          8           0       -3.108940   -0.768037    3.321803
      4          8           0       -1.623850    7.191949    1.492421
      5          8           0       -0.829083    7.076298   -0.564605
      6          8           0       -2.053873   -4.111206   -0.029415
      7          7           0        2.316768    0.865164    0.491025
      8          7           0        4.553097   -0.593914   -1.300484
      9          7           0       -1.843378    0.659275   -0.421852
     10          7           0       -2.727191   -1.895730   -0.534104
     11          6           0        4.875184   -1.162405   -0.031293
     12          6           0        4.446733   -0.342681    1.124750
     13          6           0        2.984754   -0.092185    1.285328
     14          6           0        1.996948   -0.635143    2.085891
     15          6           0        0.698642   -0.032478    1.839744
     16          6           0        0.908104    0.927562    0.844191
     17          6           0        6.437342   -1.433688   -0.229158
     18          6           0       -0.561365   -0.292731    2.506951
     19          6           0        6.822232   -0.932829   -1.428049
     20          6           0        0.197148    1.928195    0.139869
     21          6           0       -1.073469    1.790888   -0.377807
     22          6           0        5.620873   -0.508054   -2.203598
     23          6           0       -1.958274    2.980527   -0.858293
     24          6           0        2.308796   -1.539391    3.247821
     25          6           0        7.272844   -1.879760    0.884901
     26          6           0       -3.181787    2.392279   -1.144223
     27          6           0       -1.097675   -1.728473    2.556182
     28          6           0       -3.121753    0.894572   -0.985439
     29          6           0       -1.552317    4.318958   -0.956972
     30          6           0        8.122968   -0.796051   -1.976314
     31          6           0       -1.782744    5.034577    0.401951
     32          6           0       -4.484086    3.011116   -1.691834
     33          6           0       -4.062087   -0.085662   -1.309553
     34          6           0       -2.446876   -1.700014    3.219805
     35          6           0       -3.804996   -1.435074   -0.982818
     36          6           0        9.265038   -0.536720   -1.394309
     37          6           0       -1.464078    6.539529    0.333654
     38          6           0       -4.679204   -2.584415   -1.444000
     39          6           0       -4.069766   -3.692591   -1.058081
     40          6           0       -2.821387   -3.386042   -0.456178
     41          6           0       -5.953031   -2.418286   -2.325355
     42          6           0       -4.390832   -5.235606   -1.157091
     43          6           0       -6.752182   -3.342032   -2.782359
     44          1           0        4.338427   -2.191622    0.084542
     45          1           0        4.991602    0.627250    1.247731
     46          1           0        4.721800   -0.864029    1.928338
     47          1           0        2.805485    1.485819   -0.128378
     48          1           0        3.443748   -0.434540   -1.692611
     49          1           0       -0.332693    0.145588    3.506972
     50          1           0       -1.451597    0.302571    1.961778
     51          1           0        0.732421    2.924252   -0.087904
     52          1           0        3.297747   -1.521656    3.641210
     53          1           0        1.535962   -1.274437    4.080035
     54          1           0        2.042548   -2.534669    3.067249
     55          1           0        6.598471   -2.669056    1.411952
     56          1           0        7.478051   -1.039096    1.344273
     57          1           0        8.249284   -2.360647    0.515629
     58          1           0       -1.372662   -2.051824    1.525956
     59          1           0       -0.285205   -2.411207    3.040767
     60          1           0       -1.435457   -0.201712   -0.375771
     61          1           0       -2.297095    5.000775   -1.577621
     62          1           0       -0.567773    4.526053   -1.090073
     63          1           0        8.092278   -0.709605   -3.053470
     64          1           0       -1.183308    4.605338    1.327406
     65          1           0       -2.934402    4.844883    0.550327
     66          1           0       -4.404159    4.085835   -1.991807
     67          1           0       -5.343020    2.482899   -1.114243
     68          1           0       -4.551390    2.558561   -2.568161
     69          1           0       -4.955742    0.289784   -1.973810
     70          1           0        9.376691   -0.694483   -0.199365
     71          1           0       10.253783   -0.476171   -1.952539
     72          1           0       -3.935296   -2.971801    3.710490
     73          1           0       -6.030213   -1.263724   -2.507074
     74          1           0       -4.467547   -5.520657   -2.184008
     75          1           0       -3.702422   -5.809789   -0.605639
     76          1           0       -5.449888   -5.420730   -0.599720
     77          1           0       -1.113853    8.048712    1.147330
     78          1           0       -7.656978   -2.958584   -3.556360
     79          1           0       -6.699542   -4.563609   -2.435767
 ---------------------------------------------------------------------

 SCF Done:  E(RB3LYP) =  -1947.82028162     A.U. after   16 cycles

 Excitation energies and oscillator strengths:

 Excited State   1:      Singlet-A      2.1688 eV  571.67 nm  f=0.4061  <S**2>=0.000
     155 ->156         0.70196
 This state for optimization and/or second-order correction.
 Total Energy, E(TD-HF/TD-KS) =  -1947.74057916
 Copying the excited state density for this state as the 1-particle RhoCI density.

 The electronic state is 1-A.
 Alpha  occ. eigenvalues --  -19.19581 -19.16979 -19.13861 -19.12637 -19.11411
 Alpha  occ. eigenvalues --  -19.09633 -14.36734 -14.36650 -14.35213 -14.28689
 Alpha  occ. eigenvalues --  -10.33086 -10.29728 -10.28182 -10.26867 -10.25691
 Alpha  occ. eigenvalues --  -10.25122 -10.24528 -10.23295 -10.23070 -10.22404
 Alpha  occ. eigenvalues --  -10.22386 -10.22313 -10.22184 -10.21758 -10.21716
 Alpha  occ. eigenvalues --  -10.21524 -10.21503 -10.20985 -10.20775 -10.20619
 Alpha  occ. eigenvalues --  -10.20603 -10.20515 -10.20430 -10.20158 -10.19908
 Alpha  occ. eigenvalues --  -10.19609 -10.19322 -10.19037 -10.19009 -10.18965
 Alpha  occ. eigenvalues --  -10.18837 -10.18721 -10.18621  -1.11105  -1.09378
 Alpha  occ. eigenvalues --   -1.07476  -1.01600  -1.00431  -1.00025  -0.97669
 Alpha  occ. eigenvalues --   -0.95516  -0.93829  -0.92865  -0.83964  -0.82696
 Alpha  occ. eigenvalues --   -0.81661  -0.80856  -0.80331  -0.79702  -0.77922
 Alpha  occ. eigenvalues --   -0.77328  -0.76342  -0.75934  -0.74633  -0.72680
 Alpha  occ. eigenvalues --   -0.71732  -0.71374  -0.69263  -0.68771  -0.68200
 Alpha  occ. eigenvalues --   -0.66465  -0.65770  -0.63906  -0.60519  -0.60119
 Alpha  occ. eigenvalues --   -0.59235  -0.57562  -0.57212  -0.56850  -0.56556
 Alpha  occ. eigenvalues --   -0.55449  -0.55103  -0.54535  -0.53249  -0.52723
 Alpha  occ. eigenvalues --   -0.51654  -0.51496  -0.50829  -0.50433  -0.50223
 Alpha  occ. eigenvalues --   -0.49697  -0.49038  -0.48122  -0.47964  -0.47493
 Alpha  occ. eigenvalues --   -0.47034  -0.46726  -0.46671  -0.46461  -0.45833
 Alpha  occ. eigenvalues --   -0.45464  -0.45251  -0.45023  -0.44762  -0.43923
 Alpha  occ. eigenvalues --   -0.43568  -0.43337  -0.43225  -0.43002  -0.42793
 Alpha  occ. eigenvalues --   -0.42649  -0.42464  -0.42292  -0.41445  -0.41202
 Alpha  occ. eigenvalues --   -0.40974  -0.40860  -0.40582  -0.40162  -0.39772
 Alpha  occ. eigenvalues --   -0.39514  -0.38972  -0.38761  -0.38552  -0.38394
 Alpha  occ. eigenvalues --   -0.38146  -0.37642  -0.37470  -0.37187  -0.36819
 Alpha  occ. eigenvalues --   -0.36509  -0.36390  -0.36243  -0.35141  -0.34825
 Alpha  occ. eigenvalues --   -0.33490  -0.33414  -0.32965  -0.32164  -0.31765
 Alpha  occ. eigenvalues --   -0.31550  -0.31406  -0.29518  -0.29071  -0.28564
 Alpha  occ. eigenvalues --   -0.27210  -0.25680  -0.25574  -0.25193  -0.24858
 Alpha  occ. eigenvalues --   -0.24491  -0.23862  -0.23577  -0.23030  -0.18975
 Alpha virt. eigenvalues --   -0.10234  -0.05999  -0.05450  -0.01994   0.00013
 Alpha virt. eigenvalues --    0.01038   0.01344   0.02020   0.02364   0.02955
 Alpha virt. eigenvalues --    0.03295   0.03716   0.04035   0.04233   0.04347

 Mulliken charges:
               1
     1  O   -0.222288
     2  O   -0.253036
     3  O   -0.166149
     4  O   -0.198618
     5  O   -0.262924
     6  O   -0.091752
     7  N   -0.162075
     8  N   -0.287830
     9  N   -0.040807
    10  N   -0.281351
    11  C    0.076716
    12  C    0.335264
    13  C   -0.106442
    14  C   -0.138890
    15  C   -0.034006
    16  C    0.100735
    17  C   -0.206561
    18  C   -0.017650
    19  C   -0.038772
    20  C   -0.134633
    21  C    0.066496
    22  C    0.175182
    23  C   -0.065187
    24  C    0.107257
    25  C    0.110372
    26  C   -0.176168
    27  C   -0.033957
    28  C    0.117136
    29  C    0.139946
    30  C    0.010877
    31  C   -0.128260
    32  C    0.178587
    33  C   -0.171020
    34  C    0.115110
    35  C    0.098169
    36  C   -0.086286
    37  C    0.174089
    38  C   -0.029511
    39  C   -0.222471
    40  C    0.136331
    41  C    0.042935
    42  C    0.093176
    43  C   -0.119984
    44  H    0.023538
    45  H   -0.000930
    46  H   -0.089889
    47  H    0.103788
    48  H    0.182695
    49  H    0.020639
    50  H    0.051410
    51  H    0.012588
    52  H    0.005719
    53  H    0.012171
    54  H    0.005204
    55  H    0.043192
    56  H    0.013032
    57  H    0.052682
    58  H    0.075737
    59  H    0.033821
    60  H    0.110780
    61  H    0.038627
    62  H   -0.021195
    63  H    0.004262
    64  H    0.080500
    65  H    0.058798
    66  H    0.019961
    67  H    0.041129
    68  H   -0.018500
    69  H    0.018925
    70  H    0.025013
    71  H    0.043095
    72  H    0.225331
    73  H    0.013096
    74  H    0.031695
    75  H    0.014972
    76  H    0.033486
    77  H    0.205588
    78  H    0.056117
    79  H    0.071172
 Sum of Mulliken charges =   0.00000

 Dipole moment (field-independent basis, Debye):
    X=             -0.6693    Y=              0.9008    Z=              2.7986  Tot=              3.0152
 Quadrupole moment (field-independent basis, Debye-Ang):
   XX=           -220.5788   YY=           -247.6857   ZZ=           -265.2186
   XY=             -5.0821   XZ=             33.6104   YZ=              0.2122

 Normal termination of Gaussian 09 at Tue Jul  9 08:14:40 2019.
