 Gaussian 09, Revision D.01,
 Gaussian 09:  ES64L-G09RevD.01 24-Apr-2013

 --------------------------
 # td=(NStates=1) B3LYP/SVP
 --------------------------

 --
 TD
 --
 Symbolic Z-matrix:
 Charge =  0 Multiplicity = 1

                         Standard orientation:
 ---------------------------------------------------------------------
 Center     Atomic      Atomic             Coordinates (Angstroms)
 Number     Number       Type             X           Y           Z
 ---------------------------------------------------------------------
      1          8           0        5.436064    0.076561   -3.258046
      2          8           0       -2.923452   -3.099789    3.202771
      3          8           0       -3.304250   -0.925248    3.255078
      4          8           0       -2.041348    7.424350    1.247068
      5          8           0       -0.583696    7.040480   -0.548238
      6          8           0       -1.695885   -3.887272    0.000519
      7          7           0        2.346229    1.004610    0.822637
      8          7           0        4.374181   -0.401754   -1.306618
      9          7           0       -1.917434    0.679901   -0.394216
     10          7           0       -2.644341   -1.872210   -0.444557
     11          6           0        4.823468   -1.113382   -0.022910
     12          6           0        4.410969   -0.338329    1.272078
     13          6           0        3.050386   -0.009727    1.426935
     14          6           0        1.987851   -0.639258    2.172693
     15          6           0        0.747762   -0.103154    1.879645
     16          6           0        1.018945    0.917014    0.919967
     17          6           0        6.216351   -1.289054   -0.124605
     18          6           0       -0.541686   -0.355790    2.679223
     19          6           0        6.683169   -0.781717   -1.371103
     20          6           0        0.139465    1.905996    0.277728
     21          6           0       -1.150942    1.777629   -0.233002
     22          6           0        5.516433   -0.249229   -2.099033
     23          6           0       -1.913636    2.811878   -0.784615
     24          6           0        2.316520   -1.770283    3.210336
     25          6           0        7.118800   -1.879667    0.799217
     26          6           0       -3.246845    2.325200   -1.158313
     27          6           0       -1.117829   -1.747248    2.475447
     28          6           0       -3.113401    0.852746   -1.013942
     29          6           0       -1.597637    4.309096   -0.862137
     30          6           0        7.935572   -0.726588   -2.116504
     31          6           0       -1.815105    5.157936    0.398825
     32          6           0       -4.285764    2.964827   -1.886262
     33          6           0       -4.162646   -0.145406   -1.262363
     34          6           0       -2.504348   -1.860253    2.970674
     35          6           0       -3.800406   -1.415310   -1.010540
     36          6           0        9.191582   -0.765840   -1.599550
     37          6           0       -1.386691    6.633244    0.365219
     38          6           0       -4.631296   -2.635721   -1.456938
     39          6           0       -3.856290   -3.746884   -1.173285
     40          6           0       -2.600933   -3.183179   -0.533956
     41          6           0       -5.898355   -2.519963   -2.081471
     42          6           0       -4.197278   -5.216803   -1.408792
     43          6           0       -6.561465   -3.530816   -2.679283
     44          1           0        4.312798   -2.166839   -0.046652
     45          1           0        5.047477    0.660340    1.127648
     46          1           0        4.760314   -1.037810    2.225735
     47          1           0        2.742569    1.661686    0.287884
     48          1           0        3.435298   -0.696197   -1.566709
     49          1           0       -0.404009    0.061554    3.690179
     50          1           0       -1.280202    0.443186    2.454377
     51          1           0        0.703301    2.863725    0.364343
     52          1           0        3.461609   -1.659119    3.511765
     53          1           0        1.744674   -1.666377    4.152177
     54          1           0        2.231445   -2.836426    2.553962
     55          1           0        6.461058   -2.527210    1.553305
     56          1           0        7.750636   -1.138277    1.445882
     57          1           0        7.791833   -2.557207    0.234061
     58          1           0       -1.175206   -2.216651    1.355554
     59          1           0       -0.435599   -2.468054    2.972920
     60          1           0       -1.740749   -0.289310   -0.211490
     61          1           0       -1.806582    4.792891   -1.953418
     62          1           0       -0.443454    4.289694   -0.956881
     63          1           0        7.963169   -0.923625   -3.348672
     64          1           0       -1.411599    4.523682    1.179923
     65          1           0       -3.045262    5.075700    0.449301
     66          1           0       -4.168537    4.048969   -2.083868
     67          1           0       -5.120365    2.741447   -1.395088
     68          1           0       -4.322737    2.627139   -2.988469
     69          1           0       -5.142701    0.189751   -1.579127
     70          1           0        9.340228   -0.642941   -0.489513
     71          1           0       10.115768   -0.739676   -2.227580
     72          1           0       -3.965927   -3.119177    2.899849
     73          1           0       -6.215689   -1.437234   -2.104752
     74          1           0       -4.120483   -5.576434   -2.410216
     75          1           0       -3.473157   -5.704329   -0.873057
     76          1           0       -5.170605   -5.811250   -1.001885
     77          1           0       -1.739602    8.358799    1.269038
     78          1           0       -7.651315   -3.331768   -3.219334
     79          1           0       -5.886624   -4.490936   -3.021426
 ---------------------------------------------------------------------

 SCF Done:  E(RB3LYP) =  -1947.81772048     A.U. after   23 cycles

 Excitation energies and oscillator strengths:

 Excited State   1:      Singlet-A      2.0599 eV  601.89 nm  f=0.3499  <S**2>=0.000
     154 ->156         0.34870
     155 ->156         0.61419
 This state for optimization and/or second-order correction.
 Total Energy, E(TD-HF/TD-KS) =  -1947.74202034
 Copying the excited state density for this state as the 1-particle RhoCI density.

 The electronic state is 1-A.
 Alpha  occ. eigenvalues --  -19.20621 -19.15862 -19.13630 -19.09782 -19.09334
 Alpha  occ. eigenvalues --  -19.08514 -14.39323 -14.37161 -14.35355 -14.28670
 Alpha  occ. eigenvalues --  -10.34551 -10.29506 -10.28317 -10.26046 -10.25923
 Alpha  occ. eigenvalues --  -10.25496 -10.25412 -10.24596 -10.24490 -10.24152
 Alpha  occ. eigenvalues --  -10.24043 -10.23258 -10.23198 -10.22969 -10.22618
 Alpha  occ. eigenvalues --  -10.22300 -10.22267 -10.22089 -10.21799 -10.21499
 Alpha  occ. eigenvalues --  -10.21214 -10.21167 -10.20848 -10.20115 -10.19995
 Alpha  occ. eigenvalues --  -10.19989 -10.19808 -10.19662 -10.19597 -10.19418
 Alpha  occ. eigenvalues --  -10.19265 -10.18991 -10.18353  -1.09548  -1.06012
 Alpha  occ. eigenvalues --   -1.02930  -1.01554  -1.00151  -0.99048  -0.98744
 Alpha  occ. eigenvalues --   -0.94743  -0.93548  -0.91354  -0.83388  -0.82991
 Alpha  occ. eigenvalues --   -0.82242  -0.81922  -0.80953  -0.80193  -0.78276
 Alpha  occ. eigenvalues --   -0.77977  -0.76720  -0.76175  -0.74108  -0.73622
 Alpha  occ. eigenvalues --   -0.72033  -0.71461  -0.69740  -0.68947  -0.68659
 Alpha  occ. eigenvalues --   -0.67571  -0.67146  -0.64222  -0.62276  -0.61257
 Alpha  occ. eigenvalues --   -0.60797  -0.59036  -0.58691  -0.57423  -0.56549
 Alpha  occ. eigenvalues --   -0.56289  -0.55657  -0.55145  -0.54165  -0.53465
 Alpha  occ. eigenvalues --   -0.52379  -0.51443  -0.51145  -0.50688  -0.49873
 Alpha  occ. eigenvalues --   -0.49242  -0.49059  -0.48469  -0.48235  -0.47622
 Alpha  occ. eigenvalues --   -0.47610  -0.47070  -0.46748  -0.45948  -0.45410
 Alpha  occ. eigenvalues --   -0.45202  -0.44552  -0.44274  -0.43917  -0.43720
 Alpha  occ. eigenvalues --   -0.43634  -0.43176  -0.42911  -0.42531  -0.42397
 Alpha  occ. eigenvalues --   -0.42222  -0.41978  -0.41892  -0.41386  -0.41017
 Alpha  occ. eigenvalues --   -0.40821  -0.40643  -0.40566  -0.40307  -0.39792
 Alpha  occ. eigenvalues --   -0.39399  -0.39320  -0.38759  -0.38529  -0.37976
 Alpha  occ. eigenvalues --   -0.37659  -0.37502  -0.37229  -0.36561  -0.36281
 Alpha  occ. eigenvalues --   -0.35775  -0.35362  -0.34871  -0.34097  -0.33822
 Alpha  occ. eigenvalues --   -0.33204  -0.32690  -0.32214  -0.31491  -0.31056
 Alpha  occ. eigenvalues --   -0.30958  -0.28802  -0.28437  -0.28359  -0.27141
 Alpha  occ. eigenvalues --   -0.26464  -0.25794  -0.25337  -0.25200  -0.24751
 Alpha  occ. eigenvalues --   -0.24688  -0.23731  -0.23227  -0.21941  -0.20029
 Alpha virt. eigenvalues --   -0.11938  -0.07264  -0.06825  -0.03057  -0.01364
 Alpha virt. eigenvalues --   -0.00479  -0.00317   0.00612   0.01545   0.02951
 Alpha virt. eigenvalues --    0.03167   0.03642   0.04033   0.04286   0.04717

 Mulliken charges:
               1
     1  O   -0.205617
     2  O   -0.227035
     3  O   -0.293504
     4  O   -0.181128
     5  O   -0.280595
     6  O   -0.281837
     7  N    0.042016
     8  N   -0.215982
     9  N    0.003893
    10  N   -0.251152
    11  C    0.045911
    12  C    0.103156
    13  C   -0.034205
    14  C   -0.145274
    15  C   -0.069187
    16  C   -0.043369
    17  C   -0.132280
    18  C    0.097588
    19  C   -0.050503
    20  C   -0.109203
    21  C    0.187340
    22  C    0.149212
    23  C   -0.134010
    24  C    0.002063
    25  C    0.016415
    26  C   -0.132441
    27  C   -0.023406
    28  C    0.043207
    29  C    0.005612
    30  C   -0.057134
    31  C   -0.005889
    32  C    0.117644
    33  C   -0.113828
    34  C    0.131984
    35  C    0.155449
    36  C   -0.069648
    37  C    0.204307
    38  C    0.018736
    39  C   -0.174941
    40  C    0.126173
    41  C   -0.005713
    42  C    0.073417
    43  C   -0.101760
    44  H    0.044143
    45  H    0.015138
    46  H    0.036966
    47  H    0.061785
    48  H    0.138337
    49  H    0.008952
    50  H   -0.005524
    51  H    0.024384
    52  H    0.017161
    53  H    0.047576
    54  H    0.070197
    55  H    0.026161
    56  H    0.068389
    57  H    0.054355
    58  H    0.121821
    59  H    0.024775
    60  H    0.122622
    61  H    0.051436
    62  H    0.006410
    63  H    0.070527
    64  H    0.039431
    65  H    0.058376
    66  H    0.013721
    67  H    0.003148
    68  H    0.040652
    69  H   -0.005704
    70  H    0.023720
    71  H    0.041278
    72  H    0.238104
    73  H   -0.008961
    74  H    0.021389
    75  H   -0.011652
    76  H    0.038626
    77  H    0.204222
    78  H    0.050225
    79  H    0.063332
 Sum of Mulliken charges =   0.00000

 Dipole moment (field-independent basis, Debye):
    X=              2.4067    Y=              3.5977    Z=              2.0118  Tot=              4.7732
 Quadrupole moment (field-independent basis, Debye-Ang):
   XX=           -220.1659   YY=           -242.7562   ZZ=           -269.7967
   XY=            -20.9683   XZ=             38.7410   YZ=             14.9845

 Normal termination of Gaussian 09 at Mon Jul  8 23:40:08 2019.
