 Gaussian 09, Revision D.01,
 Gaussian 09:  ES64L-G09RevD.01 24-Apr-2013

 --------------------------
 # td=(NStates=1) B3LYP/SVP
 --------------------------

 --
 TD
 --
 Symbolic Z-matrix:
 Charge =  0 Multiplicity = 1

                         Standard orientation:
 ---------------------------------------------------------------------
 Center     Atomic      Atomic             Coordinates (Angstroms)
 Number     Number       Type             X           Y           Z
 ---------------------------------------------------------------------
      1          8           0        5.462899   -0.238201   -3.310542
      2          8           0       -2.939926   -3.099798    3.177302
      3          8           0       -3.294649   -0.854972    3.050863
      4          8           0       -1.638884    7.272917    1.461981
      5          8           0       -0.176356    6.875506   -0.333173
      6          8           0       -1.944044   -3.881813   -0.105210
      7          7           0        2.312524    0.921318    0.611145
      8          7           0        4.498461   -0.420802   -1.218803
      9          7           0       -1.885043    0.735989   -0.430778
     10          7           0       -2.675641   -1.831574   -0.598544
     11          6           0        4.838739   -1.070499    0.009851
     12          6           0        4.487030   -0.297414    1.223012
     13          6           0        2.991618   -0.077032    1.361772
     14          6           0        2.004766   -0.672388    2.182569
     15          6           0        0.675529   -0.132535    1.798148
     16          6           0        0.896855    0.922971    0.870344
     17          6           0        6.286227   -1.407367   -0.116596
     18          6           0       -0.525311   -0.366583    2.495335
     19          6           0        6.742066   -0.953087   -1.397851
     20          6           0        0.126146    1.981513    0.180903
     21          6           0       -1.071354    1.779697   -0.227174
     22          6           0        5.591504   -0.480173   -2.215945
     23          6           0       -1.885360    2.964420   -0.813931
     24          6           0        2.220987   -1.834663    3.132580
     25          6           0        7.034947   -2.061006    0.879078
     26          6           0       -3.134193    2.331680   -1.312321
     27          6           0       -1.172512   -1.756761    2.466703
     28          6           0       -3.103563    1.070307   -1.002327
     29          6           0       -1.474288    4.310429   -0.820890
     30          6           0        8.021002   -0.999222   -2.001371
     31          6           0       -1.578657    5.090811    0.448799
     32          6           0       -4.256314    3.095050   -2.010651
     33          6           0       -4.001820    0.050740   -1.356936
     34          6           0       -2.495351   -1.778304    2.978733
     35          6           0       -3.762625   -1.372328   -1.226015
     36          6           0        9.318260   -1.033310   -1.527105
     37          6           0       -0.958256    6.442685    0.509922
     38          6           0       -4.786760   -2.471273   -1.359895
     39          6           0       -4.173936   -3.600221   -1.044372
     40          6           0       -2.852478   -3.153735   -0.579669
     41          6           0       -6.160106   -2.251081   -1.956952
     42          6           0       -4.592505   -4.972731   -1.148637
     43          6           0       -6.885753   -3.261739   -2.452347
     44          1           0        4.404953   -1.946354    0.220253
     45          1           0        5.003536    0.645982    0.941309
     46          1           0        4.830051   -0.610236    2.288449
     47          1           0        2.664965    1.644846   -0.095031
     48          1           0        3.553306   -0.519398   -1.689243
     49          1           0       -0.445648    0.062121    3.523715
     50          1           0       -1.469823    0.356407    2.211393
     51          1           0        0.594099    2.908803   -0.067939
     52          1           0        3.394463   -1.731026    3.447542
     53          1           0        1.785345   -1.670854    4.127293
     54          1           0        1.515719   -2.765271    2.836465
     55          1           0        6.420101   -2.913481    1.153464
     56          1           0        7.261728   -1.400155    1.890692
     57          1           0        7.949222   -2.569206    0.417535
     58          1           0       -1.386548   -1.899281    1.345209
     59          1           0       -0.558131   -2.539271    2.800558
     60          1           0       -1.866391   -0.223717   -0.140872
     61          1           0       -1.830533    4.930488   -1.609094
     62          1           0       -0.468441    4.446545   -1.268876
     63          1           0        8.102918   -0.875323   -3.069483
     64          1           0       -1.394795    4.446782    1.341477
     65          1           0       -2.826964    5.241506    0.552956
     66          1           0       -3.821463    4.203922   -2.039651
     67          1           0       -5.233659    2.959957   -1.413833
     68          1           0       -4.278473    2.841441   -3.140980
     69          1           0       -4.908428    0.226912   -1.809554
     70          1           0        9.503159   -0.916000   -0.314301
     71          1           0       10.216243   -1.390983   -2.049565
     72          1           0       -3.995905   -3.026856    3.382167
     73          1           0       -6.506356   -1.298136   -1.995107
     74          1           0       -4.889437   -5.243255   -2.175466
     75          1           0       -3.738602   -5.450256   -0.713505
     76          1           0       -5.657400   -5.196260   -0.614404
     77          1           0       -0.941272    7.996048    1.306411
     78          1           0       -7.909618   -2.963902   -2.874230
     79          1           0       -6.763557   -4.407258   -2.577249
 ---------------------------------------------------------------------

 SCF Done:  E(RB3LYP) =  -1947.79261984     A.U. after   19 cycles

 Excitation energies and oscillator strengths:

 Excited State   1:      Singlet-A      2.0410 eV  607.47 nm  f=0.4305  <S**2>=0.000
     151 ->156        -0.10043
     155 ->156         0.70189
     155 <-156        -0.12235
 This state for optimization and/or second-order correction.
 Total Energy, E(TD-HF/TD-KS) =  -1947.71761518
 Copying the excited state density for this state as the 1-particle RhoCI density.

 The electronic state is 1-A.
 Alpha  occ. eigenvalues --  -19.19689 -19.16029 -19.16023 -19.12105 -19.11291
 Alpha  occ. eigenvalues --  -19.09202 -14.37849 -14.35867 -14.33993 -14.29023
 Alpha  occ. eigenvalues --  -10.34588 -10.30285 -10.28690 -10.25363 -10.24065
 Alpha  occ. eigenvalues --  -10.23820 -10.23679 -10.23595 -10.23515 -10.23262
 Alpha  occ. eigenvalues --  -10.23017 -10.22834 -10.22621 -10.22446 -10.21948
 Alpha  occ. eigenvalues --  -10.21762 -10.21458 -10.21402 -10.21058 -10.21027
 Alpha  occ. eigenvalues --  -10.20880 -10.20877 -10.20638 -10.20468 -10.20208
 Alpha  occ. eigenvalues --  -10.19776 -10.19703 -10.19400 -10.19275 -10.19016
 Alpha  occ. eigenvalues --  -10.18984 -10.18631 -10.18466  -1.09421  -1.08236
 Alpha  occ. eigenvalues --   -1.05486  -1.01469  -1.00215  -0.99109  -0.96785
 Alpha  occ. eigenvalues --   -0.95211  -0.93383  -0.92489  -0.84378  -0.83172
 Alpha  occ. eigenvalues --   -0.82065  -0.81380  -0.81166  -0.80314  -0.78946
 Alpha  occ. eigenvalues --   -0.77401  -0.76764  -0.76154  -0.75264  -0.72743
 Alpha  occ. eigenvalues --   -0.71637  -0.70956  -0.70036  -0.69319  -0.68548
 Alpha  occ. eigenvalues --   -0.66541  -0.66148  -0.63559  -0.60851  -0.60203
 Alpha  occ. eigenvalues --   -0.59735  -0.58258  -0.57492  -0.56756  -0.56646
 Alpha  occ. eigenvalues --   -0.55674  -0.55278  -0.54711  -0.54234  -0.53619
 Alpha  occ. eigenvalues --   -0.52496  -0.52178  -0.51109  -0.51035  -0.50769
 Alpha  occ. eigenvalues --   -0.49739  -0.49550  -0.48595  -0.47930  -0.47701
 Alpha  occ. eigenvalues --   -0.47188  -0.46928  -0.46454  -0.46016  -0.45623
 Alpha  occ. eigenvalues --   -0.45521  -0.45125  -0.44663  -0.44583  -0.44365
 Alpha  occ. eigenvalues --   -0.43560  -0.43487  -0.43266  -0.42921  -0.42865
 Alpha  occ. eigenvalues --   -0.42547  -0.42416  -0.42340  -0.42078  -0.41516
 Alpha  occ. eigenvalues --   -0.41362  -0.41174  -0.41112  -0.40769  -0.40373
 Alpha  occ. eigenvalues --   -0.39812  -0.39575  -0.38831  -0.38425  -0.38043
 Alpha  occ. eigenvalues --   -0.37743  -0.37528  -0.37462  -0.36878  -0.36241
 Alpha  occ. eigenvalues --   -0.36021  -0.35372  -0.34475  -0.34285  -0.34077
 Alpha  occ. eigenvalues --   -0.33719  -0.33574  -0.32697  -0.31783  -0.31461
 Alpha  occ. eigenvalues --   -0.30991  -0.30873  -0.30082  -0.29172  -0.27763
 Alpha  occ. eigenvalues --   -0.27527  -0.26517  -0.26121  -0.25632  -0.23979
 Alpha  occ. eigenvalues --   -0.23838  -0.23312  -0.22995  -0.22708  -0.19442
 Alpha virt. eigenvalues --   -0.11572  -0.07168  -0.06361  -0.04129  -0.00675
 Alpha virt. eigenvalues --    0.00472   0.00755   0.01012   0.01416   0.02756
 Alpha virt. eigenvalues --    0.03771   0.03989   0.04486   0.04671   0.05514

 Mulliken charges:
               1
     1  O   -0.094751
     2  O   -0.278879
     3  O   -0.248333
     4  O   -0.236609
     5  O   -0.229471
     6  O   -0.245078
     7  N   -0.177122
     8  N   -0.290952
     9  N   -0.031692
    10  N   -0.219787
    11  C    0.223003
    12  C    0.143870
    13  C   -0.039456
    14  C   -0.152659
    15  C   -0.017121
    16  C    0.095639
    17  C   -0.167674
    18  C   -0.086750
    19  C   -0.026283
    20  C   -0.133865
    21  C    0.209534
    22  C    0.141280
    23  C   -0.096403
    24  C    0.045303
    25  C    0.050118
    26  C   -0.130634
    27  C    0.066687
    28  C    0.158880
    29  C    0.068692
    30  C   -0.047523
    31  C   -0.060907
    32  C    0.047297
    33  C   -0.083360
    34  C    0.133211
    35  C    0.047257
    36  C   -0.101194
    37  C    0.201065
    38  C    0.011999
    39  C   -0.165171
    40  C    0.109501
    41  C    0.060017
    42  C    0.062461
    43  C   -0.076749
    44  H   -0.040143
    45  H   -0.015048
    46  H    0.027152
    47  H    0.140703
    48  H    0.138410
    49  H    0.015539
    50  H    0.034672
    51  H   -0.014529
    52  H    0.022316
    53  H    0.004305
    54  H    0.072485
    55  H    0.013791
    56  H    0.071942
    57  H    0.041447
    58  H    0.106045
    59  H   -0.002266
    60  H    0.125091
    61  H   -0.012091
    62  H    0.015667
    63  H    0.009713
    64  H    0.060277
    65  H    0.071049
    66  H    0.024969
    67  H    0.061931
    68  H    0.048511
    69  H   -0.070227
    70  H    0.029690
    71  H    0.042847
    72  H    0.218504
    73  H   -0.036667
    74  H    0.031428
    75  H    0.031984
    76  H    0.034491
    77  H    0.187065
    78  H    0.024450
    79  H    0.047103
 Sum of Mulliken charges =   0.00000

 Dipole moment (field-independent basis, Debye):
    X=              0.1276    Y=              2.7003    Z=              1.4569  Tot=              3.0709
 Quadrupole moment (field-independent basis, Debye-Ang):
   XX=           -221.5045   YY=           -250.9547   ZZ=           -259.9492
   XY=             -7.8298   XZ=             31.7973   YZ=              1.4391

 Normal termination of Gaussian 09 at Mon Jul  8 01:57:23 2019.
