 Gaussian 09, Revision D.01,
 Gaussian 09:  ES64L-G09RevD.01 24-Apr-2013

 --------------------------
 # td=(NStates=1) B3LYP/SVP
 --------------------------

 --
 TD
 --
 Symbolic Z-matrix:
 Charge =  0 Multiplicity = 1

                         Standard orientation:
 ---------------------------------------------------------------------
 Center     Atomic      Atomic             Coordinates (Angstroms)
 Number     Number       Type             X           Y           Z
 ---------------------------------------------------------------------
      1          8           0        5.143827   -0.576552   -3.323560
      2          8           0       -3.084668   -2.867724    3.109821
      3          8           0       -3.280628   -0.602310    3.177271
      4          8           0       -1.044957    7.192010    1.579827
      5          8           0        0.059997    6.935570   -0.351683
      6          8           0       -2.085589   -4.036494   -0.220306
      7          7           0        2.432977    0.848514    0.630923
      8          7           0        4.343227   -1.073316   -1.212076
      9          7           0       -1.839372    0.745314   -0.457634
     10          7           0       -2.735455   -1.755373   -0.588412
     11          6           0        4.817531   -1.515849    0.014690
     12          6           0        4.502254   -0.478101    1.229635
     13          6           0        2.973317   -0.184609    1.328424
     14          6           0        1.990067   -0.812385    2.126284
     15          6           0        0.707767   -0.060562    1.804840
     16          6           0        1.056566    0.943881    0.929813
     17          6           0        6.295163   -1.613152   -0.154624
     18          6           0       -0.625760   -0.288200    2.558596
     19          6           0        6.555167   -1.139340   -1.456624
     20          6           0        0.244127    1.930084    0.171568
     21          6           0       -1.005332    1.827740   -0.330833
     22          6           0        5.297217   -0.888835   -2.155442
     23          6           0       -1.738907    3.021545   -0.942189
     24          6           0        2.160145   -1.926757    3.235410
     25          6           0        7.256142   -1.962590    0.943077
     26          6           0       -2.870570    2.523787   -1.361251
     27          6           0       -1.145772   -1.687685    2.450893
     28          6           0       -3.024110    1.098531   -1.017027
     29          6           0       -1.256363    4.396011   -0.912943
     30          6           0        7.819955   -0.913509   -2.268443
     31          6           0       -1.311649    5.161771    0.461457
     32          6           0       -4.028451    3.207287   -2.084872
     33          6           0       -4.025870    0.171574   -1.424757
     34          6           0       -2.575816   -1.652917    2.918209
     35          6           0       -3.854045   -1.223188   -1.083506
     36          6           0        9.066802   -0.870495   -1.646412
     37          6           0       -0.676166    6.464875    0.473605
     38          6           0       -4.949325   -2.296658   -1.392236
     39          6           0       -4.320118   -3.565095   -1.035898
     40          6           0       -3.037326   -3.173831   -0.517906
     41          6           0       -6.333554   -1.990904   -1.763392
     42          6           0       -4.919820   -4.948041   -1.028341
     43          6           0       -7.183463   -2.805245   -2.400489
     44          1           0        4.170256   -2.373650    0.129229
     45          1           0        4.952371    0.492111    0.943373
     46          1           0        4.893596   -0.957769    2.174589
     47          1           0        2.811334    1.269296   -0.142201
     48          1           0        3.318145   -1.196464   -1.479087
     49          1           0       -0.689344    0.110325    3.526150
     50          1           0       -1.218473    0.353540    1.880871
     51          1           0        0.951373    2.825446    0.138481
     52          1           0        3.139841   -1.969390    3.511067
     53          1           0        1.707121   -1.634115    4.198007
     54          1           0        1.661820   -2.838354    2.695557
     55          1           0        6.853934   -2.884962    1.509030
     56          1           0        7.562760   -1.142927    1.649408
     57          1           0        8.300048   -2.499267    0.491975
     58          1           0       -0.971678   -2.280843    1.463848
     59          1           0       -0.663544   -2.258268    3.391277
     60          1           0       -1.679677   -0.257283   -0.212964
     61          1           0       -1.790497    5.068688   -1.508779
     62          1           0       -0.252805    4.420685   -1.206699
     63          1           0        7.663872   -0.897616   -3.369029
     64          1           0       -0.614816    4.471118    1.233119
     65          1           0       -2.198699    5.117660    0.997772
     66          1           0       -3.776994    4.240850   -2.430996
     67          1           0       -5.120620    3.028696   -1.609333
     68          1           0       -4.064841    2.680060   -3.019931
     69          1           0       -4.952711    0.480703   -1.924313
     70          1           0        9.189635   -0.901827   -0.506637
     71          1           0       10.007207   -0.851613   -2.050081
     72          1           0       -4.009636   -2.749379    3.407266
     73          1           0       -6.564420   -0.942946   -1.688871
     74          1           0       -4.961665   -5.186313   -1.952790
     75          1           0       -4.135774   -5.481034   -0.338444
     76          1           0       -5.846046   -5.009323   -0.522457
     77          1           0       -0.613993    7.977519    1.570875
     78          1           0       -8.311820   -2.594377   -2.562938
     79          1           0       -6.977558   -3.835757   -2.782815
 ---------------------------------------------------------------------

 SCF Done:  E(RB3LYP) =  -1947.88723163     A.U. after   18 cycles

 Excitation energies and oscillator strengths:

 Excited State   1:      Singlet-A      2.0095 eV  616.98 nm  f=0.3339  <S**2>=0.000
     153 ->156        -0.10901
     154 ->156         0.10946
     155 ->156         0.68790
 This state for optimization and/or second-order correction.
 Total Energy, E(TD-HF/TD-KS) =  -1947.81338305
 Copying the excited state density for this state as the 1-particle RhoCI density.

 The electronic state is 1-A.
 Alpha  occ. eigenvalues --  -19.17971 -19.17508 -19.13405 -19.10888 -19.10699
 Alpha  occ. eigenvalues --  -19.09051 -14.37757 -14.37567 -14.35379 -14.30833
 Alpha  occ. eigenvalues --  -10.32714 -10.31304 -10.27434 -10.27373 -10.25769
 Alpha  occ. eigenvalues --  -10.25152 -10.24608 -10.24438 -10.23036 -10.22840
 Alpha  occ. eigenvalues --  -10.22657 -10.22629 -10.22534 -10.22394 -10.22215
 Alpha  occ. eigenvalues --  -10.22153 -10.21401 -10.21304 -10.21288 -10.21250
 Alpha  occ. eigenvalues --  -10.21239 -10.21027 -10.20973 -10.20685 -10.20666
 Alpha  occ. eigenvalues --  -10.20622 -10.20457 -10.19997 -10.19864 -10.19461
 Alpha  occ. eigenvalues --  -10.19298 -10.18540 -10.18188  -1.10649  -1.08519
 Alpha  occ. eigenvalues --   -1.02324  -1.01784  -0.99558  -0.98003  -0.97360
 Alpha  occ. eigenvalues --   -0.95900  -0.95460  -0.90788  -0.84096  -0.81596
 Alpha  occ. eigenvalues --   -0.80926  -0.80662  -0.80270  -0.79299  -0.78351
 Alpha  occ. eigenvalues --   -0.76944  -0.76510  -0.75754  -0.74075  -0.72742
 Alpha  occ. eigenvalues --   -0.71591  -0.70730  -0.70188  -0.69525  -0.69117
 Alpha  occ. eigenvalues --   -0.67404  -0.66516  -0.64518  -0.61735  -0.61509
 Alpha  occ. eigenvalues --   -0.61151  -0.59326  -0.58537  -0.57623  -0.56902
 Alpha  occ. eigenvalues --   -0.56627  -0.56099  -0.55216  -0.54168  -0.53529
 Alpha  occ. eigenvalues --   -0.52539  -0.52017  -0.51129  -0.50754  -0.50029
 Alpha  occ. eigenvalues --   -0.49172  -0.48319  -0.48032  -0.47605  -0.47198
 Alpha  occ. eigenvalues --   -0.47009  -0.46899  -0.46649  -0.46135  -0.46016
 Alpha  occ. eigenvalues --   -0.45589  -0.45128  -0.45015  -0.44510  -0.43910
 Alpha  occ. eigenvalues --   -0.43601  -0.43313  -0.42933  -0.42543  -0.42248
 Alpha  occ. eigenvalues --   -0.41964  -0.41888  -0.41596  -0.41015  -0.40869
 Alpha  occ. eigenvalues --   -0.40864  -0.40641  -0.40300  -0.40275  -0.39854
 Alpha  occ. eigenvalues --   -0.39810  -0.39215  -0.38951  -0.38794  -0.38534
 Alpha  occ. eigenvalues --   -0.38079  -0.37947  -0.37686  -0.37325  -0.37033
 Alpha  occ. eigenvalues --   -0.36595  -0.35733  -0.35288  -0.34555  -0.34111
 Alpha  occ. eigenvalues --   -0.33640  -0.33116  -0.33012  -0.31619  -0.30800
 Alpha  occ. eigenvalues --   -0.30485  -0.29964  -0.29279  -0.28981  -0.28275
 Alpha  occ. eigenvalues --   -0.27268  -0.26223  -0.25716  -0.25063  -0.24627
 Alpha  occ. eigenvalues --   -0.24461  -0.23802  -0.23340  -0.22675  -0.19764
 Alpha virt. eigenvalues --   -0.11510  -0.07111  -0.06289  -0.01332  -0.01227
 Alpha virt. eigenvalues --    0.00030   0.00687   0.01598   0.03026   0.03657
 Alpha virt. eigenvalues --    0.04199   0.04346   0.04672   0.05137   0.05709

 Mulliken charges:
               1
     1  O   -0.231860
     2  O   -0.155676
     3  O   -0.318845
     4  O   -0.158648
     5  O   -0.210468
     6  O   -0.297197
     7  N   -0.040151
     8  N   -0.186106
     9  N   -0.064837
    10  N   -0.291718
    11  C    0.079288
    12  C    0.186605
    13  C   -0.112837
    14  C   -0.177785
    15  C   -0.150295
    16  C   -0.000827
    17  C   -0.113494
    18  C    0.154281
    19  C   -0.080828
    20  C   -0.143254
    21  C    0.186352
    22  C    0.121518
    23  C   -0.071997
    24  C    0.118633
    25  C   -0.020504
    26  C   -0.145481
    27  C   -0.074819
    28  C    0.111726
    29  C    0.204946
    30  C    0.014084
    31  C   -0.040260
    32  C    0.087895
    33  C   -0.101105
    34  C    0.153712
    35  C    0.084750
    36  C   -0.027205
    37  C    0.123369
    38  C   -0.015867
    39  C   -0.186831
    40  C    0.193169
    41  C    0.020036
    42  C    0.177058
    43  C   -0.071405
    44  H    0.005497
    45  H   -0.008017
    46  H    0.024600
    47  H    0.085944
    48  H    0.148918
    49  H    0.005748
    50  H   -0.006212
    51  H    0.022856
    52  H   -0.029937
    53  H    0.022019
    54  H    0.070099
    55  H    0.033448
    56  H    0.064809
    57  H    0.056674
    58  H    0.109147
    59  H    0.048006
    60  H    0.164443
    61  H   -0.010152
    62  H   -0.003679
    63  H    0.034947
    64  H    0.065521
    65  H    0.015315
    66  H    0.016656
    67  H    0.055003
    68  H    0.014921
    69  H   -0.013369
    70  H    0.026429
    71  H    0.003120
    72  H    0.183612
    73  H   -0.005606
    74  H   -0.009750
    75  H    0.049370
    76  H    0.015395
    77  H    0.137550
    78  H    0.044213
    79  H    0.035338
 Sum of Mulliken charges =   0.00000

 Dipole moment (field-independent basis, Debye):
    X=             -1.0796    Y=              1.6364    Z=              3.0445  Tot=              3.6211
 Quadrupole moment (field-independent basis, Debye-Ang):
   XX=           -212.0343   YY=           -251.7151   ZZ=           -262.9407
   XY=             -5.2744   XZ=             36.7716   YZ=             -1.4014

 Normal termination of Gaussian 09 at Sun Jul  7 20:05:59 2019.
