 Gaussian 09, Revision D.01,
 Gaussian 09:  ES64L-G09RevD.01 24-Apr-2013

 --------------------------
 # td=(NStates=1) B3LYP/SVP
 --------------------------

 --
 TD
 --
 Symbolic Z-matrix:
 Charge =  0 Multiplicity = 1

                         Standard orientation:
 ---------------------------------------------------------------------
 Center     Atomic      Atomic             Coordinates (Angstroms)
 Number     Number       Type             X           Y           Z
 ---------------------------------------------------------------------
      1          8           0        5.332750   -0.494372   -3.361617
      2          8           0       -2.870624   -3.165878    3.199427
      3          8           0       -3.151987   -1.031098    3.191054
      4          8           0       -1.953387    7.186485    1.394636
      5          8           0       -0.714217    7.008067   -0.316296
      6          8           0       -1.953485   -4.017485   -0.074807
      7          7           0        2.403802    0.987465    0.618137
      8          7           0        4.463279   -0.607746   -1.240721
      9          7           0       -1.916170    0.634234   -0.314615
     10          7           0       -2.673973   -1.890162   -0.466522
     11          6           0        5.000241   -1.090029    0.045846
     12          6           0        4.606157   -0.154821    1.321526
     13          6           0        3.110549    0.032182    1.400965
     14          6           0        2.067218   -0.767069    2.085368
     15          6           0        0.818972   -0.138398    1.742643
     16          6           0        1.033090    0.949254    0.861092
     17          6           0        6.447923   -1.221726   -0.249944
     18          6           0       -0.504445   -0.519059    2.445672
     19          6           0        6.794625   -0.800225   -1.422290
     20          6           0        0.208547    1.924732    0.078556
     21          6           0       -1.099415    1.794624   -0.337306
     22          6           0        5.494433   -0.605470   -2.155847
     23          6           0       -1.943228    2.896603   -0.802848
     24          6           0        2.432184   -1.725968    3.104405
     25          6           0        7.351286   -1.568247    0.910133
     26          6           0       -3.132159    2.321341   -1.169068
     27          6           0       -0.991550   -1.925685    2.461282
     28          6           0       -3.130609    0.897567   -0.988423
     29          6           0       -1.632868    4.324587   -0.925072
     30          6           0        8.062813   -0.731854   -2.127263
     31          6           0       -1.893273    5.045267    0.463171
     32          6           0       -4.330661    3.158528   -1.705098
     33          6           0       -4.134722   -0.087751   -1.331588
     34          6           0       -2.458551   -1.976510    3.008610
     35          6           0       -3.799390   -1.397102   -1.127559
     36          6           0        9.309530   -0.481944   -1.630277
     37          6           0       -1.525532    6.520121    0.382848
     38          6           0       -4.774907   -2.549103   -1.436923
     39          6           0       -4.222060   -3.612242   -1.033815
     40          6           0       -2.784181   -3.353215   -0.453606
     41          6           0       -6.095503   -2.268340   -2.080543
     42          6           0       -4.635416   -5.064590   -1.127579
     43          6           0       -6.802889   -3.133122   -2.733684
     44          1           0        4.648299   -2.266767    0.195030
     45          1           0        5.085795    0.908301    1.233737
     46          1           0        4.930012   -0.587077    2.265848
     47          1           0        3.127395    1.805451    0.087799
     48          1           0        3.454174   -0.693703   -1.616582
     49          1           0       -0.352399   -0.093599    3.460553
     50          1           0       -1.327647    0.308311    2.274278
     51          1           0        0.719735    2.875560   -0.165423
     52          1           0        3.633399   -1.688770    2.927284
     53          1           0        1.967393   -1.627549    3.995968
     54          1           0        1.996398   -2.651836    2.608097
     55          1           0        7.300684   -2.377365    1.381071
     56          1           0        7.714086   -0.572755    1.501683
     57          1           0        8.469113   -1.829533    0.516661
     58          1           0       -0.866322   -2.390502    1.529992
     59          1           0       -0.296983   -2.542967    3.016394
     60          1           0       -1.679664   -0.441313   -0.259283
     61          1           0       -2.279142    5.042570   -1.649975
     62          1           0       -0.596115    4.363478   -1.160812
     63          1           0        7.904684   -0.958539   -3.186185
     64          1           0       -1.368461    4.871547    1.548717
     65          1           0       -2.776816    4.698537    0.785503
     66          1           0       -4.161257    4.452533   -1.454477
     67          1           0       -5.205095    2.697100   -1.263035
     68          1           0       -4.481137    3.132597   -2.946132
     69          1           0       -5.088996    0.309781   -1.867138
     70          1           0        9.324890   -0.401738   -0.597137
     71          1           0        9.942021   -0.615215   -2.445151
     72          1           0       -3.632929   -3.110424    3.703192
     73          1           0       -6.458803   -1.260027   -2.049487
     74          1           0       -4.261723   -5.419177   -2.195199
     75          1           0       -4.072156   -5.644138   -0.323134
     76          1           0       -5.684294   -5.146183   -1.148952
     77          1           0       -1.600642    8.115289    1.570699
     78          1           0       -8.063215   -2.950452   -2.777003
     79          1           0       -6.492499   -4.217715   -2.770861
 ---------------------------------------------------------------------

 SCF Done:  E(RB3LYP) =  -1947.74370047     A.U. after   16 cycles

 Excitation energies and oscillator strengths:

 Excited State   1:      Singlet-A      2.2451 eV  552.25 nm  f=0.5317  <S**2>=0.000
     155 ->156         0.70242
     155 <-156        -0.10598
 This state for optimization and/or second-order correction.
 Total Energy, E(TD-HF/TD-KS) =  -1947.66119541
 Copying the excited state density for this state as the 1-particle RhoCI density.

 The electronic state is 1-A.
 Alpha  occ. eigenvalues --  -19.18027 -19.17456 -19.11664 -19.11524 -19.10742
 Alpha  occ. eigenvalues --  -19.09625 -14.39463 -14.35815 -14.35741 -14.28283
 Alpha  occ. eigenvalues --  -10.31687 -10.30426 -10.28110 -10.26724 -10.26518
 Alpha  occ. eigenvalues --  -10.24761 -10.24287 -10.23861 -10.23681 -10.23479
 Alpha  occ. eigenvalues --  -10.22896 -10.22722 -10.22539 -10.22004 -10.21647
 Alpha  occ. eigenvalues --  -10.21543 -10.21230 -10.20781 -10.20252 -10.20045
 Alpha  occ. eigenvalues --  -10.19960 -10.19888 -10.19713 -10.19680 -10.19580
 Alpha  occ. eigenvalues --  -10.19516 -10.19503 -10.19162 -10.18977 -10.18805
 Alpha  occ. eigenvalues --  -10.18650 -10.18390 -10.18049  -1.12752  -1.11951
 Alpha  occ. eigenvalues --   -1.06812  -1.02172  -1.01068  -1.00735  -0.96016
 Alpha  occ. eigenvalues --   -0.95601  -0.93692  -0.89267  -0.82977  -0.82509
 Alpha  occ. eigenvalues --   -0.80700  -0.80351  -0.79990  -0.78617  -0.77216
 Alpha  occ. eigenvalues --   -0.77031  -0.76169  -0.75673  -0.74065  -0.72582
 Alpha  occ. eigenvalues --   -0.71792  -0.70726  -0.69036  -0.68225  -0.67417
 Alpha  occ. eigenvalues --   -0.66671  -0.65634  -0.63347  -0.61941  -0.61050
 Alpha  occ. eigenvalues --   -0.60828  -0.58787  -0.58357  -0.57090  -0.55616
 Alpha  occ. eigenvalues --   -0.55186  -0.54531  -0.54226  -0.53564  -0.52906
 Alpha  occ. eigenvalues --   -0.52129  -0.50939  -0.50251  -0.50068  -0.49479
 Alpha  occ. eigenvalues --   -0.49442  -0.49226  -0.48074  -0.47663  -0.47473
 Alpha  occ. eigenvalues --   -0.47444  -0.47186  -0.46782  -0.46193  -0.45424
 Alpha  occ. eigenvalues --   -0.45113  -0.44926  -0.44240  -0.43981  -0.43808
 Alpha  occ. eigenvalues --   -0.43447  -0.43037  -0.42852  -0.42506  -0.42016
 Alpha  occ. eigenvalues --   -0.41807  -0.41370  -0.41072  -0.40900  -0.40516
 Alpha  occ. eigenvalues --   -0.40454  -0.40151  -0.39958  -0.39787  -0.39544
 Alpha  occ. eigenvalues --   -0.39185  -0.39042  -0.38658  -0.38494  -0.38023
 Alpha  occ. eigenvalues --   -0.37855  -0.37454  -0.37199  -0.36845  -0.36404
 Alpha  occ. eigenvalues --   -0.36322  -0.35315  -0.34977  -0.34371  -0.34347
 Alpha  occ. eigenvalues --   -0.34012  -0.33626  -0.32505  -0.31651  -0.31532
 Alpha  occ. eigenvalues --   -0.30835  -0.30495  -0.28402  -0.28046  -0.27136
 Alpha  occ. eigenvalues --   -0.27032  -0.26343  -0.25556  -0.25166  -0.24898
 Alpha  occ. eigenvalues --   -0.24144  -0.23698  -0.23467  -0.22084  -0.18922
 Alpha virt. eigenvalues --   -0.10119  -0.05361  -0.04772  -0.01229  -0.00021
 Alpha virt. eigenvalues --    0.00327   0.00756   0.01798   0.02585   0.02691
 Alpha virt. eigenvalues --    0.03090   0.03665   0.04257   0.04492   0.05082

 Mulliken charges:
               1
     1  O   -0.226095
     2  O   -0.067108
     3  O   -0.213962
     4  O   -0.171117
     5  O   -0.205871
     6  O   -0.092965
     7  N   -0.201708
     8  N   -0.225024
     9  N   -0.162303
    10  N   -0.390949
    11  C    0.094201
    12  C    0.165158
    13  C   -0.100877
    14  C   -0.155907
    15  C   -0.098954
    16  C    0.095796
    17  C   -0.186676
    18  C   -0.000006
    19  C   -0.006486
    20  C   -0.085651
    21  C    0.142139
    22  C    0.120694
    23  C   -0.070757
    24  C    0.122487
    25  C    0.090790
    26  C   -0.111266
    27  C    0.078416
    28  C    0.108527
    29  C    0.102957
    30  C   -0.084295
    31  C   -0.049307
    32  C   -0.029839
    33  C   -0.152045
    34  C    0.083153
    35  C    0.139478
    36  C    0.088732
    37  C    0.110291
    38  C    0.086555
    39  C   -0.291888
    40  C    0.160850
    41  C    0.018983
    42  C    0.075885
    43  C   -0.086974
    44  H    0.048669
    45  H    0.015919
    46  H    0.016921
    47  H    0.193044
    48  H    0.166721
    49  H   -0.002428
    50  H    0.030646
    51  H   -0.003173
    52  H    0.022452
    53  H    0.006409
    54  H    0.039274
    55  H   -0.042032
    56  H    0.060225
    57  H    0.014225
    58  H    0.026554
    59  H   -0.009908
    60  H    0.194295
    61  H    0.059522
    62  H    0.008609
    63  H    0.015494
    64  H    0.061364
    65  H   -0.010480
    66  H    0.046568
    67  H    0.038009
    68  H    0.055528
    69  H    0.017332
    70  H   -0.010382
    71  H    0.019418
    72  H    0.140928
    73  H   -0.013155
    74  H    0.045861
    75  H    0.041560
    76  H    0.012772
    77  H    0.207048
    78  H    0.044485
    79  H    0.024643
 Sum of Mulliken charges =   0.00000

 Dipole moment (field-independent basis, Debye):
    X=              1.2891    Y=              2.4470    Z=              4.9183  Tot=              5.6426
 Quadrupole moment (field-independent basis, Debye-Ang):
   XX=           -222.5228   YY=           -239.7841   ZZ=           -262.2641
   XY=             -8.4738   XZ=             26.2237   YZ=              2.9038

 Normal termination of Gaussian 09 at Wed Jul 10 00:15:58 2019.
