 Gaussian 09, Revision D.01,
 Gaussian 09:  ES64L-G09RevD.01 24-Apr-2013

 --------------------------
 # td=(NStates=1) B3LYP/SVP
 --------------------------

 --
 TD
 --
 Symbolic Z-matrix:
 Charge =  0 Multiplicity = 1

                         Standard orientation:
 ---------------------------------------------------------------------
 Center     Atomic      Atomic             Coordinates (Angstroms)
 Number     Number       Type             X           Y           Z
 ---------------------------------------------------------------------
      1          8           0        5.158398   -0.441288   -3.304101
      2          8           0       -2.891685   -2.924554    3.468468
      3          8           0       -3.220871   -0.612447    3.295786
      4          8           0       -1.168476    7.283698    1.474309
      5          8           0        0.259656    6.784268   -0.295427
      6          8           0       -2.373852   -4.066806    0.112297
      7          7           0        2.489255    0.755272    0.618221
      8          7           0        4.243916   -0.799510   -1.344471
      9          7           0       -1.822055    0.805497   -0.310938
     10          7           0       -2.711072   -1.875732   -0.582460
     11          6           0        4.711075   -1.480609   -0.085876
     12          6           0        4.434250   -0.653234    1.309895
     13          6           0        2.965134   -0.240336    1.388478
     14          6           0        1.926701   -0.799135    2.189675
     15          6           0        0.814915   -0.074948    1.765489
     16          6           0        1.090360    0.927458    0.848097
     17          6           0        6.233252   -1.551139   -0.261103
     18          6           0       -0.575211   -0.128551    2.550162
     19          6           0        6.505672   -1.128349   -1.523029
     20          6           0        0.340045    1.954130    0.174208
     21          6           0       -0.941319    1.928284   -0.236733
     22          6           0        5.300657   -0.724986   -2.159985
     23          6           0       -1.649472    2.961480   -0.811554
     24          6           0        2.007486   -1.784190    3.243715
     25          6           0        7.015220   -2.114901    0.825060
     26          6           0       -2.921202    2.472257   -1.221984
     27          6           0       -1.134406   -1.477445    2.637406
     28          6           0       -2.967725    1.005938   -1.003275
     29          6           0       -1.305552    4.323751   -0.927689
     30          6           0        7.865629   -1.011789   -2.210748
     31          6           0       -1.342193    5.081395    0.362136
     32          6           0       -4.052868    3.203861   -2.055877
     33          6           0       -3.861791    0.031806   -1.328098
     34          6           0       -2.569304   -1.647238    3.259461
     35          6           0       -3.777763   -1.321554   -1.142316
     36          6           0        9.099775   -1.015405   -1.732498
     37          6           0       -0.771200    6.440961    0.395740
     38          6           0       -4.845621   -2.300258   -1.586141
     39          6           0       -4.484716   -3.514848   -1.078277
     40          6           0       -3.016971   -3.150409   -0.474563
     41          6           0       -6.154083   -1.892988   -2.178231
     42          6           0       -4.949196   -4.901532   -1.251060
     43          6           0       -7.033921   -2.765632   -2.794312
     44          1           0        4.399982   -2.653767    0.091328
     45          1           0        5.091244    0.209845    1.425866
     46          1           0        4.741290   -1.210250    2.137053
     47          1           0        2.949759    1.061751   -0.305118
     48          1           0        3.191119   -0.911950   -1.540822
     49          1           0       -0.600515    0.131752    3.579597
     50          1           0       -1.328152    0.490878    2.276156
     51          1           0        0.846763    2.959604   -0.073913
     52          1           0        2.994806   -1.873299    3.852766
     53          1           0        1.320685   -1.668035    4.257255
     54          1           0        1.778630   -2.809939    2.855092
     55          1           0        6.376026   -2.620578    1.532429
     56          1           0        7.661898   -1.130327    1.277343
     57          1           0        7.675385   -2.795082    0.628406
     58          1           0       -1.245363   -1.754854    1.654405
     59          1           0       -0.483621   -2.115764    3.209317
     60          1           0       -1.768138   -0.221204   -0.091514
     61          1           0       -1.968013    4.991561   -1.623135
     62          1           0       -0.185206    4.382888   -1.298307
     63          1           0        7.621045   -0.783350   -3.387805
     64          1           0       -0.678175    4.441821    1.116401
     65          1           0       -2.271344    4.814936    0.899666
     66          1           0       -3.692691    4.194328   -2.032069
     67          1           0       -5.113875    2.932300   -1.745038
     68          1           0       -4.098112    2.887154   -3.159572
     69          1           0       -4.740940    0.569739   -1.605194
     70          1           0        9.353929   -1.171575   -0.599123
     71          1           0       10.034418   -1.089440   -2.229396
     72          1           0       -3.849785   -2.952759    3.802768
     73          1           0       -6.438981   -0.795566   -2.264316
     74          1           0       -4.846221   -5.383219   -2.295563
     75          1           0       -4.277529   -5.476823   -0.520346
     76          1           0       -5.978439   -5.082433   -1.117809
     77          1           0       -0.756088    8.188457    1.348837
     78          1           0       -7.926953   -2.207551   -3.348012
     79          1           0       -7.028452   -3.841970   -2.697807
 ---------------------------------------------------------------------

 SCF Done:  E(RB3LYP) =  -1947.83232152     A.U. after   19 cycles

 Excitation energies and oscillator strengths:

 Excited State   1:      Singlet-A      2.2776 eV  544.36 nm  f=0.3072  <S**2>=0.000
     153 ->156        -0.26361
     154 ->156        -0.37113
     155 ->156         0.53049
 This state for optimization and/or second-order correction.
 Total Energy, E(TD-HF/TD-KS) =  -1947.74862050
 Copying the excited state density for this state as the 1-particle RhoCI density.

 The electronic state is 1-A.
 Alpha  occ. eigenvalues --  -19.19188 -19.18715 -19.13677 -19.11550 -19.09360
 Alpha  occ. eigenvalues --  -19.08771 -14.39346 -14.36869 -14.36283 -14.29655
 Alpha  occ. eigenvalues --  -10.34205 -10.31080 -10.28035 -10.27187 -10.25884
 Alpha  occ. eigenvalues --  -10.24634 -10.24390 -10.24371 -10.23615 -10.23557
 Alpha  occ. eigenvalues --  -10.23363 -10.22918 -10.22913 -10.22372 -10.22343
 Alpha  occ. eigenvalues --  -10.21831 -10.21747 -10.21653 -10.21576 -10.21208
 Alpha  occ. eigenvalues --  -10.21162 -10.20831 -10.20710 -10.20282 -10.20193
 Alpha  occ. eigenvalues --  -10.20032 -10.19872 -10.19790 -10.19692 -10.18766
 Alpha  occ. eigenvalues --  -10.18034 -10.16918 -10.16502  -1.08555  -1.06443
 Alpha  occ. eigenvalues --   -1.04785  -0.99955  -0.99056  -0.98929  -0.98031
 Alpha  occ. eigenvalues --   -0.97861  -0.94344  -0.92606  -0.85289  -0.83237
 Alpha  occ. eigenvalues --   -0.82139  -0.81629  -0.79758  -0.79518  -0.78123
 Alpha  occ. eigenvalues --   -0.77666  -0.77119  -0.75965  -0.73998  -0.73536
 Alpha  occ. eigenvalues --   -0.72939  -0.71326  -0.69656  -0.68967  -0.68584
 Alpha  occ. eigenvalues --   -0.66596  -0.66129  -0.64714  -0.61577  -0.60521
 Alpha  occ. eigenvalues --   -0.60022  -0.58766  -0.58503  -0.58408  -0.57871
 Alpha  occ. eigenvalues --   -0.56801  -0.55811  -0.55515  -0.54740  -0.52909
 Alpha  occ. eigenvalues --   -0.52348  -0.52082  -0.51854  -0.50838  -0.50180
 Alpha  occ. eigenvalues --   -0.49114  -0.49028  -0.48257  -0.47891  -0.47780
 Alpha  occ. eigenvalues --   -0.47410  -0.47355  -0.46871  -0.46238  -0.45338
 Alpha  occ. eigenvalues --   -0.45265  -0.44785  -0.44411  -0.44289  -0.44174
 Alpha  occ. eigenvalues --   -0.44048  -0.43539  -0.42982  -0.42745  -0.42563
 Alpha  occ. eigenvalues --   -0.42416  -0.42264  -0.42074  -0.41374  -0.41114
 Alpha  occ. eigenvalues --   -0.40761  -0.40408  -0.40207  -0.40032  -0.39853
 Alpha  occ. eigenvalues --   -0.39806  -0.39418  -0.39330  -0.38847  -0.38535
 Alpha  occ. eigenvalues --   -0.38037  -0.37905  -0.37230  -0.36584  -0.36464
 Alpha  occ. eigenvalues --   -0.35992  -0.35676  -0.34437  -0.34323  -0.33895
 Alpha  occ. eigenvalues --   -0.33119  -0.32857  -0.32419  -0.31901  -0.31810
 Alpha  occ. eigenvalues --   -0.31708  -0.31041  -0.28719  -0.28576  -0.28065
 Alpha  occ. eigenvalues --   -0.27616  -0.26279  -0.25852  -0.25715  -0.25361
 Alpha  occ. eigenvalues --   -0.24927  -0.23881  -0.22969  -0.22183  -0.19748
 Alpha virt. eigenvalues --   -0.10945  -0.06206  -0.05953  -0.04312  -0.01245
 Alpha virt. eigenvalues --    0.00204   0.01002   0.01565   0.01928   0.03165
 Alpha virt. eigenvalues --    0.03318   0.03735   0.04108   0.04296   0.04430

 Mulliken charges:
               1
     1  O   -0.190815
     2  O   -0.165750
     3  O   -0.247403
     4  O   -0.247582
     5  O   -0.287958
     6  O   -0.263481
     7  N   -0.105932
     8  N   -0.193473
     9  N   -0.124936
    10  N   -0.182787
    11  C   -0.006641
    12  C    0.234369
    13  C   -0.126174
    14  C   -0.030402
    15  C   -0.076027
    16  C    0.091906
    17  C   -0.185664
    18  C    0.167071
    19  C   -0.047896
    20  C   -0.120446
    21  C    0.153973
    22  C    0.103312
    23  C   -0.050356
    24  C   -0.025387
    25  C    0.143151
    26  C   -0.126827
    27  C   -0.013502
    28  C    0.009783
    29  C    0.016449
    30  C    0.016419
    31  C   -0.017732
    32  C    0.082106
    33  C   -0.061508
    34  C    0.138020
    35  C    0.119507
    36  C   -0.068175
    37  C    0.224711
    38  C    0.050129
    39  C   -0.179851
    40  C    0.116831
    41  C   -0.037623
    42  C    0.041537
    43  C   -0.057276
    44  H    0.062428
    45  H   -0.001348
    46  H   -0.034951
    47  H    0.153561
    48  H    0.170335
    49  H   -0.030837
    50  H   -0.044945
    51  H    0.027301
    52  H    0.021216
    53  H    0.046795
    54  H    0.053205
    55  H    0.010460
    56  H    0.067457
    57  H   -0.015518
    58  H    0.026669
    59  H   -0.000960
    60  H    0.154521
    61  H    0.041891
    62  H    0.042744
    63  H    0.052292
    64  H    0.062588
    65  H    0.026220
    66  H   -0.005592
    67  H    0.044551
    68  H    0.038364
    69  H   -0.054009
    70  H    0.014837
    71  H    0.024274
    72  H    0.201420
    73  H    0.013235
    74  H    0.040389
    75  H    0.050074
    76  H    0.008786
    77  H    0.207493
    78  H    0.039245
    79  H    0.018141
 Sum of Mulliken charges =   0.00000

 Dipole moment (field-independent basis, Debye):
    X=              1.5882    Y=              1.5836    Z=              3.6410  Tot=              4.2763
 Quadrupole moment (field-independent basis, Debye-Ang):
   XX=           -218.2321   YY=           -249.7582   ZZ=           -261.1380
   XY=            -18.8356   XZ=             31.6939   YZ=             -5.3587

 Normal termination of Gaussian 09 at Wed Jul 10 02:54:32 2019.
