 Gaussian 09, Revision D.01,
 Gaussian 09:  ES64L-G09RevD.01 24-Apr-2013

 --------------------------
 # td=(NStates=1) B3LYP/SVP
 --------------------------

 --
 TD
 --
 Symbolic Z-matrix:
 Charge =  0 Multiplicity = 1

                         Standard orientation:
 ---------------------------------------------------------------------
 Center     Atomic      Atomic             Coordinates (Angstroms)
 Number     Number       Type             X           Y           Z
 ---------------------------------------------------------------------
      1          8           0        5.391173   -0.349811   -3.298338
      2          8           0       -2.717293   -3.134491    3.360992
      3          8           0       -3.177833   -0.908706    3.190958
      4          8           0       -2.157233    7.250215    1.271340
      5          8           0       -0.682332    7.036479   -0.372355
      6          8           0       -1.800327   -4.071831   -0.077679
      7          7           0        2.435030    0.953529    0.543750
      8          7           0        4.384450   -0.725886   -1.261654
      9          7           0       -1.870335    0.642468   -0.273340
     10          7           0       -2.660748   -1.897127   -0.441745
     11          6           0        4.994808   -1.197690    0.019651
     12          6           0        4.524080   -0.161383    1.169144
     13          6           0        2.945095    0.016004    1.325733
     14          6           0        2.034349   -0.528732    2.083564
     15          6           0        0.719460   -0.040335    1.796997
     16          6           0        1.007455    0.834313    0.706920
     17          6           0        6.437499   -1.161557   -0.147351
     18          6           0       -0.549553   -0.240395    2.483040
     19          6           0        6.797069   -0.877508   -1.378403
     20          6           0        0.220314    1.910185    0.104309
     21          6           0       -1.089291    1.777131   -0.290769
     22          6           0        5.477134   -0.709497   -2.173674
     23          6           0       -1.991626    2.808118   -0.777326
     24          6           0        2.371028   -1.502281    3.138206
     25          6           0        7.274302   -1.649066    0.994567
     26          6           0       -3.114292    2.212481   -1.322755
     27          6           0       -0.961950   -1.751114    2.623973
     28          6           0       -3.152093    0.896960   -0.884169
     29          6           0       -1.621659    4.229836   -0.966891
     30          6           0        8.008868   -0.596136   -2.134823
     31          6           0       -2.169158    5.117369    0.272998
     32          6           0       -4.330713    3.013445   -1.807729
     33          6           0       -4.060013   -0.149861   -1.152851
     34          6           0       -2.334725   -1.819913    3.124463
     35          6           0       -3.801763   -1.493096   -0.982296
     36          6           0        9.190986   -0.331860   -1.583260
     37          6           0       -1.541850    6.496541    0.317584
     38          6           0       -4.666287   -2.660698   -1.383685
     39          6           0       -4.016913   -3.752746   -1.158243
     40          6           0       -2.719119   -3.273648   -0.522654
     41          6           0       -5.930490   -2.376360   -2.007824
     42          6           0       -4.464024   -5.255218   -1.275748
     43          6           0       -6.681128   -3.295604   -2.742556
     44          1           0        4.564493   -2.184887    0.439483
     45          1           0        5.060843    0.795961    0.921698
     46          1           0        4.992776   -0.442669    2.157725
     47          1           0        2.830812    1.350344   -0.175294
     48          1           0        3.504076   -1.314429   -1.638080
     49          1           0       -0.664711    0.358117    3.471910
     50          1           0       -1.201253    0.450664    1.907400
     51          1           0        0.654715    3.078607   -0.206344
     52          1           0        3.410097   -1.342644    3.529359
     53          1           0        1.860630   -1.303333    4.248924
     54          1           0        2.029390   -2.540721    2.839002
     55          1           0        6.886313   -2.658663    1.523356
     56          1           0        7.547988   -0.633151    1.791643
     57          1           0        8.304209   -1.635108    0.728821
     58          1           0       -1.054082   -2.011197    1.553559
     59          1           0       -0.222120   -2.294575    3.013647
     60          1           0       -1.617304   -0.288854   -0.203769
     61          1           0       -1.950348    4.674010   -1.887410
     62          1           0       -0.746862    4.140129   -1.166241
     63          1           0        7.969381   -0.625650   -3.170051
     64          1           0       -1.858055    4.440276    1.278886
     65          1           0       -3.186749    5.314654    0.399097
     66          1           0       -4.141509    3.990001   -2.158843
     67          1           0       -5.217136    2.935712   -1.133955
     68          1           0       -4.678880    2.561881   -2.757543
     69          1           0       -5.300861    0.189012   -1.305206
     70          1           0        9.445124   -0.279301   -0.499607
     71          1           0       10.139694   -0.108287   -2.247355
     72          1           0       -3.681541   -2.877534    3.655438
     73          1           0       -6.466017   -1.394804   -1.923479
     74          1           0       -4.390114   -5.666064   -2.289294
     75          1           0       -3.637073   -5.769839   -0.654957
     76          1           0       -5.302795   -5.777510   -0.583479
     77          1           0       -1.591717    8.088345    1.212020
     78          1           0       -7.626276   -3.257934   -3.094653
     79          1           0       -6.367979   -4.272393   -2.953661
 ---------------------------------------------------------------------

 SCF Done:  E(RB3LYP) =  -1947.76378354     A.U. after   19 cycles

 Excitation energies and oscillator strengths:

 Excited State   1:      Singlet-A      2.1423 eV  578.73 nm  f=0.4899  <S**2>=0.000
     155 ->156         0.69560
     155 <-156        -0.12295
 This state for optimization and/or second-order correction.
 Total Energy, E(TD-HF/TD-KS) =  -1947.68505410
 Copying the excited state density for this state as the 1-particle RhoCI density.

 The electronic state is 1-A.
 Alpha  occ. eigenvalues --  -19.18605 -19.16772 -19.13679 -19.11890 -19.11499
 Alpha  occ. eigenvalues --  -19.09230 -14.37174 -14.36265 -14.35744 -14.29270
 Alpha  occ. eigenvalues --  -10.33023 -10.31080 -10.28978 -10.26198 -10.25425
 Alpha  occ. eigenvalues --  -10.24878 -10.24151 -10.23975 -10.23814 -10.23694
 Alpha  occ. eigenvalues --  -10.23515 -10.22807 -10.22727 -10.22682 -10.22204
 Alpha  occ. eigenvalues --  -10.21239 -10.21114 -10.20926 -10.20812 -10.20532
 Alpha  occ. eigenvalues --  -10.20476 -10.20431 -10.20403 -10.20383 -10.20095
 Alpha  occ. eigenvalues --  -10.19847 -10.19781 -10.19723 -10.19361 -10.19201
 Alpha  occ. eigenvalues --  -10.18856 -10.18407 -10.18200  -1.09969  -1.06683
 Alpha  occ. eigenvalues --   -1.04970  -0.99863  -0.99837  -0.98031  -0.97372
 Alpha  occ. eigenvalues --   -0.97315  -0.93700  -0.91757  -0.83526  -0.83176
 Alpha  occ. eigenvalues --   -0.83029  -0.81576  -0.80465  -0.79180  -0.78201
 Alpha  occ. eigenvalues --   -0.77823  -0.76891  -0.75079  -0.73750  -0.72932
 Alpha  occ. eigenvalues --   -0.71873  -0.71028  -0.70339  -0.69460  -0.68842
 Alpha  occ. eigenvalues --   -0.67708  -0.65721  -0.63501  -0.61218  -0.60474
 Alpha  occ. eigenvalues --   -0.59278  -0.58927  -0.57869  -0.57104  -0.56927
 Alpha  occ. eigenvalues --   -0.56529  -0.55851  -0.55527  -0.54144  -0.52986
 Alpha  occ. eigenvalues --   -0.52204  -0.51854  -0.51198  -0.50179  -0.50043
 Alpha  occ. eigenvalues --   -0.49377  -0.49134  -0.48553  -0.47895  -0.47349
 Alpha  occ. eigenvalues --   -0.47171  -0.46940  -0.46479  -0.46204  -0.46052
 Alpha  occ. eigenvalues --   -0.45494  -0.44942  -0.44447  -0.43874  -0.43613
 Alpha  occ. eigenvalues --   -0.43298  -0.43273  -0.42807  -0.42460  -0.42415
 Alpha  occ. eigenvalues --   -0.42206  -0.41937  -0.41523  -0.41192  -0.41063
 Alpha  occ. eigenvalues --   -0.40672  -0.40315  -0.40163  -0.39877  -0.39503
 Alpha  occ. eigenvalues --   -0.39456  -0.39001  -0.38417  -0.38231  -0.38152
 Alpha  occ. eigenvalues --   -0.37556  -0.37417  -0.37338  -0.36788  -0.36579
 Alpha  occ. eigenvalues --   -0.36098  -0.35658  -0.35515  -0.34840  -0.34679
 Alpha  occ. eigenvalues --   -0.32950  -0.32722  -0.32634  -0.32493  -0.32361
 Alpha  occ. eigenvalues --   -0.31087  -0.30400  -0.29147  -0.28740  -0.27981
 Alpha  occ. eigenvalues --   -0.27554  -0.27287  -0.26688  -0.26002  -0.25199
 Alpha  occ. eigenvalues --   -0.25009  -0.24027  -0.23358  -0.22907  -0.19400
 Alpha virt. eigenvalues --   -0.11181  -0.06465  -0.06261  -0.01842  -0.01123
 Alpha virt. eigenvalues --   -0.00197   0.00176   0.00543   0.01567   0.03069
 Alpha virt. eigenvalues --    0.03375   0.03827   0.04446   0.04807   0.05056

 Mulliken charges:
               1
     1  O   -0.167909
     2  O   -0.230356
     3  O   -0.270518
     4  O   -0.211090
     5  O   -0.245093
     6  O   -0.287025
     7  N    0.008760
     8  N   -0.247895
     9  N   -0.086888
    10  N   -0.242041
    11  C    0.030127
    12  C    0.120049
    13  C   -0.035966
    14  C   -0.144060
    15  C   -0.052246
    16  C    0.027915
    17  C   -0.141594
    18  C    0.060793
    19  C   -0.007501
    20  C   -0.133299
    21  C    0.092766
    22  C    0.115716
    23  C   -0.137815
    24  C   -0.002716
    25  C    0.035636
    26  C   -0.122062
    27  C    0.117957
    28  C    0.119134
    29  C    0.292510
    30  C    0.060120
    31  C   -0.030810
    32  C    0.108293
    33  C   -0.144148
    34  C    0.161104
    35  C    0.050668
    36  C   -0.079372
    37  C    0.150362
    38  C    0.143189
    39  C   -0.183741
    40  C    0.159638
    41  C   -0.066409
    42  C    0.011112
    43  C    0.018019
    44  H    0.033981
    45  H   -0.003634
    46  H    0.012350
    47  H    0.063088
    48  H    0.176722
    49  H    0.022246
    50  H    0.003415
    51  H    0.061857
    52  H    0.013013
    53  H    0.024229
    54  H    0.060384
    55  H    0.076330
    56  H    0.036860
    57  H   -0.002281
    58  H    0.078243
    59  H   -0.020718
    60  H    0.110688
    61  H   -0.001541
    62  H   -0.116072
    63  H   -0.012324
    64  H    0.084087
    65  H    0.034865
    66  H   -0.004407
    67  H    0.042667
    68  H    0.009760
    69  H    0.041649
    70  H    0.024982
    71  H    0.044842
    72  H    0.193490
    73  H    0.002989
    74  H    0.039470
    75  H    0.027171
    76  H    0.051761
    77  H    0.193556
    78  H   -0.011044
    79  H   -0.005983
 Sum of Mulliken charges =   0.00000

 Dipole moment (field-independent basis, Debye):
    X=              2.1391    Y=              2.6699    Z=              2.1405  Tot=              4.0356
 Quadrupole moment (field-independent basis, Debye-Ang):
   XX=           -209.8900   YY=           -255.5316   ZZ=           -261.2363
   XY=            -13.2984   XZ=             28.2163   YZ=              3.3754

 Normal termination of Gaussian 09 at Tue Jul  9 10:58:37 2019.
