 Gaussian 09, Revision D.01,
 Gaussian 09:  ES64L-G09RevD.01 24-Apr-2013

 --------------------------
 # td=(NStates=1) B3LYP/SVP
 --------------------------

 --
 TD
 --
 Symbolic Z-matrix:
 Charge =  0 Multiplicity = 1

                         Standard orientation:
 ---------------------------------------------------------------------
 Center     Atomic      Atomic             Coordinates (Angstroms)
 Number     Number       Type             X           Y           Z
 ---------------------------------------------------------------------
      1          8           0        5.293759   -0.240524   -3.368937
      2          8           0       -2.967127   -3.274941    3.053368
      3          8           0       -3.259973   -1.051808    3.379344
      4          8           0       -1.224062    7.277860    1.630958
      5          8           0       -0.022073    6.856355   -0.250041
      6          8           0       -2.186541   -3.992561   -0.038334
      7          7           0        2.416056    0.975434    0.721977
      8          7           0        4.274008   -0.874324   -1.306972
      9          7           0       -1.874947    0.797456   -0.308287
     10          7           0       -2.737781   -1.744272   -0.536948
     11          6           0        4.750372   -1.379280   -0.073362
     12          6           0        4.440573   -0.413952    1.214894
     13          6           0        3.003297   -0.139312    1.344212
     14          6           0        1.985649   -0.729280    2.057373
     15          6           0        0.740451   -0.163073    1.750722
     16          6           0        1.050859    0.926012    0.848114
     17          6           0        6.250036   -1.682189   -0.247765
     18          6           0       -0.589292   -0.418237    2.431373
     19          6           0        6.641822   -1.074848   -1.405269
     20          6           0        0.243836    1.853527    0.222542
     21          6           0       -1.022292    1.952888   -0.299617
     22          6           0        5.387653   -0.555292   -2.155159
     23          6           0       -1.813699    3.027393   -0.797308
     24          6           0        2.130362   -1.852275    3.131432
     25          6           0        7.072337   -2.113942    0.860896
     26          6           0       -3.036251    2.530483   -1.241170
     27          6           0       -1.121324   -1.854698    2.422454
     28          6           0       -3.060507    1.067971   -0.988098
     29          6           0       -1.186653    4.474270   -0.829573
     30          6           0        7.927233   -0.933760   -2.159305
     31          6           0       -1.492652    5.131802    0.563065
     32          6           0       -4.098460    3.270461   -1.948963
     33          6           0       -3.979998    0.182373   -1.329790
     34          6           0       -2.464319   -1.985099    2.936329
     35          6           0       -3.790309   -1.190079   -1.117282
     36          6           0        9.140334   -0.920301   -1.616273
     37          6           0       -0.819431    6.485603    0.628147
     38          6           0       -4.890431   -2.288074   -1.438778
     39          6           0       -4.329625   -3.449172   -1.023976
     40          6           0       -3.010754   -3.147887   -0.380153
     41          6           0       -6.115852   -2.055926   -2.073364
     42          6           0       -4.878455   -4.840216   -1.145682
     43          6           0       -6.910748   -2.887774   -2.916579
     44          1           0        4.238850   -2.371233    0.193395
     45          1           0        4.965934    0.557849    0.955611
     46          1           0        4.777723   -0.928630    2.064152
     47          1           0        2.952452    1.508575   -0.098918
     48          1           0        3.385992   -0.919281   -1.535641
     49          1           0       -0.629954   -0.136553    3.428209
     50          1           0       -1.492679    0.257840    2.137578
     51          1           0        0.830235    2.762877   -0.055953
     52          1           0        3.221328   -2.159057    3.158064
     53          1           0        1.962348   -1.513891    4.220390
     54          1           0        1.568703   -2.725510    2.893319
     55          1           0        6.695726   -2.891483    1.537382
     56          1           0        7.598763   -1.375202    1.478077
     57          1           0        7.901369   -2.692913    0.435852
     58          1           0       -1.227382   -2.074447    1.448835
     59          1           0       -0.383583   -2.630082    2.814566
     60          1           0       -1.665870   -0.274095   -0.128999
     61          1           0       -1.627788    5.057250   -1.717877
     62          1           0       -0.057837    4.243171   -1.102912
     63          1           0        7.896305   -0.848656   -3.150389
     64          1           0       -1.399601    4.575225    1.488860
     65          1           0       -2.601772    5.278810    0.635954
     66          1           0       -3.505354    4.295359   -2.601997
     67          1           0       -4.885561    3.654568   -1.135002
     68          1           0       -4.551299    2.698581   -2.752373
     69          1           0       -5.031302    0.534230   -1.644327
     70          1           0        9.212388   -0.652075   -0.476969
     71          1           0       10.057093   -1.087274   -2.165894
     72          1           0       -3.761658   -3.105143    3.367639
     73          1           0       -6.427783   -0.956220   -1.925370
     74          1           0       -4.492259   -5.550040   -2.083945
     75          1           0       -4.536115   -5.155016    0.014504
     76          1           0       -6.165928   -4.720937   -1.168907
     77          1           0       -0.854102    8.152749    1.501680
     78          1           0       -7.756485   -2.429046   -3.351539
     79          1           0       -6.746674   -4.024111   -3.260802
 ---------------------------------------------------------------------

 SCF Done:  E(RB3LYP) =  -1947.85194364     A.U. after   16 cycles

 Excitation energies and oscillator strengths:

 Excited State   1:      Singlet-A      2.1207 eV  584.63 nm  f=0.5251  <S**2>=0.000
     154 ->156         0.12140
     155 ->156         0.69213
     155 <-156        -0.10734
 This state for optimization and/or second-order correction.
 Total Energy, E(TD-HF/TD-KS) =  -1947.77400803
 Copying the excited state density for this state as the 1-particle RhoCI density.

 The electronic state is 1-A.
 Alpha  occ. eigenvalues --  -19.19562 -19.16269 -19.12936 -19.11416 -19.11144
 Alpha  occ. eigenvalues --  -19.10863 -14.39636 -14.35585 -14.35550 -14.30020
 Alpha  occ. eigenvalues --  -10.33033 -10.31799 -10.30092 -10.27032 -10.25764
 Alpha  occ. eigenvalues --  -10.23908 -10.23873 -10.23818 -10.23669 -10.23646
 Alpha  occ. eigenvalues --  -10.22997 -10.22849 -10.22754 -10.22545 -10.22268
 Alpha  occ. eigenvalues --  -10.22190 -10.21912 -10.21511 -10.21483 -10.21249
 Alpha  occ. eigenvalues --  -10.21205 -10.20910 -10.20871 -10.20736 -10.20491
 Alpha  occ. eigenvalues --  -10.20270 -10.19925 -10.19837 -10.19681 -10.19395
 Alpha  occ. eigenvalues --  -10.19346 -10.19043 -10.18753  -1.10545  -1.08487
 Alpha  occ. eigenvalues --   -1.01130  -1.01116  -1.00177  -0.98685  -0.95935
 Alpha  occ. eigenvalues --   -0.95787  -0.94520  -0.91517  -0.83213  -0.82398
 Alpha  occ. eigenvalues --   -0.81812  -0.81329  -0.80244  -0.79733  -0.78191
 Alpha  occ. eigenvalues --   -0.77741  -0.77580  -0.76033  -0.73896  -0.72791
 Alpha  occ. eigenvalues --   -0.72289  -0.70966  -0.69026  -0.68082  -0.67779
 Alpha  occ. eigenvalues --   -0.67357  -0.65986  -0.63788  -0.61890  -0.61190
 Alpha  occ. eigenvalues --   -0.60849  -0.59703  -0.59495  -0.58254  -0.56763
 Alpha  occ. eigenvalues --   -0.56011  -0.55405  -0.54783  -0.54120  -0.53158
 Alpha  occ. eigenvalues --   -0.52218  -0.51463  -0.50921  -0.50679  -0.49768
 Alpha  occ. eigenvalues --   -0.49129  -0.48960  -0.48653  -0.48116  -0.47575
 Alpha  occ. eigenvalues --   -0.47020  -0.46837  -0.46653  -0.46115  -0.45428
 Alpha  occ. eigenvalues --   -0.45178  -0.44924  -0.44737  -0.43943  -0.43802
 Alpha  occ. eigenvalues --   -0.43301  -0.42892  -0.42711  -0.42546  -0.42410
 Alpha  occ. eigenvalues --   -0.42191  -0.41779  -0.41725  -0.41265  -0.41138
 Alpha  occ. eigenvalues --   -0.40907  -0.40591  -0.40416  -0.39635  -0.39508
 Alpha  occ. eigenvalues --   -0.39277  -0.39131  -0.38959  -0.38696  -0.38540
 Alpha  occ. eigenvalues --   -0.38109  -0.37505  -0.37410  -0.37195  -0.36527
 Alpha  occ. eigenvalues --   -0.36138  -0.35747  -0.35225  -0.35116  -0.34459
 Alpha  occ. eigenvalues --   -0.34156  -0.33289  -0.32845  -0.32718  -0.31335
 Alpha  occ. eigenvalues --   -0.30909  -0.29767  -0.28960  -0.28582  -0.27806
 Alpha  occ. eigenvalues --   -0.26934  -0.26501  -0.26144  -0.25837  -0.25465
 Alpha  occ. eigenvalues --   -0.25071  -0.24402  -0.24148  -0.22179  -0.18830
 Alpha virt. eigenvalues --   -0.10549  -0.06980  -0.06423  -0.01797  -0.01140
 Alpha virt. eigenvalues --   -0.00976  -0.00757   0.01003   0.01878   0.02166
 Alpha virt. eigenvalues --    0.03013   0.03907   0.04419   0.04813   0.05024

 Mulliken charges:
               1
     1  O   -0.252056
     2  O   -0.127387
     3  O   -0.324129
     4  O   -0.159890
     5  O   -0.260305
     6  O   -0.211522
     7  N   -0.121653
     8  N   -0.140359
     9  N   -0.197484
    10  N   -0.304877
    11  C    0.007490
    12  C    0.240997
    13  C   -0.081585
    14  C   -0.140193
    15  C   -0.018554
    16  C    0.084217
    17  C   -0.102091
    18  C    0.031787
    19  C   -0.070408
    20  C   -0.080704
    21  C    0.076666
    22  C    0.197654
    23  C   -0.069997
    24  C    0.075617
    25  C    0.068300
    26  C   -0.124943
    27  C    0.114231
    28  C    0.185136
    29  C    0.070455
    30  C    0.051091
    31  C    0.004679
    32  C   -0.014516
    33  C   -0.180261
    34  C    0.132133
    35  C    0.089777
    36  C   -0.046746
    37  C    0.155416
    38  C    0.070506
    39  C   -0.153909
    40  C    0.174393
    41  C   -0.086772
    42  C   -0.089950
    43  C   -0.047355
    44  H    0.024090
    45  H   -0.002073
    46  H   -0.015344
    47  H    0.163100
    48  H    0.082562
    49  H   -0.012004
    50  H    0.035291
    51  H   -0.023590
    52  H   -0.011543
    53  H    0.042485
    54  H    0.033254
    55  H    0.007884
    56  H    0.045450
    57  H    0.021246
    58  H   -0.000300
    59  H    0.045479
    60  H    0.195320
    61  H    0.031343
    62  H    0.055218
    63  H   -0.030341
    64  H    0.043139
    65  H    0.038160
    66  H    0.040939
    67  H    0.062202
    68  H    0.038825
    69  H    0.003947
    70  H    0.034740
    71  H    0.030907
    72  H    0.115956
    73  H    0.017800
    74  H    0.083340
    75  H    0.068613
    76  H    0.048973
    77  H    0.180580
    78  H    0.017406
    79  H    0.064047
 Sum of Mulliken charges =   0.00000

 Dipole moment (field-independent basis, Debye):
    X=              2.2375    Y=              2.8170    Z=              2.7448  Tot=              4.5250
 Quadrupole moment (field-independent basis, Debye-Ang):
   XX=           -217.7922   YY=           -246.4149   ZZ=           -266.1868
   XY=            -19.0986   XZ=             35.4810   YZ=              5.0281

 Normal termination of Gaussian 09 at Wed Jul 10 12:45:29 2019.
