 Gaussian 09, Revision D.01,
 Gaussian 09:  ES64L-G09RevD.01 24-Apr-2013

 --------------------------
 # td=(NStates=1) B3LYP/SVP
 --------------------------

 --
 TD
 --
 Symbolic Z-matrix:
 Charge =  0 Multiplicity = 1

                         Standard orientation:
 ---------------------------------------------------------------------
 Center     Atomic      Atomic             Coordinates (Angstroms)
 Number     Number       Type             X           Y           Z
 ---------------------------------------------------------------------
      1          8           0        5.463728   -0.230754   -3.294228
      2          8           0       -2.993462   -2.896171    3.366392
      3          8           0       -3.277272   -0.629450    3.085768
      4          8           0       -1.788802    7.318803    1.372054
      5          8           0       -0.354490    6.800353   -0.304889
      6          8           0       -1.943687   -4.069339   -0.002491
      7          7           0        2.333449    0.803226    0.556491
      8          7           0        4.523179   -0.532742   -1.240214
      9          7           0       -1.818255    0.667356   -0.447959
     10          7           0       -2.611064   -1.912329   -0.649593
     11          6           0        4.846383   -1.153637   -0.042245
     12          6           0        4.394581   -0.416510    1.249272
     13          6           0        2.965113   -0.209350    1.294336
     14          6           0        1.942376   -0.764011    2.119318
     15          6           0        0.718089   -0.146323    1.750908
     16          6           0        0.998595    0.884689    0.708226
     17          6           0        6.387959   -1.228099   -0.062923
     18          6           0       -0.664244   -0.180902    2.451225
     19          6           0        6.847518   -0.849383   -1.330515
     20          6           0        0.183451    1.887851    0.145732
     21          6           0       -1.044856    1.790286   -0.322232
     22          6           0        5.617818   -0.529204   -2.094688
     23          6           0       -1.830078    2.938291   -0.872401
     24          6           0        2.114412   -1.864792    3.051192
     25          6           0        7.219399   -1.885542    0.955842
     26          6           0       -3.136927    2.417413   -1.244759
     27          6           0       -1.167098   -1.628708    2.404932
     28          6           0       -3.047755    0.945404   -1.017182
     29          6           0       -1.388637    4.356108   -0.858652
     30          6           0        8.156692   -0.679415   -1.916254
     31          6           0       -1.966999    5.091433    0.361386
     32          6           0       -4.326150    3.061882   -1.870071
     33          6           0       -4.045889   -0.050164   -1.305772
     34          6           0       -2.591534   -1.608269    2.994437
     35          6           0       -3.744342   -1.427447   -1.141314
     36          6           0        9.321180   -0.688484   -1.320886
     37          6           0       -1.304587    6.538398    0.501997
     38          6           0       -4.671533   -2.547286   -1.533600
     39          6           0       -4.115359   -3.669876   -1.156368
     40          6           0       -2.719249   -3.308493   -0.475441
     41          6           0       -6.010479   -2.360471   -2.066554
     42          6           0       -4.484605   -5.152181   -1.040076
     43          6           0       -6.883027   -3.274828   -2.489983
     44          1           0        4.134253   -2.003073    0.181994
     45          1           0        4.841726    0.627264    1.067986
     46          1           0        4.657949   -1.001981    2.006670
     47          1           0        2.711232    1.087913   -0.400238
     48          1           0        3.517286   -0.805672   -1.583753
     49          1           0       -0.517653    0.132191    3.548770
     50          1           0       -1.387314    0.634838    1.752698
     51          1           0        0.661921    2.791988   -0.057434
     52          1           0        3.193237   -1.835775    3.420558
     53          1           0        1.298750   -2.009185    3.906691
     54          1           0        2.112987   -2.968416    2.490827
     55          1           0        6.579643   -2.561757    1.619104
     56          1           0        7.276724   -1.141536    1.713596
     57          1           0        8.219695   -2.455332    0.489840
     58          1           0       -1.229625   -1.942584    1.383829
     59          1           0       -0.522482   -2.115604    3.221005
     60          1           0       -1.585719   -0.365368   -0.285893
     61          1           0       -1.797830    4.841182   -1.648144
     62          1           0       -0.422330    4.374832   -1.165970
     63          1           0        8.041335   -0.376059   -3.078987
     64          1           0       -1.566344    4.599315    1.284146
     65          1           0       -2.990109    4.968412    0.519822
     66          1           0       -4.078530    3.891853   -2.345730
     67          1           0       -5.254485    3.290556   -1.138328
     68          1           0       -4.646685    2.280053   -2.632344
     69          1           0       -4.832459    0.279711   -1.901294
     70          1           0        9.413581   -0.672981   -0.353842
     71          1           0       10.250132   -0.666234   -2.002319
     72          1           0       -4.005514   -2.893100    3.425037
     73          1           0       -6.243544   -1.364185   -2.441448
     74          1           0       -4.429496   -5.597269   -2.171446
     75          1           0       -3.713232   -5.600480   -0.491802
     76          1           0       -5.384277   -5.467106   -0.783569
     77          1           0       -1.239167    8.064988    1.304392
     78          1           0       -7.769628   -2.829760   -2.911254
     79          1           0       -6.554624   -4.448013   -2.216410
 ---------------------------------------------------------------------

 SCF Done:  E(RB3LYP) =  -1947.81797917     A.U. after   16 cycles

 Excitation energies and oscillator strengths:

 Excited State   1:      Singlet-A      2.1826 eV  568.06 nm  f=0.5006  <S**2>=0.000
     155 ->156         0.70264
     155 <-156        -0.10338
 This state for optimization and/or second-order correction.
 Total Energy, E(TD-HF/TD-KS) =  -1947.73777032
 Copying the excited state density for this state as the 1-particle RhoCI density.

 The electronic state is 1-A.
 Alpha  occ. eigenvalues --  -19.22084 -19.16348 -19.12709 -19.11913 -19.11246
 Alpha  occ. eigenvalues --  -19.10057 -14.38541 -14.36577 -14.36194 -14.28982
 Alpha  occ. eigenvalues --  -10.33825 -10.30478 -10.28908 -10.26805 -10.25211
 Alpha  occ. eigenvalues --  -10.24993 -10.23828 -10.23561 -10.23422 -10.23059
 Alpha  occ. eigenvalues --  -10.22754 -10.22654 -10.21989 -10.21936 -10.21858
 Alpha  occ. eigenvalues --  -10.21634 -10.21339 -10.21100 -10.21017 -10.20707
 Alpha  occ. eigenvalues --  -10.20654 -10.20383 -10.19708 -10.19626 -10.19612
 Alpha  occ. eigenvalues --  -10.19203 -10.19200 -10.19000 -10.18965 -10.18947
 Alpha  occ. eigenvalues --  -10.18718 -10.18684 -10.18239  -1.15672  -1.06600
 Alpha  occ. eigenvalues --   -1.03415  -1.02005  -0.99421  -0.98853  -0.98377
 Alpha  occ. eigenvalues --   -0.97399  -0.94928  -0.91883  -0.83138  -0.83088
 Alpha  occ. eigenvalues --   -0.82437  -0.81074  -0.80265  -0.80084  -0.78077
 Alpha  occ. eigenvalues --   -0.77517  -0.76291  -0.75915  -0.74303  -0.72922
 Alpha  occ. eigenvalues --   -0.72595  -0.70794  -0.69913  -0.69239  -0.69027
 Alpha  occ. eigenvalues --   -0.66266  -0.64766  -0.64092  -0.63406  -0.62461
 Alpha  occ. eigenvalues --   -0.60091  -0.58063  -0.57774  -0.57135  -0.56654
 Alpha  occ. eigenvalues --   -0.56195  -0.55142  -0.54671  -0.53913  -0.53885
 Alpha  occ. eigenvalues --   -0.52421  -0.51849  -0.51459  -0.51237  -0.50542
 Alpha  occ. eigenvalues --   -0.50016  -0.49276  -0.48714  -0.48397  -0.47936
 Alpha  occ. eigenvalues --   -0.47690  -0.47075  -0.46555  -0.46203  -0.45802
 Alpha  occ. eigenvalues --   -0.45578  -0.44905  -0.44515  -0.44128  -0.43791
 Alpha  occ. eigenvalues --   -0.43629  -0.43092  -0.42974  -0.42762  -0.42625
 Alpha  occ. eigenvalues --   -0.42456  -0.42374  -0.42248  -0.41945  -0.41604
 Alpha  occ. eigenvalues --   -0.41238  -0.40916  -0.40712  -0.39926  -0.39649
 Alpha  occ. eigenvalues --   -0.39443  -0.39223  -0.38853  -0.38593  -0.38461
 Alpha  occ. eigenvalues --   -0.38255  -0.38017  -0.37456  -0.37032  -0.36609
 Alpha  occ. eigenvalues --   -0.35985  -0.35863  -0.35203  -0.34840  -0.34591
 Alpha  occ. eigenvalues --   -0.34149  -0.33872  -0.32589  -0.32332  -0.31802
 Alpha  occ. eigenvalues --   -0.31160  -0.30833  -0.29010  -0.28215  -0.27750
 Alpha  occ. eigenvalues --   -0.26861  -0.26413  -0.25718  -0.25108  -0.24583
 Alpha  occ. eigenvalues --   -0.24384  -0.23723  -0.23484  -0.22264  -0.18916
 Alpha virt. eigenvalues --   -0.10306  -0.07118  -0.05637  -0.00876  -0.00582
 Alpha virt. eigenvalues --   -0.00048   0.00148   0.01420   0.02116   0.02994
 Alpha virt. eigenvalues --    0.03622   0.03762   0.04618   0.04826   0.04981

 Mulliken charges:
               1
     1  O   -0.244871
     2  O   -0.246147
     3  O   -0.204652
     4  O   -0.041978
     5  O   -0.303634
     6  O   -0.166088
     7  N   -0.079797
     8  N   -0.178632
     9  N   -0.104903
    10  N   -0.312517
    11  C   -0.017146
    12  C    0.334881
    13  C   -0.164968
    14  C   -0.052596
    15  C   -0.097468
    16  C    0.052083
    17  C   -0.150863
    18  C   -0.046798
    19  C   -0.041768
    20  C   -0.110787
    21  C    0.144418
    22  C    0.142215
    23  C   -0.168134
    24  C   -0.029615
    25  C    0.087198
    26  C   -0.134995
    27  C    0.030046
    28  C    0.073717
    29  C    0.269643
    30  C   -0.038114
    31  C    0.020337
    32  C    0.116298
    33  C   -0.054605
    34  C    0.135863
    35  C    0.105008
    36  C    0.018323
    37  C    0.122079
    38  C    0.058115
    39  C   -0.242617
    40  C    0.152565
    41  C   -0.040284
    42  C    0.144793
    43  C   -0.037529
    44  H    0.016152
    45  H    0.005173
    46  H   -0.083541
    47  H    0.140621
    48  H    0.166365
    49  H    0.021867
    50  H    0.070936
    51  H   -0.035559
    52  H    0.015218
    53  H    0.053559
    54  H    0.052061
    55  H    0.016385
    56  H    0.013430
    57  H    0.091126
    58  H    0.069222
    59  H    0.035865
    60  H    0.173874
    61  H   -0.042745
    62  H   -0.020431
    63  H    0.050450
    64  H    0.033862
    65  H    0.011485
    66  H   -0.026654
    67  H    0.054826
    68  H    0.034133
    69  H   -0.056330
    70  H   -0.032969
    71  H    0.046588
    72  H    0.195379
    73  H   -0.018345
    74  H    0.027389
    75  H    0.011547
    76  H   -0.007699
    77  H    0.160252
    78  H    0.019008
    79  H    0.041421
 Sum of Mulliken charges =   0.00000

 Dipole moment (field-independent basis, Debye):
    X=              0.9056    Y=              3.1833    Z=              3.2556  Tot=              4.6425
 Quadrupole moment (field-independent basis, Debye-Ang):
   XX=           -221.5353   YY=           -240.1881   ZZ=           -265.0073
   XY=            -19.8036   XZ=             31.2077   YZ=              2.9365

 Normal termination of Gaussian 09 at Tue Jul  9 03:49:25 2019.
