 Gaussian 09, Revision D.01,
 Gaussian 09:  ES64L-G09RevD.01 24-Apr-2013

 --------------------------
 # td=(NStates=1) B3LYP/SVP
 --------------------------

 --
 TD
 --
 Symbolic Z-matrix:
 Charge =  0 Multiplicity = 1

                         Standard orientation:
 ---------------------------------------------------------------------
 Center     Atomic      Atomic             Coordinates (Angstroms)
 Number     Number       Type             X           Y           Z
 ---------------------------------------------------------------------
      1          8           0        5.406957    0.056438   -3.288822
      2          8           0       -3.008097   -3.419910    2.767296
      3          8           0       -3.215130   -1.137378    3.401824
      4          8           0       -0.893304    7.321138    1.753246
      5          8           0       -0.079506    6.972243   -0.369841
      6          8           0       -2.163404   -3.915785   -0.367600
      7          7           0        2.394026    0.669094    0.485423
      8          7           0        4.353586   -0.763152   -1.380554
      9          7           0       -1.953365    0.771280   -0.340653
     10          7           0       -2.784873   -1.642673   -0.688049
     11          6           0        4.758069   -1.388203   -0.129990
     12          6           0        4.382071   -0.626713    1.112291
     13          6           0        2.986556   -0.327906    1.292089
     14          6           0        1.973461   -0.977371    2.058152
     15          6           0        0.736648   -0.425689    1.687745
     16          6           0        1.056120    0.656412    0.704817
     17          6           0        6.284630   -1.532367   -0.244076
     18          6           0       -0.566029   -0.600741    2.394626
     19          6           0        6.745751   -0.989764   -1.394249
     20          6           0        0.269752    1.721148    0.227846
     21          6           0       -1.087625    1.858866   -0.075803
     22          6           0        5.533880   -0.461867   -2.146304
     23          6           0       -1.706181    3.050817   -0.657124
     24          6           0        2.209258   -1.970721    3.100203
     25          6           0        6.992578   -2.206456    0.915731
     26          6           0       -3.000544    2.709683   -1.029635
     27          6           0       -1.152792   -2.011495    2.305985
     28          6           0       -3.126175    1.197933   -0.954988
     29          6           0       -1.106553    4.379085   -0.591992
     30          6           0        8.039131   -0.825007   -2.016555
     31          6           0       -1.293307    5.137897    0.727356
     32          6           0       -4.071669    3.465212   -1.653471
     33          6           0       -4.043634    0.288969   -1.280954
     34          6           0       -2.531830   -2.127463    2.853801
     35          6           0       -3.929976   -1.139604   -1.238591
     36          6           0        9.271964   -1.117462   -1.540623
     37          6           0       -0.626503    6.516470    0.595558
     38          6           0       -5.057142   -2.099268   -1.493748
     39          6           0       -4.407599   -3.280362   -1.312238
     40          6           0       -2.986846   -2.977233   -0.726727
     41          6           0       -6.450297   -1.773409   -1.859617
     42          6           0       -4.920955   -4.767937   -1.324174
     43          6           0       -7.323339   -2.658350   -2.356234
     44          1           0        4.231795   -2.296549    0.169582
     45          1           0        5.177024    0.303043    1.351317
     46          1           0        4.593935   -1.157695    2.080438
     47          1           0        2.902029    1.505459   -0.037058
     48          1           0        3.360499   -0.737338   -1.755603
     49          1           0       -0.391395   -0.176539    3.475812
     50          1           0       -1.282832   -0.055993    1.905550
     51          1           0        0.689559    2.856137    0.262886
     52          1           0        3.221919   -2.073288    3.408810
     53          1           0        1.445694   -1.869677    3.927626
     54          1           0        1.824081   -2.956628    2.737599
     55          1           0        6.219091   -2.749674    1.538878
     56          1           0        7.344270   -1.512015    1.708961
     57          1           0        7.928721   -3.064539    0.566386
     58          1           0       -0.990159   -2.731355    1.282343
     59          1           0       -0.679134   -2.639045    3.162314
     60          1           0       -1.546699   -0.188724   -0.293482
     61          1           0       -1.596451    4.831009   -1.269324
     62          1           0       -0.053509    4.502402   -0.760195
     63          1           0        7.844357   -0.460498   -3.055261
     64          1           0       -0.827592    4.564787    1.597145
     65          1           0       -2.365435    5.441496    0.916503
     66          1           0       -3.752810    4.478928   -2.062133
     67          1           0       -4.731137    3.607802   -0.753568
     68          1           0       -4.521265    2.924686   -2.613541
     69          1           0       -5.140956    0.794395   -1.471561
     70          1           0        9.456381   -1.537273   -0.555472
     71          1           0       10.137378   -0.918892   -2.216694
     72          1           0       -3.898710   -3.234543    3.352993
     73          1           0       -6.518776   -0.580178   -2.172163
     74          1           0       -5.384541   -4.871902   -2.349635
     75          1           0       -4.207695   -5.608409   -1.202255
     76          1           0       -5.857768   -5.066603   -0.677544
     77          1           0       -0.569571    8.287532    1.524961
     78          1           0       -8.307858   -2.277130   -2.717018
     79          1           0       -7.303438   -3.771624   -2.404233
 ---------------------------------------------------------------------

 SCF Done:  E(RB3LYP) =  -1947.83635521     A.U. after   19 cycles

 Excitation energies and oscillator strengths:

 Excited State   1:      Singlet-A      2.0673 eV  599.73 nm  f=0.4863  <S**2>=0.000
     155 ->156         0.70457
     155 <-156        -0.11916
 This state for optimization and/or second-order correction.
 Total Energy, E(TD-HF/TD-KS) =  -1947.76038198
 Copying the excited state density for this state as the 1-particle RhoCI density.

 The electronic state is 1-A.
 Alpha  occ. eigenvalues --  -19.18226 -19.18211 -19.14946 -19.11240 -19.10500
 Alpha  occ. eigenvalues --  -19.09766 -14.39563 -14.36121 -14.35773 -14.29725
 Alpha  occ. eigenvalues --  -10.33457 -10.31510 -10.29578 -10.26510 -10.25043
 Alpha  occ. eigenvalues --  -10.24944 -10.24541 -10.23971 -10.23858 -10.23580
 Alpha  occ. eigenvalues --  -10.23389 -10.23132 -10.23032 -10.22718 -10.22378
 Alpha  occ. eigenvalues --  -10.22016 -10.21896 -10.21849 -10.21504 -10.21383
 Alpha  occ. eigenvalues --  -10.20970 -10.20751 -10.20595 -10.20537 -10.20426
 Alpha  occ. eigenvalues --  -10.20313 -10.20306 -10.20181 -10.20036 -10.19837
 Alpha  occ. eigenvalues --  -10.19832 -10.19549 -10.19502  -1.08639  -1.05416
 Alpha  occ. eigenvalues --   -1.00432  -1.00031  -0.98189  -0.97775  -0.96600
 Alpha  occ. eigenvalues --   -0.94541  -0.92683  -0.91442  -0.84187  -0.82436
 Alpha  occ. eigenvalues --   -0.82165  -0.81777  -0.80327  -0.80303  -0.78613
 Alpha  occ. eigenvalues --   -0.77577  -0.76353  -0.75276  -0.74238  -0.72989
 Alpha  occ. eigenvalues --   -0.71772  -0.71474  -0.69653  -0.68793  -0.68599
 Alpha  occ. eigenvalues --   -0.66930  -0.65738  -0.63616  -0.61669  -0.59835
 Alpha  occ. eigenvalues --   -0.58825  -0.58298  -0.57588  -0.57370  -0.56261
 Alpha  occ. eigenvalues --   -0.55967  -0.55566  -0.53987  -0.53267  -0.52427
 Alpha  occ. eigenvalues --   -0.51756  -0.51451  -0.51203  -0.50559  -0.50068
 Alpha  occ. eigenvalues --   -0.48747  -0.48458  -0.48287  -0.48057  -0.47503
 Alpha  occ. eigenvalues --   -0.47171  -0.46866  -0.46272  -0.46123  -0.45922
 Alpha  occ. eigenvalues --   -0.45462  -0.45008  -0.44495  -0.43804  -0.43598
 Alpha  occ. eigenvalues --   -0.43302  -0.42706  -0.42393  -0.42238  -0.42171
 Alpha  occ. eigenvalues --   -0.42034  -0.41696  -0.41432  -0.41277  -0.41107
 Alpha  occ. eigenvalues --   -0.40398  -0.39967  -0.39762  -0.39590  -0.39360
 Alpha  occ. eigenvalues --   -0.39114  -0.38891  -0.38747  -0.38465  -0.38054
 Alpha  occ. eigenvalues --   -0.37963  -0.37814  -0.37301  -0.36959  -0.36592
 Alpha  occ. eigenvalues --   -0.36440  -0.35689  -0.35469  -0.34983  -0.34376
 Alpha  occ. eigenvalues --   -0.34030  -0.33024  -0.32685  -0.32585  -0.32334
 Alpha  occ. eigenvalues --   -0.31377  -0.29775  -0.29383  -0.28346  -0.27968
 Alpha  occ. eigenvalues --   -0.26307  -0.26050  -0.25858  -0.25769  -0.24929
 Alpha  occ. eigenvalues --   -0.24689  -0.23904  -0.23464  -0.22809  -0.18915
 Alpha virt. eigenvalues --   -0.10978  -0.06833  -0.06414  -0.02306  -0.01549
 Alpha virt. eigenvalues --   -0.00512  -0.00406   0.00194   0.02062   0.02666
 Alpha virt. eigenvalues --    0.02955   0.03079   0.03476   0.03862   0.04237

 Mulliken charges:
               1
     1  O   -0.261831
     2  O   -0.233152
     3  O   -0.341152
     4  O   -0.287682
     5  O   -0.199941
     6  O   -0.289241
     7  N   -0.119424
     8  N   -0.239672
     9  N   -0.133942
    10  N   -0.240884
    11  C    0.158584
    12  C    0.050732
    13  C   -0.074909
    14  C   -0.106090
    15  C   -0.117515
    16  C    0.095504
    17  C   -0.128551
    18  C    0.157554
    19  C   -0.039665
    20  C   -0.117460
    21  C    0.039395
    22  C    0.185403
    23  C   -0.089692
    24  C    0.125443
    25  C    0.007795
    26  C   -0.086433
    27  C   -0.093678
    28  C    0.113019
    29  C    0.226868
    30  C   -0.004943
    31  C   -0.036894
    32  C    0.017434
    33  C   -0.169619
    34  C    0.196510
    35  C    0.090281
    36  C   -0.021071
    37  C    0.158003
    38  C    0.010479
    39  C   -0.158724
    40  C    0.172898
    41  C   -0.000353
    42  C    0.023917
    43  C   -0.059308
    44  H    0.002600
    45  H    0.010165
    46  H   -0.010730
    47  H    0.173617
    48  H    0.158933
    49  H    0.046344
    50  H   -0.026863
    51  H    0.020087
    52  H    0.004287
    53  H    0.017648
    54  H    0.025920
    55  H    0.019031
    56  H    0.042448
    57  H    0.076872
    58  H    0.130398
    59  H    0.034368
    60  H    0.167524
    61  H   -0.076818
    62  H    0.011245
    63  H    0.021664
    64  H    0.062248
    65  H    0.053430
    66  H    0.029225
    67  H    0.052305
    68  H    0.061879
    69  H    0.018167
    70  H    0.017062
    71  H    0.039749
    72  H    0.218904
    73  H    0.039603
    74  H    0.020720
    75  H    0.041148
    76  H    0.038210
    77  H    0.213228
    78  H    0.030198
    79  H    0.037188
 Sum of Mulliken charges =   0.00000

 Dipole moment (field-independent basis, Debye):
    X=              0.8743    Y=              2.4984    Z=              3.1799  Tot=              4.1374
 Quadrupole moment (field-independent basis, Debye-Ang):
   XX=           -221.3603   YY=           -242.9029   ZZ=           -267.4765
   XY=            -14.7962   XZ=             38.0457   YZ=             -1.6522

 Normal termination of Gaussian 09 at Sun Jul  7 23:35:52 2019.
