 Gaussian 09, Revision D.01,
 Gaussian 09:  ES64L-G09RevD.01 24-Apr-2013

 --------------------------
 # td=(NStates=1) B3LYP/SVP
 --------------------------

 --
 TD
 --
 Symbolic Z-matrix:
 Charge =  0 Multiplicity = 1

                         Standard orientation:
 ---------------------------------------------------------------------
 Center     Atomic      Atomic             Coordinates (Angstroms)
 Number     Number       Type             X           Y           Z
 ---------------------------------------------------------------------
      1          8           0        5.369292   -0.106837   -3.343230
      2          8           0       -2.733033   -3.196755    3.109675
      3          8           0       -3.110261   -1.001247    3.525484
      4          8           0       -1.919501    7.091694    1.583186
      5          8           0       -1.046049    7.099914   -0.545947
      6          8           0       -1.727197   -3.913327    0.182274
      7          7           0        2.303290    0.980693    0.527457
      8          7           0        4.372502   -0.444636   -1.298916
      9          7           0       -2.036706    0.567222   -0.352840
     10          7           0       -2.533360   -1.852268   -0.594017
     11          6           0        4.837183   -1.062422    0.021247
     12          6           0        4.402983   -0.085269    1.150096
     13          6           0        2.949956    0.082339    1.301737
     14          6           0        2.051873   -0.561055    2.046451
     15          6           0        0.734557    0.050842    1.823808
     16          6           0        0.949530    0.937940    0.695747
     17          6           0        6.338626   -1.127669   -0.105633
     18          6           0       -0.578901   -0.163677    2.525384
     19          6           0        6.719644   -0.762312   -1.313158
     20          6           0        0.083985    1.927610    0.121811
     21          6           0       -1.206971    1.729127   -0.255096
     22          6           0        5.440381   -0.374890   -2.097280
     23          6           0       -2.062402    2.803429   -0.863815
     24          6           0        2.242710   -1.593219    3.242920
     25          6           0        7.225095   -1.650514    0.924570
     26          6           0       -3.177053    2.217186   -1.357161
     27          6           0       -0.915501   -1.762670    2.527663
     28          6           0       -3.162934    0.904519   -1.040343
     29          6           0       -1.706558    4.280160   -0.928683
     30          6           0        8.033561   -0.687347   -1.997608
     31          6           0       -1.964844    5.045521    0.360448
     32          6           0       -4.351357    2.987884   -1.874324
     33          6           0       -4.054310   -0.070231   -1.277271
     34          6           0       -2.369793   -1.892272    3.100616
     35          6           0       -3.703478   -1.483084   -1.068523
     36          6           0        9.267988   -0.722655   -1.536922
     37          6           0       -1.601396    6.524409    0.357576
     38          6           0       -4.495080   -2.658254   -1.549530
     39          6           0       -3.786940   -3.775883   -1.163114
     40          6           0       -2.546875   -3.255068   -0.485677
     41          6           0       -5.797110   -2.603723   -2.184541
     42          6           0       -4.094795   -5.182909   -1.220697
     43          6           0       -6.610859   -3.701640   -2.531775
     44          1           0        4.212921   -1.969606    0.056048
     45          1           0        4.983366    0.778840    0.793938
     46          1           0        4.709615   -0.519196    2.087374
     47          1           0        3.034007    1.365707   -0.185921
     48          1           0        3.447704   -0.390048   -1.808602
     49          1           0       -0.423148    0.347796    3.430244
     50          1           0       -1.353546    0.171856    1.795905
     51          1           0        0.923675    2.765402   -0.356776
     52          1           0        3.248522   -1.596437    3.530585
     53          1           0        1.581104   -1.243235    4.127989
     54          1           0        1.893186   -2.619741    2.876223
     55          1           0        6.748388   -2.286514    1.507787
     56          1           0        7.529063   -0.740094    1.662738
     57          1           0        8.213728   -2.120939    0.572684
     58          1           0       -1.122620   -2.356115    1.671045
     59          1           0       -0.507349   -2.325651    3.341341
     60          1           0       -1.901088   -0.385303   -0.455414
     61          1           0       -2.152335    4.839334   -1.775422
     62          1           0       -0.505682    4.383781   -1.007374
     63          1           0        7.996949   -0.767474   -3.019197
     64          1           0       -1.589541    4.539619    1.259961
     65          1           0       -3.109591    4.986315    0.529280
     66          1           0       -4.204023    3.968779   -2.134670
     67          1           0       -5.325532    2.900545   -1.218872
     68          1           0       -4.877284    2.698741   -2.967374
     69          1           0       -5.036371    0.070282   -1.634669
     70          1           0        9.521165   -0.500860   -0.508435
     71          1           0       10.133316   -0.814663   -2.169255
     72          1           0       -3.695953   -3.218924    3.509023
     73          1           0       -6.159782   -1.575269   -2.177491
     74          1           0       -4.125646   -5.525168   -2.104109
     75          1           0       -3.537456   -5.779256   -0.696286
     76          1           0       -5.204996   -5.415772   -0.927244
     77          1           0       -1.517025    8.057952    1.615153
     78          1           0       -7.609119   -3.477446   -2.941126
     79          1           0       -6.170224   -4.677066   -2.435953
 ---------------------------------------------------------------------

 SCF Done:  E(RB3LYP) =  -1947.84085772     A.U. after   16 cycles

 Excitation energies and oscillator strengths:

 Excited State   1:      Singlet-A      2.0486 eV  605.21 nm  f=0.4220  <S**2>=0.000
     155 ->156         0.70134
     155 <-156        -0.10970
 This state for optimization and/or second-order correction.
 Total Energy, E(TD-HF/TD-KS) =  -1947.76557292
 Copying the excited state density for this state as the 1-particle RhoCI density.

 The electronic state is 1-A.
 Alpha  occ. eigenvalues --  -19.18868 -19.16878 -19.13908 -19.11161 -19.10560
 Alpha  occ. eigenvalues --  -19.08942 -14.38081 -14.36656 -14.34672 -14.29512
 Alpha  occ. eigenvalues --  -10.33006 -10.29923 -10.28307 -10.27318 -10.26395
 Alpha  occ. eigenvalues --  -10.24849 -10.23961 -10.23245 -10.23003 -10.22804
 Alpha  occ. eigenvalues --  -10.22268 -10.22048 -10.21988 -10.21969 -10.21762
 Alpha  occ. eigenvalues --  -10.21728 -10.21329 -10.21185 -10.21090 -10.21045
 Alpha  occ. eigenvalues --  -10.20502 -10.20345 -10.20282 -10.19904 -10.19875
 Alpha  occ. eigenvalues --  -10.19734 -10.19535 -10.19520 -10.19427 -10.18779
 Alpha  occ. eigenvalues --  -10.18736 -10.18622 -10.17060  -1.08535  -1.06620
 Alpha  occ. eigenvalues --   -1.00904  -1.00680  -1.00394  -0.99144  -0.98587
 Alpha  occ. eigenvalues --   -0.97145  -0.92872  -0.92831  -0.83795  -0.83318
 Alpha  occ. eigenvalues --   -0.82275  -0.81112  -0.80403  -0.79883  -0.78352
 Alpha  occ. eigenvalues --   -0.77816  -0.76584  -0.75549  -0.75199  -0.72581
 Alpha  occ. eigenvalues --   -0.72112  -0.70901  -0.70229  -0.69196  -0.68610
 Alpha  occ. eigenvalues --   -0.67570  -0.66299  -0.64675  -0.61309  -0.60966
 Alpha  occ. eigenvalues --   -0.59976  -0.59107  -0.58831  -0.57498  -0.56367
 Alpha  occ. eigenvalues --   -0.56240  -0.55447  -0.54663  -0.54519  -0.53637
 Alpha  occ. eigenvalues --   -0.53042  -0.52078  -0.51443  -0.50686  -0.49477
 Alpha  occ. eigenvalues --   -0.48964  -0.48743  -0.48415  -0.48119  -0.47392
 Alpha  occ. eigenvalues --   -0.46980  -0.46354  -0.46127  -0.46059  -0.45707
 Alpha  occ. eigenvalues --   -0.45396  -0.44966  -0.44525  -0.44408  -0.43826
 Alpha  occ. eigenvalues --   -0.43516  -0.43347  -0.42876  -0.42602  -0.42550
 Alpha  occ. eigenvalues --   -0.42461  -0.42124  -0.42022  -0.41264  -0.41192
 Alpha  occ. eigenvalues --   -0.40811  -0.40473  -0.40410  -0.40081  -0.39932
 Alpha  occ. eigenvalues --   -0.39558  -0.39407  -0.39139  -0.38971  -0.38392
 Alpha  occ. eigenvalues --   -0.38052  -0.37769  -0.37609  -0.37291  -0.37088
 Alpha  occ. eigenvalues --   -0.36409  -0.35973  -0.35716  -0.35574  -0.34654
 Alpha  occ. eigenvalues --   -0.34256  -0.33741  -0.33049  -0.32338  -0.32131
 Alpha  occ. eigenvalues --   -0.31372  -0.30143  -0.29456  -0.29116  -0.27934
 Alpha  occ. eigenvalues --   -0.26349  -0.26211  -0.25629  -0.25510  -0.24631
 Alpha  occ. eigenvalues --   -0.24554  -0.24221  -0.23815  -0.22447  -0.19101
 Alpha virt. eigenvalues --   -0.11037  -0.07043  -0.05551  -0.01610  -0.00752
 Alpha virt. eigenvalues --    0.00771   0.00789   0.02748   0.02789   0.03127
 Alpha virt. eigenvalues --    0.03283   0.03944   0.04230   0.04566   0.04728

 Mulliken charges:
               1
     1  O   -0.295029
     2  O   -0.223962
     3  O   -0.266012
     4  O   -0.253991
     5  O   -0.209174
     6  O   -0.221866
     7  N   -0.080493
     8  N   -0.226055
     9  N   -0.055063
    10  N   -0.265399
    11  C    0.110777
    12  C    0.196023
    13  C   -0.117287
    14  C   -0.141485
    15  C   -0.147675
    16  C    0.015020
    17  C   -0.181879
    18  C    0.161404
    19  C    0.013540
    20  C   -0.164047
    21  C    0.192091
    22  C    0.122032
    23  C   -0.073057
    24  C    0.078795
    25  C    0.109783
    26  C   -0.063025
    27  C    0.023808
    28  C    0.147296
    29  C    0.063592
    30  C    0.033833
    31  C   -0.042359
    32  C    0.036880
    33  C   -0.097480
    34  C    0.106061
    35  C    0.037019
    36  C   -0.030531
    37  C    0.169563
    38  C    0.031978
    39  C   -0.218008
    40  C    0.176703
    41  C   -0.035599
    42  C    0.266180
    43  C    0.004371
    44  H    0.030391
    45  H   -0.003553
    46  H   -0.005781
    47  H    0.144616
    48  H    0.162521
    49  H    0.015271
    50  H    0.034900
    51  H    0.058083
    52  H   -0.015721
    53  H    0.037025
    54  H    0.054555
    55  H   -0.024903
    56  H    0.045464
    57  H    0.050766
    58  H    0.057610
    59  H    0.017299
    60  H    0.095592
    61  H    0.030734
    62  H    0.028560
    63  H   -0.014152
    64  H    0.046538
    65  H    0.045033
    66  H   -0.012927
    67  H    0.045221
    68  H    0.020512
    69  H   -0.051517
    70  H    0.010516
    71  H    0.024036
    72  H    0.203637
    73  H   -0.016320
    74  H   -0.039230
    75  H   -0.039152
    76  H    0.015343
    77  H    0.217754
    78  H    0.036053
    79  H    0.007953
 Sum of Mulliken charges =   0.00000

 Dipole moment (field-independent basis, Debye):
    X=              0.7854    Y=              1.1074    Z=              2.8779  Tot=              3.1821
 Quadrupole moment (field-independent basis, Debye-Ang):
   XX=           -214.4824   YY=           -242.1429   ZZ=           -268.6744
   XY=             -4.9644   XZ=             36.5565   YZ=              7.3579

 Normal termination of Gaussian 09 at Mon Jul  8 00:49:11 2019.
