 Gaussian 09, Revision D.01,
 Gaussian 09:  ES64L-G09RevD.01 24-Apr-2013

 --------------------------
 # td=(NStates=1) B3LYP/SVP
 --------------------------

 --
 TD
 --
 Symbolic Z-matrix:
 Charge =  0 Multiplicity = 1

                         Standard orientation:
 ---------------------------------------------------------------------
 Center     Atomic      Atomic             Coordinates (Angstroms)
 Number     Number       Type             X           Y           Z
 ---------------------------------------------------------------------
      1          8           0        5.542313   -0.276491   -3.354293
      2          8           0       -2.709262   -2.979173    3.350934
      3          8           0       -3.171535   -0.735976    3.064186
      4          8           0       -1.764048    7.171047    1.469617
      5          8           0       -0.404230    6.849433   -0.358005
      6          8           0       -2.025504   -4.066114    0.005100
      7          7           0        2.343112    0.878377    0.410835
      8          7           0        4.510552   -0.714828   -1.315361
      9          7           0       -1.845915    0.740948   -0.351571
     10          7           0       -2.803111   -1.897125   -0.447980
     11          6           0        4.871898   -1.148510   -0.026759
     12          6           0        4.491451   -0.197785    1.177348
     13          6           0        3.002793   -0.055188    1.184527
     14          6           0        1.994614   -0.698082    2.000803
     15          6           0        0.769984   -0.048276    1.760958
     16          6           0        0.961065    0.882459    0.705118
     17          6           0        6.359781   -1.326011   -0.203014
     18          6           0       -0.454604   -0.172113    2.545013
     19          6           0        6.852818   -0.950115   -1.401961
     20          6           0        0.078064    1.942637    0.182146
     21          6           0       -1.130534    1.896754   -0.333676
     22          6           0        5.568129   -0.622383   -2.207018
     23          6           0       -1.901801    2.908401   -0.822813
     24          6           0        2.231410   -1.705236    3.068846
     25          6           0        7.208795   -1.893157    0.980972
     26          6           0       -3.101949    2.318624   -1.200076
     27          6           0       -0.985178   -1.630763    2.637865
     28          6           0       -3.062078    0.870928   -1.004259
     29          6           0       -1.553038    4.375047   -1.015591
     30          6           0        8.177861   -0.840685   -2.145185
     31          6           0       -1.768803    5.006720    0.436965
     32          6           0       -4.249459    3.112257   -1.895258
     33          6           0       -4.067785   -0.055153   -1.241003
     34          6           0       -2.384638   -1.735527    3.075772
     35          6           0       -3.871324   -1.473707   -1.061572
     36          6           0        9.297883   -0.741239   -1.484001
     37          6           0       -1.120971    6.467709    0.490978
     38          6           0       -4.979507   -2.544827   -1.431998
     39          6           0       -4.245119   -3.597221   -0.925361
     40          6           0       -2.926908   -3.248659   -0.336295
     41          6           0       -6.253153   -2.182769   -2.117314
     42          6           0       -4.701187   -5.108748   -1.096216
     43          6           0       -6.921767   -3.184423   -2.812485
     44          1           0        4.521227   -2.198212    0.066843
     45          1           0        5.080212    0.622539    1.167263
     46          1           0        4.823896   -0.880173    2.141928
     47          1           0        2.736007    1.249399   -0.513366
     48          1           0        3.577005   -0.700543   -1.476638
     49          1           0       -0.295542    0.178951    3.592037
     50          1           0       -1.262296    0.606872    2.264088
     51          1           0        0.662568    2.762347    0.003390
     52          1           0        3.258458   -2.078607    3.204711
     53          1           0        1.716710   -1.576659    4.129250
     54          1           0        1.853220   -2.769662    2.666607
     55          1           0        6.833505   -2.438574    1.743691
     56          1           0        7.515822   -1.090340    1.796246
     57          1           0        8.204070   -2.420688    0.753730
     58          1           0       -0.620277   -2.238603    1.759319
     59          1           0       -0.456211   -2.063684    3.448881
     60          1           0       -1.538084   -0.130444   -0.002382
     61          1           0       -2.207586    4.912890   -1.709760
     62          1           0       -0.573983    4.363400   -1.184682
     63          1           0        7.980663   -0.733980   -3.290076
     64          1           0       -1.361626    4.441044    1.131428
     65          1           0       -2.943724    5.078491    0.628478
     66          1           0       -4.204843    4.180308   -2.056480
     67          1           0       -5.328551    2.862891   -1.348002
     68          1           0       -4.379741    2.515970   -2.784970
     69          1           0       -5.080627    0.236467   -1.714454
     70          1           0        9.186166   -0.588103   -0.339346
     71          1           0       10.250006   -0.705831   -1.931400
     72          1           0       -3.612326   -2.852055    3.770378
     73          1           0       -6.504166   -1.109718   -2.050362
     74          1           0       -4.869504   -5.453753   -2.074678
     75          1           0       -3.916077   -5.660863   -0.607292
     76          1           0       -5.670921   -5.352569   -0.529643
     77          1           0       -1.246748    7.963344    1.206018
     78          1           0       -7.776842   -3.186969   -3.456903
     79          1           0       -6.644644   -4.224046   -2.808367
 ---------------------------------------------------------------------

 SCF Done:  E(RB3LYP) =  -1947.85596013     A.U. after   17 cycles

 Excitation energies and oscillator strengths:

 Excited State   1:      Singlet-A      2.1297 eV  582.16 nm  f=0.4580  <S**2>=0.000
     153 ->156        -0.12140
     155 ->156         0.69069
     155 <-156        -0.10047
 This state for optimization and/or second-order correction.
 Total Energy, E(TD-HF/TD-KS) =  -1947.77769382
 Copying the excited state density for this state as the 1-particle RhoCI density.

 The electronic state is 1-A.
 Alpha  occ. eigenvalues --  -19.20103 -19.19077 -19.15413 -19.11162 -19.10282
 Alpha  occ. eigenvalues --  -19.10175 -14.39212 -14.36033 -14.34971 -14.28825
 Alpha  occ. eigenvalues --  -10.33371 -10.31167 -10.28719 -10.26410 -10.25080
 Alpha  occ. eigenvalues --  -10.24646 -10.23861 -10.23545 -10.23072 -10.22945
 Alpha  occ. eigenvalues --  -10.22864 -10.22677 -10.22331 -10.21172 -10.21115
 Alpha  occ. eigenvalues --  -10.20998 -10.20990 -10.20874 -10.20823 -10.20762
 Alpha  occ. eigenvalues --  -10.20555 -10.20496 -10.20426 -10.20412 -10.20101
 Alpha  occ. eigenvalues --  -10.19959 -10.19777 -10.19756 -10.19388 -10.19272
 Alpha  occ. eigenvalues --  -10.19169 -10.18726 -10.17625  -1.12439  -1.09791
 Alpha  occ. eigenvalues --   -1.04360  -1.03475  -0.99511  -0.99121  -0.97600
 Alpha  occ. eigenvalues --   -0.97327  -0.95674  -0.92529  -0.83117  -0.82086
 Alpha  occ. eigenvalues --   -0.81643  -0.81309  -0.79543  -0.79465  -0.77027
 Alpha  occ. eigenvalues --   -0.76847  -0.76429  -0.75652  -0.74004  -0.72574
 Alpha  occ. eigenvalues --   -0.71397  -0.70944  -0.69018  -0.68291  -0.68134
 Alpha  occ. eigenvalues --   -0.67391  -0.66298  -0.64081  -0.61793  -0.61354
 Alpha  occ. eigenvalues --   -0.59740  -0.58776  -0.58426  -0.58385  -0.57574
 Alpha  occ. eigenvalues --   -0.56732  -0.56196  -0.55192  -0.53925  -0.53249
 Alpha  occ. eigenvalues --   -0.52363  -0.52203  -0.51709  -0.50860  -0.50239
 Alpha  occ. eigenvalues --   -0.49872  -0.49400  -0.48779  -0.48284  -0.48044
 Alpha  occ. eigenvalues --   -0.47586  -0.47337  -0.47049  -0.46868  -0.45602
 Alpha  occ. eigenvalues --   -0.45217  -0.45067  -0.44855  -0.44453  -0.43953
 Alpha  occ. eigenvalues --   -0.43729  -0.43340  -0.43175  -0.42850  -0.42433
 Alpha  occ. eigenvalues --   -0.42111  -0.42031  -0.41217  -0.41121  -0.40446
 Alpha  occ. eigenvalues --   -0.40275  -0.39873  -0.39842  -0.39558  -0.39411
 Alpha  occ. eigenvalues --   -0.39110  -0.38892  -0.38405  -0.38213  -0.38115
 Alpha  occ. eigenvalues --   -0.37943  -0.37674  -0.37506  -0.37333  -0.37147
 Alpha  occ. eigenvalues --   -0.36526  -0.36487  -0.35867  -0.35502  -0.34922
 Alpha  occ. eigenvalues --   -0.34447  -0.33623  -0.32585  -0.32368  -0.31555
 Alpha  occ. eigenvalues --   -0.31062  -0.30592  -0.30072  -0.28768  -0.27188
 Alpha  occ. eigenvalues --   -0.26750  -0.26593  -0.25881  -0.25279  -0.24854
 Alpha  occ. eigenvalues --   -0.24472  -0.24219  -0.23491  -0.22388  -0.19137
 Alpha virt. eigenvalues --   -0.10731  -0.06372  -0.04778  -0.01859  -0.00912
 Alpha virt. eigenvalues --    0.00107   0.00229   0.01383   0.02697   0.03417
 Alpha virt. eigenvalues --    0.03682   0.03997   0.04903   0.05040   0.05179

 Mulliken charges:
               1
     1  O   -0.199986
     2  O   -0.143828
     3  O   -0.294273
     4  O   -0.168379
     5  O   -0.182690
     6  O   -0.244428
     7  N   -0.125304
     8  N   -0.149657
     9  N   -0.039440
    10  N   -0.191777
    11  C    0.081100
    12  C    0.211964
    13  C   -0.075781
    14  C   -0.082171
    15  C   -0.051208
    16  C    0.006530
    17  C   -0.192740
    18  C    0.028859
    19  C   -0.075604
    20  C   -0.126020
    21  C    0.161942
    22  C    0.137040
    23  C   -0.125470
    24  C    0.018514
    25  C    0.048556
    26  C   -0.151242
    27  C    0.016418
    28  C    0.179118
    29  C    0.262600
    30  C    0.010027
    31  C   -0.035689
    32  C    0.064712
    33  C   -0.138139
    34  C    0.148321
    35  C   -0.017485
    36  C   -0.016145
    37  C    0.147609
    38  C    0.050065
    39  C   -0.235176
    40  C    0.174514
    41  C    0.021369
    42  C    0.080262
    43  C   -0.011693
    44  H    0.020871
    45  H   -0.031229
    46  H    0.030618
    47  H    0.147440
    48  H    0.085603
    49  H    0.001879
    50  H    0.036541
    51  H   -0.049890
    52  H   -0.007770
    53  H    0.051359
    54  H    0.033828
    55  H   -0.029469
    56  H    0.016597
    57  H    0.044159
    58  H    0.084715
    59  H   -0.000166
    60  H    0.124099
    61  H    0.014814
    62  H   -0.037028
    63  H    0.048078
    64  H   -0.003525
    65  H    0.057276
    66  H    0.027885
    67  H    0.031702
    68  H    0.023028
    69  H   -0.005297
    70  H    0.044104
    71  H    0.013860
    72  H    0.191230
    73  H    0.018396
    74  H    0.020830
    75  H    0.012650
    76  H    0.018463
    77  H    0.154959
    78  H    0.017483
    79  H    0.016714
 Sum of Mulliken charges =   0.00000

 Dipole moment (field-independent basis, Debye):
    X=              0.0647    Y=              2.9213    Z=              3.0466  Tot=              4.2214
 Quadrupole moment (field-independent basis, Debye-Ang):
   XX=           -223.3426   YY=           -247.6926   ZZ=           -255.8800
   XY=             -6.7474   XZ=             34.1535   YZ=             -3.2246

 Normal termination of Gaussian 09 at Mon Jul  8 06:04:17 2019.
