 Gaussian 09, Revision D.01,
 Gaussian 09:  ES64L-G09RevD.01 24-Apr-2013

 --------------------------
 # td=(NStates=1) B3LYP/SVP
 --------------------------

 --
 TD
 --
 Symbolic Z-matrix:
 Charge =  0 Multiplicity = 1

                         Standard orientation:
 ---------------------------------------------------------------------
 Center     Atomic      Atomic             Coordinates (Angstroms)
 Number     Number       Type             X           Y           Z
 ---------------------------------------------------------------------
      1          8           0        5.347537   -0.255490   -3.346526
      2          8           0       -2.897791   -3.058090    3.076163
      3          8           0       -3.086502   -0.800217    3.683532
      4          8           0       -1.366890    7.406082    1.324934
      5          8           0       -0.112694    6.770901   -0.527480
      6          8           0       -2.143747   -4.108000   -0.030779
      7          7           0        2.335521    0.815501    0.500509
      8          7           0        4.281396   -0.833619   -1.327271
      9          7           0       -1.876163    0.682042   -0.309744
     10          7           0       -2.729937   -1.951586   -0.605774
     11          6           0        4.697389   -1.245533   -0.123219
     12          6           0        4.397073   -0.355487    1.243048
     13          6           0        2.944796   -0.140496    1.306579
     14          6           0        2.035568   -0.644955    2.142084
     15          6           0        0.782945   -0.065100    1.738748
     16          6           0        0.977750    0.827978    0.766343
     17          6           0        6.172870   -1.410251   -0.198652
     18          6           0       -0.571170   -0.226440    2.500188
     19          6           0        6.681285   -0.963065   -1.466186
     20          6           0        0.227860    1.916446    0.176041
     21          6           0       -1.050978    1.863399   -0.224420
     22          6           0        5.468018   -0.640887   -2.197716
     23          6           0       -1.865743    2.981791   -0.768162
     24          6           0        2.272186   -1.704405    3.210121
     25          6           0        7.026935   -2.123344    0.923837
     26          6           0       -3.123917    2.431378   -1.131547
     27          6           0       -1.134399   -1.725283    2.619742
     28          6           0       -3.107042    0.981377   -0.873585
     29          6           0       -1.328973    4.362753   -0.966541
     30          6           0        7.943847   -0.959081   -2.135243
     31          6           0       -1.538373    5.179253    0.418742
     32          6           0       -4.266667    3.134148   -1.701709
     33          6           0       -3.992597    0.061331   -1.230289
     34          6           0       -2.397873   -1.699753    3.181371
     35          6           0       -3.792856   -1.397545   -1.012949
     36          6           0        9.134037   -0.906020   -1.396175
     37          6           0       -0.899895    6.563775    0.359184
     38          6           0       -4.829877   -2.300828   -1.522439
     39          6           0       -4.326606   -3.618162   -1.112095
     40          6           0       -2.928212   -3.297254   -0.487135
     41          6           0       -6.061701   -2.132582   -2.144596
     42          6           0       -4.559606   -5.011986   -1.364607
     43          6           0       -6.955931   -2.950577   -2.672260
     44          1           0        4.035744   -2.176257    0.257610
     45          1           0        5.020590    0.786871    1.330543
     46          1           0        4.627709   -0.843243    2.155068
     47          1           0        2.949792    1.119630   -0.349651
     48          1           0        3.267899   -0.502379   -1.581098
     49          1           0       -0.482095    0.195575    3.490402
     50          1           0       -1.307752    0.368014    2.106586
     51          1           0        0.827959    2.790286   -0.140432
     52          1           0        3.267048   -2.006886    3.047459
     53          1           0        1.874970   -1.105155    4.116245
     54          1           0        1.592695   -2.623189    3.088302
     55          1           0        6.498918   -2.894167    1.320855
     56          1           0        7.287720   -1.185995    1.559934
     57          1           0        7.987367   -2.138151    0.372782
     58          1           0       -0.920029   -2.070939    1.425420
     59          1           0       -0.400730   -2.522827    2.874224
     60          1           0       -1.588240   -0.341863   -0.032913
     61          1           0       -1.677517    4.972575   -1.847952
     62          1           0       -0.248128    4.421397   -1.135704
     63          1           0        7.870534   -1.163037   -3.318520
     64          1           0       -1.250013    4.481721    1.245449
     65          1           0       -2.502916    5.255735    0.630913
     66          1           0       -3.962329    4.298636   -1.643820
     67          1           0       -5.231605    2.960182   -0.926947
     68          1           0       -4.407038    2.915726   -2.819795
     69          1           0       -4.740692    0.401675   -1.807827
     70          1           0        9.318331   -0.983013   -0.309841
     71          1           0       10.073665   -0.910106   -2.037799
     72          1           0       -3.878533   -3.293876    3.568012
     73          1           0       -6.279642   -0.874078   -2.292853
     74          1           0       -4.647080   -5.310524   -2.404368
     75          1           0       -3.711880   -5.710999   -0.811843
     76          1           0       -5.568794   -5.362477   -0.961434
     77          1           0       -0.949841    8.167345    1.251663
     78          1           0       -7.910475   -2.424816   -3.072172
     79          1           0       -7.011485   -4.026827   -2.728305
 ---------------------------------------------------------------------

 SCF Done:  E(RB3LYP) =  -1947.76173263     A.U. after   16 cycles

 Excitation energies and oscillator strengths:

 Excited State   1:      Singlet-A      2.0795 eV  596.22 nm  f=0.3588  <S**2>=0.000
     154 ->156        -0.21178
     155 ->156         0.67117
 This state for optimization and/or second-order correction.
 Total Energy, E(TD-HF/TD-KS) =  -1947.68531202
 Copying the excited state density for this state as the 1-particle RhoCI density.

 The electronic state is 1-A.
 Alpha  occ. eigenvalues --  -19.19561 -19.15224 -19.14300 -19.12353 -19.11599
 Alpha  occ. eigenvalues --  -19.10463 -14.37268 -14.36337 -14.35556 -14.29562
 Alpha  occ. eigenvalues --  -10.33641 -10.31244 -10.28910 -10.27098 -10.25745
 Alpha  occ. eigenvalues --  -10.24416 -10.24218 -10.24045 -10.23870 -10.22747
 Alpha  occ. eigenvalues --  -10.22614 -10.22546 -10.22128 -10.22069 -10.21668
 Alpha  occ. eigenvalues --  -10.21557 -10.21346 -10.21319 -10.21314 -10.21196
 Alpha  occ. eigenvalues --  -10.21048 -10.21043 -10.20818 -10.20582 -10.20565
 Alpha  occ. eigenvalues --  -10.20518 -10.20413 -10.19802 -10.19624 -10.18807
 Alpha  occ. eigenvalues --  -10.18548 -10.18201 -10.17912  -1.12032  -1.03803
 Alpha  occ. eigenvalues --   -1.03778  -1.02511  -1.02485  -0.98068  -0.95999
 Alpha  occ. eigenvalues --   -0.95512  -0.94813  -0.94247  -0.82336  -0.82074
 Alpha  occ. eigenvalues --   -0.81632  -0.80790  -0.80720  -0.79515  -0.77527
 Alpha  occ. eigenvalues --   -0.77034  -0.76631  -0.75630  -0.74755  -0.72548
 Alpha  occ. eigenvalues --   -0.71874  -0.71329  -0.70153  -0.68457  -0.67899
 Alpha  occ. eigenvalues --   -0.67223  -0.65730  -0.64158  -0.62481  -0.61693
 Alpha  occ. eigenvalues --   -0.60129  -0.59349  -0.57030  -0.56399  -0.56112
 Alpha  occ. eigenvalues --   -0.55843  -0.55034  -0.54699  -0.53754  -0.53038
 Alpha  occ. eigenvalues --   -0.52425  -0.51526  -0.51163  -0.50759  -0.49922
 Alpha  occ. eigenvalues --   -0.49791  -0.49230  -0.48514  -0.48020  -0.47708
 Alpha  occ. eigenvalues --   -0.47415  -0.46962  -0.46406  -0.45843  -0.45624
 Alpha  occ. eigenvalues --   -0.45357  -0.45097  -0.44804  -0.44215  -0.43953
 Alpha  occ. eigenvalues --   -0.43778  -0.43144  -0.42989  -0.42398  -0.42137
 Alpha  occ. eigenvalues --   -0.41969  -0.41880  -0.41176  -0.41048  -0.41021
 Alpha  occ. eigenvalues --   -0.40412  -0.40172  -0.39957  -0.39871  -0.39578
 Alpha  occ. eigenvalues --   -0.39254  -0.38938  -0.38547  -0.38364  -0.37801
 Alpha  occ. eigenvalues --   -0.37556  -0.37441  -0.36910  -0.36835  -0.36549
 Alpha  occ. eigenvalues --   -0.36023  -0.35968  -0.35300  -0.35047  -0.34966
 Alpha  occ. eigenvalues --   -0.34640  -0.34530  -0.32443  -0.31642  -0.31243
 Alpha  occ. eigenvalues --   -0.30952  -0.29808  -0.29610  -0.29555  -0.28049
 Alpha  occ. eigenvalues --   -0.27259  -0.26303  -0.25442  -0.25184  -0.24614
 Alpha  occ. eigenvalues --   -0.24361  -0.24116  -0.23287  -0.21687  -0.19428
 Alpha virt. eigenvalues --   -0.11042  -0.07190  -0.06630  -0.01819  -0.01080
 Alpha virt. eigenvalues --   -0.00990  -0.00814   0.01110   0.02479   0.02814
 Alpha virt. eigenvalues --    0.03005   0.03280   0.04488   0.04725   0.04950

 Mulliken charges:
               1
     1  O   -0.211442
     2  O   -0.342008
     3  O   -0.237103
     4  O   -0.118478
     5  O   -0.211563
     6  O   -0.179990
     7  N   -0.140543
     8  N   -0.226299
     9  N   -0.197086
    10  N   -0.172542
    11  C    0.065566
    12  C    0.086248
    13  C   -0.125686
    14  C   -0.122258
    15  C   -0.134304
    16  C    0.091496
    17  C   -0.199819
    18  C    0.151432
    19  C   -0.017813
    20  C   -0.121606
    21  C    0.157558
    22  C    0.142782
    23  C   -0.050506
    24  C    0.096698
    25  C    0.155745
    26  C   -0.125412
    27  C   -0.125705
    28  C    0.181106
    29  C    0.059711
    30  C   -0.055158
    31  C    0.014675
    32  C   -0.014565
    33  C   -0.108296
    34  C    0.263202
    35  C    0.112907
    36  C   -0.066945
    37  C    0.163087
    38  C    0.006679
    39  C   -0.179021
    40  C    0.137781
    41  C   -0.022804
    42  C    0.007134
    43  C   -0.074418
    44  H    0.024450
    45  H    0.033252
    46  H   -0.013956
    47  H    0.139608
    48  H    0.159050
    49  H    0.002150
    50  H   -0.027678
    51  H    0.003192
    52  H   -0.008265
    53  H    0.052182
    54  H    0.037290
    55  H    0.027407
    56  H    0.043270
    57  H    0.015843
    58  H    0.107768
    59  H    0.044531
    60  H    0.192493
    61  H    0.026706
    62  H    0.019720
    63  H    0.075148
    64  H    0.046413
    65  H   -0.021589
    66  H    0.034541
    67  H    0.067166
    68  H    0.059884
    69  H   -0.088318
    70  H    0.041128
    71  H    0.040536
    72  H    0.231920
    73  H    0.019379
    74  H    0.034834
    75  H    0.067582
    76  H    0.025995
    77  H    0.126112
    78  H    0.036857
    79  H    0.010964
 Sum of Mulliken charges =   0.00000

 Dipole moment (field-independent basis, Debye):
    X=              0.8749    Y=              2.3781    Z=              2.2463  Tot=              3.3862
 Quadrupole moment (field-independent basis, Debye-Ang):
   XX=           -224.4765   YY=           -235.3333   ZZ=           -267.2969
   XY=            -10.4268   XZ=             31.1806   YZ=              1.9836

 Normal termination of Gaussian 09 at Mon Jul  8 05:15:11 2019.
