 Gaussian 09, Revision D.01,
 Gaussian 09:  ES64L-G09RevD.01 24-Apr-2013

 --------------------------
 # td=(NStates=1) B3LYP/SVP
 --------------------------

 --
 TD
 --
 Symbolic Z-matrix:
 Charge =  0 Multiplicity = 1

                         Standard orientation:
 ---------------------------------------------------------------------
 Center     Atomic      Atomic             Coordinates (Angstroms)
 Number     Number       Type             X           Y           Z
 ---------------------------------------------------------------------
      1          8           0        5.425592   -0.159369   -3.281227
      2          8           0       -2.985219   -3.102309    3.117708
      3          8           0       -3.307699   -0.877282    3.240749
      4          8           0       -1.678078    7.121873    1.515753
      5          8           0       -0.447147    7.015490   -0.279928
      6          8           0       -1.965349   -3.961390    0.040993
      7          7           0        2.329994    0.913728    0.493135
      8          7           0        4.389889   -0.692425   -1.254563
      9          7           0       -1.847136    0.748138   -0.316821
     10          7           0       -2.620395   -1.845886   -0.533349
     11          6           0        4.965601   -1.224469    0.033113
     12          6           0        4.546439   -0.310227    1.220106
     13          6           0        2.958228   -0.072430    1.356876
     14          6           0        2.008573   -0.760841    2.037368
     15          6           0        0.803828    0.063308    1.749576
     16          6           0        0.979548    0.980192    0.698702
     17          6           0        6.381675   -1.401251   -0.141746
     18          6           0       -0.576369   -0.204761    2.584558
     19          6           0        6.790012   -0.881251   -1.367144
     20          6           0        0.174424    1.968675    0.112346
     21          6           0       -1.095075    1.877145   -0.340182
     22          6           0        5.539353   -0.572863   -2.105229
     23          6           0       -1.916046    2.896528   -0.883512
     24          6           0        2.159621   -1.753096    3.170168
     25          6           0        7.179758   -1.968230    0.929016
     26          6           0       -3.150637    2.387301   -1.280860
     27          6           0       -1.156644   -1.666967    2.443804
     28          6           0       -3.051568    0.953685   -0.938944
     29          6           0       -1.454177    4.367064   -1.002043
     30          6           0        8.019031   -0.677493   -2.001604
     31          6           0       -1.901931    5.061560    0.352628
     32          6           0       -4.373558    3.078042   -1.876353
     33          6           0       -3.944513    0.007738   -1.320595
     34          6           0       -2.548377   -1.760698    2.994892
     35          6           0       -3.712471   -1.376092   -1.077262
     36          6           0        9.184567   -0.688409   -1.461310
     37          6           0       -1.241937    6.464028    0.406575
     38          6           0       -4.666990   -2.466271   -1.368275
     39          6           0       -4.148987   -3.635597   -1.097547
     40          6           0       -2.759412   -3.227766   -0.496751
     41          6           0       -6.002178   -2.322454   -1.984583
     42          6           0       -4.436566   -5.081117   -1.387713
     43          6           0       -6.852722   -3.283363   -2.521044
     44          1           0        4.428079   -2.335352    0.135263
     45          1           0        5.292054    0.554803    1.105721
     46          1           0        4.756900   -0.914983    2.220022
     47          1           0        3.118514    1.238768   -0.144453
     48          1           0        3.447768   -1.091938   -1.465284
     49          1           0       -0.165963   -0.170190    3.725314
     50          1           0       -1.380904    0.380555    2.531203
     51          1           0        0.859039    2.893458   -0.070784
     52          1           0        3.328933   -1.914247    3.258372
     53          1           0        1.533996   -1.586830    4.050010
     54          1           0        1.671368   -2.726538    2.797646
     55          1           0        6.389204   -2.643794    1.589104
     56          1           0        7.701384   -1.087416    1.550961
     57          1           0        8.032867   -2.413235    0.581975
     58          1           0       -1.072665   -2.105535    1.442062
     59          1           0       -0.465839   -2.640530    2.742556
     60          1           0       -1.456341   -0.222746   -0.224598
     61          1           0       -1.807957    4.669635   -2.059691
     62          1           0       -0.437602    4.169739   -1.130068
     63          1           0        8.034313   -0.400433   -3.183828
     64          1           0       -1.616838    4.643543    1.235081
     65          1           0       -2.876895    5.179011    0.446181
     66          1           0       -4.203111    4.202736   -2.062719
     67          1           0       -4.978448    2.999405   -0.987871
     68          1           0       -4.746472    2.506127   -2.693888
     69          1           0       -4.809623    0.279618   -1.728072
     70          1           0        9.547929   -1.129487   -0.369144
     71          1           0       10.113297   -0.510536   -2.264168
     72          1           0       -4.067476   -3.182926    3.218838
     73          1           0       -6.458926   -1.240668   -2.103922
     74          1           0       -4.388111   -5.543069   -2.382768
     75          1           0       -3.996303   -5.643669   -0.677227
     76          1           0       -5.626615   -5.399918   -1.088356
     77          1           0       -1.340013    7.949895    1.442722
     78          1           0       -7.936724   -3.163828   -3.097265
     79          1           0       -6.729097   -4.378127   -2.512313
 ---------------------------------------------------------------------

 SCF Done:  E(RB3LYP) =  -1947.77859610     A.U. after   16 cycles

 Excitation energies and oscillator strengths:

 Excited State   1:      Singlet-A      2.2201 eV  558.46 nm  f=0.4220  <S**2>=0.000
     153 ->156        -0.11013
     155 ->156         0.69670
 This state for optimization and/or second-order correction.
 Total Energy, E(TD-HF/TD-KS) =  -1947.69700903
 Copying the excited state density for this state as the 1-particle RhoCI density.

 The electronic state is 1-A.
 Alpha  occ. eigenvalues --  -19.17070 -19.15183 -19.13520 -19.11549 -19.10947
 Alpha  occ. eigenvalues --  -19.10031 -14.37267 -14.36508 -14.35541 -14.29487
 Alpha  occ. eigenvalues --  -10.32369 -10.30513 -10.29049 -10.26808 -10.25696
 Alpha  occ. eigenvalues --  -10.24665 -10.24124 -10.23727 -10.23715 -10.23519
 Alpha  occ. eigenvalues --  -10.23125 -10.22977 -10.22740 -10.21906 -10.21793
 Alpha  occ. eigenvalues --  -10.21697 -10.21534 -10.21337 -10.21318 -10.21263
 Alpha  occ. eigenvalues --  -10.21257 -10.21246 -10.21195 -10.20809 -10.20701
 Alpha  occ. eigenvalues --  -10.20255 -10.20177 -10.20145 -10.19934 -10.19883
 Alpha  occ. eigenvalues --  -10.19794 -10.19750 -10.18115  -1.11563  -1.06034
 Alpha  occ. eigenvalues --   -1.02532  -1.01788  -1.00636  -0.99144  -0.96578
 Alpha  occ. eigenvalues --   -0.96504  -0.93604  -0.92890  -0.83703  -0.82879
 Alpha  occ. eigenvalues --   -0.82190  -0.80818  -0.80035  -0.79338  -0.78635
 Alpha  occ. eigenvalues --   -0.78035  -0.75917  -0.75126  -0.74094  -0.73260
 Alpha  occ. eigenvalues --   -0.72550  -0.70963  -0.70185  -0.69278  -0.68730
 Alpha  occ. eigenvalues --   -0.66219  -0.65349  -0.64085  -0.61333  -0.60958
 Alpha  occ. eigenvalues --   -0.60329  -0.58841  -0.57484  -0.56809  -0.56680
 Alpha  occ. eigenvalues --   -0.55943  -0.55033  -0.54397  -0.53545  -0.52853
 Alpha  occ. eigenvalues --   -0.52704  -0.52183  -0.50672  -0.50589  -0.50007
 Alpha  occ. eigenvalues --   -0.48906  -0.48830  -0.48493  -0.48187  -0.47579
 Alpha  occ. eigenvalues --   -0.47154  -0.46677  -0.46549  -0.45340  -0.45260
 Alpha  occ. eigenvalues --   -0.44793  -0.44572  -0.44135  -0.43891  -0.43616
 Alpha  occ. eigenvalues --   -0.43447  -0.43092  -0.42769  -0.42570  -0.42313
 Alpha  occ. eigenvalues --   -0.42243  -0.42030  -0.41779  -0.41688  -0.41315
 Alpha  occ. eigenvalues --   -0.41130  -0.40496  -0.40454  -0.40134  -0.39939
 Alpha  occ. eigenvalues --   -0.39709  -0.39199  -0.39068  -0.38629  -0.38602
 Alpha  occ. eigenvalues --   -0.38133  -0.37814  -0.37059  -0.36920  -0.36852
 Alpha  occ. eigenvalues --   -0.36416  -0.35708  -0.35170  -0.34777  -0.34285
 Alpha  occ. eigenvalues --   -0.33883  -0.33005  -0.32802  -0.32780  -0.31483
 Alpha  occ. eigenvalues --   -0.30525  -0.29933  -0.29117  -0.28887  -0.27916
 Alpha  occ. eigenvalues --   -0.26817  -0.26541  -0.25993  -0.25294  -0.25096
 Alpha  occ. eigenvalues --   -0.24463  -0.24386  -0.23668  -0.23081  -0.19395
 Alpha virt. eigenvalues --   -0.10620  -0.07306  -0.06080  -0.01025   0.00089
 Alpha virt. eigenvalues --    0.00553   0.00808   0.01409   0.01932   0.03378
 Alpha virt. eigenvalues --    0.03638   0.03724   0.04414   0.04633   0.04959

 Mulliken charges:
               1
     1  O   -0.246960
     2  O   -0.306986
     3  O   -0.200835
     4  O   -0.154257
     5  O   -0.194566
     6  O   -0.181135
     7  N   -0.153237
     8  N   -0.239361
     9  N   -0.064122
    10  N   -0.231664
    11  C   -0.004930
    12  C    0.115881
    13  C   -0.064107
    14  C   -0.110319
    15  C   -0.124289
    16  C    0.084887
    17  C   -0.148533
    18  C    0.116795
    19  C    0.007819
    20  C   -0.169086
    21  C    0.155272
    22  C    0.165321
    23  C   -0.185718
    24  C    0.072946
    25  C    0.071426
    26  C   -0.162283
    27  C   -0.069236
    28  C    0.143456
    29  C    0.150376
    30  C   -0.022244
    31  C    0.147824
    32  C    0.133075
    33  C   -0.076236
    34  C    0.175624
    35  C    0.092866
    36  C   -0.139880
    37  C    0.094341
    38  C    0.070980
    39  C   -0.181910
    40  C    0.115591
    41  C   -0.036563
    42  C    0.086125
    43  C   -0.106318
    44  H    0.035333
    45  H    0.025575
    46  H    0.021517
    47  H    0.144752
    48  H    0.159324
    49  H    0.022105
    50  H   -0.020230
    51  H    0.031480
    52  H    0.023962
    53  H    0.030147
    54  H    0.036500
    55  H    0.057284
    56  H    0.054530
    57  H    0.009565
    58  H    0.059609
    59  H    0.029585
    60  H    0.169743
    61  H    0.041060
    62  H   -0.012885
    63  H    0.062165
    64  H    0.014877
    65  H   -0.013738
    66  H    0.034306
    67  H    0.033365
    68  H    0.037693
    69  H   -0.110668
    70  H    0.046354
    71  H    0.049038
    72  H    0.225389
    73  H    0.022037
    74  H    0.051196
    75  H   -0.004782
    76  H    0.015248
    77  H    0.129485
    78  H    0.048544
    79  H    0.014703
 Sum of Mulliken charges =   0.00000

 Dipole moment (field-independent basis, Debye):
    X=              0.5104    Y=              0.8211    Z=              1.4822  Tot=              1.7696
 Quadrupole moment (field-independent basis, Debye-Ang):
   XX=           -212.1784   YY=           -247.8210   ZZ=           -268.6678
   XY=            -15.8057   XZ=             34.6859   YZ=              4.0327

 Normal termination of Gaussian 09 at Wed Jul 10 17:17:39 2019.
