 Gaussian 09, Revision D.01,
 Gaussian 09:  ES64L-G09RevD.01 24-Apr-2013

 --------------------------
 # td=(NStates=1) B3LYP/SVP
 --------------------------

 --
 TD
 --
 Symbolic Z-matrix:
 Charge =  0 Multiplicity = 1

                         Standard orientation:
 ---------------------------------------------------------------------
 Center     Atomic      Atomic             Coordinates (Angstroms)
 Number     Number       Type             X           Y           Z
 ---------------------------------------------------------------------
      1          8           0        5.450812   -0.436051   -3.458109
      2          8           0       -2.714000   -3.174299    3.202510
      3          8           0       -3.052816   -0.930420    3.180978
      4          8           0       -1.914169    7.107301    1.407659
      5          8           0       -0.784934    7.068798   -0.578124
      6          8           0       -1.731837   -4.033849   -0.231401
      7          7           0        2.312224    1.031695    0.482608
      8          7           0        4.510916   -0.504665   -1.343943
      9          7           0       -1.995556    0.690245   -0.170863
     10          7           0       -2.624707   -1.897457   -0.456243
     11          6           0        4.883606   -0.934754   -0.011916
     12          6           0        4.531029    0.086372    1.177144
     13          6           0        2.995785    0.132700    1.288175
     14          6           0        2.034355   -0.495932    2.129859
     15          6           0        0.767582    0.033156    1.755776
     16          6           0        0.957285    0.935955    0.653202
     17          6           0        6.384813   -1.140432   -0.102303
     18          6           0       -0.425345   -0.271657    2.478172
     19          6           0        6.776445   -0.875815   -1.362743
     20          6           0        0.150751    1.901857    0.005277
     21          6           0       -1.227620    1.824394   -0.263582
     22          6           0        5.550003   -0.654403   -2.281952
     23          6           0       -2.099889    2.869140   -0.856255
     24          6           0        2.299933   -1.399542    3.297550
     25          6           0        7.236991   -1.608826    1.100119
     26          6           0       -3.273013    2.251707   -1.186105
     27          6           0       -0.851442   -1.678888    2.386670
     28          6           0       -3.229045    0.857111   -0.808310
     29          6           0       -1.668658    4.264872   -1.031791
     30          6           0        8.110559   -0.931648   -2.102170
     31          6           0       -1.949170    5.101654    0.257004
     32          6           0       -4.489106    2.869511   -1.872746
     33          6           0       -4.142494   -0.179721   -1.199858
     34          6           0       -2.346346   -1.919454    3.025485
     35          6           0       -3.778655   -1.528576   -0.999922
     36          6           0        9.272972   -0.773915   -1.459425
     37          6           0       -1.480879    6.509231    0.267011
     38          6           0       -4.700609   -2.636898   -1.314065
     39          6           0       -4.050610   -3.815307   -0.925983
     40          6           0       -2.653746   -3.249107   -0.486544
     41          6           0       -6.053376   -2.522799   -1.879237
     42          6           0       -4.359810   -5.169499   -1.044706
     43          6           0       -6.766103   -3.449392   -2.622075
     44          1           0        4.357012   -1.955919    0.297156
     45          1           0        4.988475    1.024680    1.012036
     46          1           0        4.965949   -0.257737    2.155231
     47          1           0        2.592711    1.440330   -0.459330
     48          1           0        3.753517   -0.803488   -1.836106
     49          1           0       -0.338861    0.021975    3.602827
     50          1           0       -1.355744    0.250685    2.129425
     51          1           0        0.652934    2.708559   -0.313532
     52          1           0        3.383404   -1.311051    3.655720
     53          1           0        1.773236   -0.933672    4.198219
     54          1           0        2.160973   -2.391562    3.029482
     55          1           0        6.556687   -2.356239    1.758825
     56          1           0        7.575875   -0.773932    1.668177
     57          1           0        8.194533   -2.062755    0.863706
     58          1           0       -0.899852   -1.945003    1.425140
     59          1           0       -0.293252   -2.309809    2.973617
     60          1           0       -1.650781   -0.374017    0.056385
     61          1           0       -2.375980    4.797775   -1.797028
     62          1           0       -0.655194    4.579768   -1.328409
     63          1           0        8.043448   -1.027888   -3.264968
     64          1           0       -1.277616    4.938184    1.135638
     65          1           0       -3.091677    5.140276    0.479708
     66          1           0       -4.416428    4.086774   -1.849961
     67          1           0       -5.363764    2.663642   -1.005621
     68          1           0       -4.567728    2.437352   -2.915995
     69          1           0       -5.097544    0.210152   -1.559130
     70          1           0        9.120401   -0.508745   -0.288378
     71          1           0       10.423319   -0.681482   -1.833257
     72          1           0       -3.564367   -2.987246    3.576000
     73          1           0       -6.439828   -1.514012   -1.943185
     74          1           0       -4.109521   -5.739537   -2.020321
     75          1           0       -3.722062   -5.800705   -0.359479
     76          1           0       -5.422001   -5.110340   -0.685675
     77          1           0       -1.575530    7.929475    1.487168
     78          1           0       -7.724223   -3.318587   -3.051258
     79          1           0       -6.482285   -4.523036   -2.820378
 ---------------------------------------------------------------------

 SCF Done:  E(RB3LYP) =  -1947.89948162     A.U. after   16 cycles

 Excitation energies and oscillator strengths:

 Excited State   1:      Singlet-A      2.1639 eV  572.98 nm  f=0.5122  <S**2>=0.000
     154 ->156         0.15333
     155 ->156         0.68778
     155 <-156        -0.12367
 This state for optimization and/or second-order correction.
 Total Energy, E(TD-HF/TD-KS) =  -1947.81996134
 Copying the excited state density for this state as the 1-particle RhoCI density.

 The electronic state is 1-A.
 Alpha  occ. eigenvalues --  -19.19140 -19.18394 -19.13224 -19.12068 -19.11830
 Alpha  occ. eigenvalues --  -19.08867 -14.38590 -14.36666 -14.35169 -14.29068
 Alpha  occ. eigenvalues --  -10.32822 -10.31302 -10.29411 -10.26575 -10.25397
 Alpha  occ. eigenvalues --  -10.24587 -10.24074 -10.24052 -10.23136 -10.22954
 Alpha  occ. eigenvalues --  -10.22835 -10.22766 -10.22628 -10.22188 -10.22147
 Alpha  occ. eigenvalues --  -10.21899 -10.21770 -10.21568 -10.21288 -10.21180
 Alpha  occ. eigenvalues --  -10.21163 -10.20613 -10.20309 -10.20269 -10.19794
 Alpha  occ. eigenvalues --  -10.19408 -10.19404 -10.19343 -10.19083 -10.19035
 Alpha  occ. eigenvalues --  -10.18681 -10.18272 -10.17342  -1.11294  -1.10821
 Alpha  occ. eigenvalues --   -1.04680  -1.01069  -0.99989  -0.99613  -0.98514
 Alpha  occ. eigenvalues --   -0.97011  -0.95074  -0.92228  -0.82605  -0.82350
 Alpha  occ. eigenvalues --   -0.82309  -0.81410  -0.80110  -0.79234  -0.78087
 Alpha  occ. eigenvalues --   -0.77123  -0.76240  -0.75262  -0.74405  -0.72339
 Alpha  occ. eigenvalues --   -0.71704  -0.71519  -0.69769  -0.68877  -0.68105
 Alpha  occ. eigenvalues --   -0.66341  -0.65925  -0.63496  -0.60860  -0.60387
 Alpha  occ. eigenvalues --   -0.59528  -0.59009  -0.58812  -0.58317  -0.57178
 Alpha  occ. eigenvalues --   -0.55349  -0.55191  -0.54533  -0.53654  -0.52576
 Alpha  occ. eigenvalues --   -0.51886  -0.51722  -0.50826  -0.50274  -0.49896
 Alpha  occ. eigenvalues --   -0.49216  -0.49071  -0.48482  -0.48058  -0.47548
 Alpha  occ. eigenvalues --   -0.47421  -0.46609  -0.46436  -0.45996  -0.45433
 Alpha  occ. eigenvalues --   -0.45128  -0.44928  -0.44649  -0.44454  -0.43968
 Alpha  occ. eigenvalues --   -0.43775  -0.43331  -0.43166  -0.42808  -0.42658
 Alpha  occ. eigenvalues --   -0.42526  -0.42160  -0.41880  -0.41567  -0.41256
 Alpha  occ. eigenvalues --   -0.41039  -0.40713  -0.40375  -0.39960  -0.39682
 Alpha  occ. eigenvalues --   -0.39261  -0.39187  -0.39005  -0.38901  -0.38425
 Alpha  occ. eigenvalues --   -0.38175  -0.37926  -0.37699  -0.37283  -0.36869
 Alpha  occ. eigenvalues --   -0.36620  -0.35559  -0.35311  -0.34868  -0.33967
 Alpha  occ. eigenvalues --   -0.33390  -0.33221  -0.33183  -0.32384  -0.32062
 Alpha  occ. eigenvalues --   -0.31964  -0.30209  -0.28596  -0.28332  -0.27886
 Alpha  occ. eigenvalues --   -0.27574  -0.26949  -0.26731  -0.25664  -0.25054
 Alpha  occ. eigenvalues --   -0.25040  -0.23664  -0.22761  -0.21563  -0.18611
 Alpha virt. eigenvalues --   -0.10438  -0.05922  -0.05719  -0.00921  -0.00037
 Alpha virt. eigenvalues --    0.00328   0.01126   0.01458   0.02358   0.02703
 Alpha virt. eigenvalues --    0.03437   0.04260   0.04833   0.05177   0.05864

 Mulliken charges:
               1
     1  O   -0.189019
     2  O   -0.109464
     3  O   -0.256660
     4  O   -0.148592
     5  O   -0.239792
     6  O   -0.236412
     7  N   -0.097682
     8  N   -0.155252
     9  N   -0.159957
    10  N   -0.240006
    11  C    0.036152
    12  C    0.198999
    13  C   -0.068164
    14  C   -0.153651
    15  C   -0.049780
    16  C    0.073957
    17  C   -0.155014
    18  C   -0.002555
    19  C   -0.093440
    20  C   -0.040501
    21  C    0.086848
    22  C    0.127262
    23  C   -0.007853
    24  C    0.118311
    25  C    0.075267
    26  C   -0.146709
    27  C    0.089300
    28  C    0.102248
    29  C    0.059132
    30  C    0.010748
    31  C   -0.042400
    32  C   -0.008221
    33  C   -0.142772
    34  C    0.113916
    35  C    0.154746
    36  C   -0.109116
    37  C    0.121529
    38  C    0.015297
    39  C   -0.160306
    40  C    0.128411
    41  C   -0.000464
    42  C    0.023638
    43  C   -0.056393
    44  H    0.043762
    45  H   -0.013277
    46  H    0.010041
    47  H    0.148391
    48  H    0.095896
    49  H    0.009146
    50  H    0.028197
    51  H   -0.071559
    52  H   -0.003215
    53  H    0.034770
    54  H    0.033327
    55  H    0.045946
    56  H    0.029216
    57  H    0.030116
    58  H    0.014086
    59  H   -0.013796
    60  H    0.217948
    61  H    0.023260
    62  H    0.028656
    63  H    0.048770
    64  H    0.046781
    65  H    0.064674
    66  H    0.038163
    67  H    0.063104
    68  H    0.068442
    69  H   -0.019505
    70  H    0.029859
    71  H    0.066267
    72  H    0.153956
    73  H   -0.015139
    74  H    0.055214
    75  H    0.024097
    76  H    0.040509
    77  H    0.137906
    78  H    0.012132
    79  H    0.028276
 Sum of Mulliken charges =   0.00000

 Dipole moment (field-independent basis, Debye):
    X=              1.6452    Y=              2.5080    Z=              3.9605  Tot=              4.9682
 Quadrupole moment (field-independent basis, Debye-Ang):
   XX=           -218.5856   YY=           -252.9315   ZZ=           -258.9059
   XY=             -7.9855   XZ=             28.8303   YZ=              3.3159

 Normal termination of Gaussian 09 at Tue Jul  9 22:10:28 2019.
