 Gaussian 09, Revision D.01,
 Gaussian 09:  ES64L-G09RevD.01 24-Apr-2013

 --------------------------
 # td=(NStates=1) B3LYP/SVP
 --------------------------

 --
 TD
 --
 Symbolic Z-matrix:
 Charge =  0 Multiplicity = 1

                         Standard orientation:
 ---------------------------------------------------------------------
 Center     Atomic      Atomic             Coordinates (Angstroms)
 Number     Number       Type             X           Y           Z
 ---------------------------------------------------------------------
      1          8           0        5.352284   -0.112135   -3.340726
      2          8           0       -2.755623   -3.178751    3.148760
      3          8           0       -3.222630   -1.061007    3.033598
      4          8           0       -1.651859    7.175369    1.536259
      5          8           0       -0.843753    7.134902   -0.602254
      6          8           0       -1.728536   -3.919003   -0.021020
      7          7           0        2.416404    1.070695    0.571537
      8          7           0        4.412405   -0.534485   -1.295881
      9          7           0       -1.875359    0.684441   -0.417009
     10          7           0       -2.598422   -1.767455   -0.554229
     11          6           0        4.839582   -1.023889    0.067054
     12          6           0        4.468718   -0.102992    1.201816
     13          6           0        3.015117    0.218358    1.317768
     14          6           0        2.119256   -0.577588    2.074917
     15          6           0        0.784238    0.011496    1.794841
     16          6           0        0.965736    0.961627    0.771563
     17          6           0        6.338929   -1.246344   -0.113831
     18          6           0       -0.583052   -0.259478    2.497651
     19          6           0        6.671136   -0.908024   -1.404012
     20          6           0        0.119667    1.861573    0.135906
     21          6           0       -1.178324    1.768195   -0.272113
     22          6           0        5.421275   -0.485710   -2.194900
     23          6           0       -2.020339    2.894181   -0.766403
     24          6           0        2.327138   -1.523417    3.234803
     25          6           0        7.240719   -1.733203    1.017331
     26          6           0       -3.154517    2.270938   -1.142096
     27          6           0       -1.007955   -1.776598    2.473172
     28          6           0       -3.160934    0.864738   -1.052610
     29          6           0       -1.615263    4.314490   -0.928689
     30          6           0        7.966012   -0.912660   -2.100437
     31          6           0       -1.946989    5.116803    0.375442
     32          6           0       -4.494420    3.010975   -1.696989
     33          6           0       -4.180193   -0.148764   -1.217116
     34          6           0       -2.482118   -1.979510    2.863673
     35          6           0       -3.791096   -1.463733   -1.068499
     36          6           0        9.231136   -0.919663   -1.658654
     37          6           0       -1.397379    6.569079    0.260523
     38          6           0       -4.698147   -2.552704   -1.391461
     39          6           0       -3.925036   -3.750949   -1.060089
     40          6           0       -2.644629   -3.205941   -0.483926
     41          6           0       -5.908057   -2.574839   -1.952330
     42          6           0       -4.316962   -5.104970   -1.019170
     43          6           0       -6.722991   -3.576223   -2.515191
     44          1           0        4.403657   -2.062991    0.157882
     45          1           0        5.101087    0.850473    0.833917
     46          1           0        5.010176   -0.400746    2.022005
     47          1           0        2.899384    1.774459    0.130641
     48          1           0        3.447804   -0.681663   -1.359180
     49          1           0       -0.342137    0.026819    3.441754
     50          1           0       -1.351794    0.313173    1.990973
     51          1           0        0.378611    2.862710    0.042920
     52          1           0        3.580775   -1.374269    3.604661
     53          1           0        1.697411   -1.275605    3.974277
     54          1           0        2.236356   -2.631393    2.963430
     55          1           0        6.704724   -2.298817    1.634487
     56          1           0        7.639461   -1.034192    1.673122
     57          1           0        8.215648   -2.315426    0.767340
     58          1           0       -0.855444   -2.059076    1.346138
     59          1           0       -0.537013   -2.647388    3.038967
     60          1           0       -1.628348   -0.382864   -0.314630
     61          1           0       -2.130640    4.710360   -1.877344
     62          1           0       -0.510497    4.285646   -0.955727
     63          1           0        7.589817   -1.144090   -3.238863
     64          1           0       -1.296882    4.716743    1.273519
     65          1           0       -2.965299    4.983021    0.737120
     66          1           0       -4.207164    4.166066   -1.972871
     67          1           0       -5.348627    2.934619   -1.026122
     68          1           0       -5.046944    2.511419   -2.757255
     69          1           0       -5.048131    0.083827   -1.679435
     70          1           0        9.496631   -0.767050   -0.642055
     71          1           0       10.256380   -0.863976   -2.084086
     72          1           0       -3.587245   -3.140207    3.422772
     73          1           0       -6.566871   -1.628339   -2.143390
     74          1           0       -4.403717   -5.763541   -2.092751
     75          1           0       -3.613385   -5.590384   -0.443340
     76          1           0       -5.359446   -5.305161   -0.542613
     77          1           0       -1.247108    7.973267    1.442146
     78          1           0       -7.644847   -3.156829   -3.098415
     79          1           0       -6.332179   -4.367489   -2.725521
 ---------------------------------------------------------------------

 SCF Done:  E(RB3LYP) =  -1947.76541153     A.U. after   16 cycles

 Excitation energies and oscillator strengths:

 Excited State   1:      Singlet-A      1.9568 eV  633.61 nm  f=0.4000  <S**2>=0.000
     154 ->156         0.28412
     155 ->156         0.64693
     155 <-156        -0.11014
 This state for optimization and/or second-order correction.
 Total Energy, E(TD-HF/TD-KS) =  -1947.69350131
 Copying the excited state density for this state as the 1-particle RhoCI density.

 The electronic state is 1-A.
 Alpha  occ. eigenvalues --  -19.17874 -19.16880 -19.15664 -19.10363 -19.10326
 Alpha  occ. eigenvalues --  -19.10108 -14.39067 -14.35759 -14.35302 -14.29804
 Alpha  occ. eigenvalues --  -10.33565 -10.29949 -10.28895 -10.26955 -10.25430
 Alpha  occ. eigenvalues --  -10.24960 -10.24300 -10.23778 -10.23772 -10.23081
 Alpha  occ. eigenvalues --  -10.22952 -10.22873 -10.22656 -10.22636 -10.22440
 Alpha  occ. eigenvalues --  -10.21483 -10.21318 -10.21316 -10.21135 -10.20963
 Alpha  occ. eigenvalues --  -10.20839 -10.20766 -10.20632 -10.20565 -10.20314
 Alpha  occ. eigenvalues --  -10.20129 -10.20019 -10.19815 -10.19745 -10.19540
 Alpha  occ. eigenvalues --  -10.19397 -10.18964 -10.18846  -1.14298  -1.10907
 Alpha  occ. eigenvalues --   -1.03020  -1.02793  -1.00804  -1.00652  -0.99897
 Alpha  occ. eigenvalues --   -0.98627  -0.94188  -0.92084  -0.83063  -0.82629
 Alpha  occ. eigenvalues --   -0.82046  -0.81561  -0.81084  -0.80088  -0.77791
 Alpha  occ. eigenvalues --   -0.77250  -0.76443  -0.75809  -0.75267  -0.72942
 Alpha  occ. eigenvalues --   -0.72275  -0.71147  -0.70217  -0.69666  -0.68883
 Alpha  occ. eigenvalues --   -0.67334  -0.66489  -0.64478  -0.62848  -0.62479
 Alpha  occ. eigenvalues --   -0.61130  -0.59405  -0.59013  -0.58252  -0.58054
 Alpha  occ. eigenvalues --   -0.56751  -0.56200  -0.55809  -0.54301  -0.53931
 Alpha  occ. eigenvalues --   -0.52902  -0.52584  -0.51273  -0.51059  -0.49945
 Alpha  occ. eigenvalues --   -0.49413  -0.49092  -0.48850  -0.48341  -0.48122
 Alpha  occ. eigenvalues --   -0.47965  -0.47603  -0.47064  -0.46497  -0.45835
 Alpha  occ. eigenvalues --   -0.45665  -0.45080  -0.44744  -0.44634  -0.44114
 Alpha  occ. eigenvalues --   -0.43772  -0.43389  -0.43164  -0.43039  -0.42813
 Alpha  occ. eigenvalues --   -0.42685  -0.42352  -0.41656  -0.41443  -0.41160
 Alpha  occ. eigenvalues --   -0.41052  -0.40310  -0.40219  -0.40038  -0.39792
 Alpha  occ. eigenvalues --   -0.39733  -0.39526  -0.39146  -0.38673  -0.38575
 Alpha  occ. eigenvalues --   -0.38370  -0.38145  -0.38024  -0.37317  -0.36693
 Alpha  occ. eigenvalues --   -0.36329  -0.36123  -0.35230  -0.34860  -0.33978
 Alpha  occ. eigenvalues --   -0.33740  -0.33560  -0.33364  -0.32951  -0.31695
 Alpha  occ. eigenvalues --   -0.31424  -0.30655  -0.30464  -0.29281  -0.28921
 Alpha  occ. eigenvalues --   -0.27022  -0.26545  -0.26120  -0.25863  -0.25276
 Alpha  occ. eigenvalues --   -0.24492  -0.24052  -0.23779  -0.21458  -0.19390
 Alpha virt. eigenvalues --   -0.11747  -0.07798  -0.05756  -0.01249  -0.00888
 Alpha virt. eigenvalues --    0.00692   0.01175   0.02457   0.02747   0.03006
 Alpha virt. eigenvalues --    0.03446   0.04316   0.04799   0.05256   0.05483

 Mulliken charges:
               1
     1  O   -0.201517
     2  O   -0.022414
     3  O   -0.234606
     4  O   -0.206360
     5  O   -0.157723
     6  O   -0.241735
     7  N    0.007217
     8  N   -0.176453
     9  N   -0.108615
    10  N   -0.318923
    11  C    0.043615
    12  C    0.180883
    13  C   -0.080724
    14  C   -0.150271
    15  C   -0.137676
    16  C    0.120663
    17  C   -0.168562
    18  C    0.223703
    19  C   -0.125669
    20  C   -0.046870
    21  C    0.000406
    22  C    0.173804
    23  C   -0.083684
    24  C    0.067355
    25  C    0.149643
    26  C   -0.097070
    27  C   -0.113080
    28  C    0.104947
    29  C    0.109743
    30  C    0.031379
    31  C   -0.061528
    32  C   -0.038223
    33  C   -0.022554
    34  C    0.079757
    35  C    0.135554
    36  C   -0.060035
    37  C    0.157909
    38  C    0.163707
    39  C   -0.143717
    40  C    0.178097
    41  C   -0.189720
    42  C    0.016406
    43  C    0.060736
    44  H    0.033644
    45  H    0.004788
    46  H   -0.027744
    47  H    0.094896
    48  H    0.115898
    49  H   -0.015679
    50  H    0.024018
    51  H   -0.060112
    52  H    0.015679
    53  H    0.001639
    54  H    0.048931
    55  H   -0.028759
    56  H    0.007483
    57  H    0.039957
    58  H    0.088015
    59  H    0.032717
    60  H    0.190612
    61  H    0.055847
    62  H    0.013856
    63  H    0.050410
    64  H    0.059387
    65  H    0.053751
    66  H    0.037441
    67  H    0.041375
    68  H    0.042264
    69  H   -0.073592
    70  H   -0.006171
    71  H    0.032827
    72  H    0.110689
    73  H    0.008702
    74  H    0.055491
    75  H    0.004921
    76  H    0.042124
    77  H    0.128703
    78  H    0.043007
    79  H   -0.084813
 Sum of Mulliken charges =   0.00000

 Dipole moment (field-independent basis, Debye):
    X=              0.9305    Y=              1.6945    Z=              4.2350  Tot=              4.6554
 Quadrupole moment (field-independent basis, Debye-Ang):
   XX=           -225.0070   YY=           -250.5550   ZZ=           -265.5271
   XY=             -3.3376   XZ=             37.6213   YZ=              1.4221

 Normal termination of Gaussian 09 at Sun Jul  7 13:51:00 2019.
