 Gaussian 09, Revision D.01,
 Gaussian 09:  ES64L-G09RevD.01 24-Apr-2013

 --------------------------
 # td=(NStates=1) B3LYP/SVP
 --------------------------

 --
 TD
 --
 Symbolic Z-matrix:
 Charge =  0 Multiplicity = 1

                         Standard orientation:
 ---------------------------------------------------------------------
 Center     Atomic      Atomic             Coordinates (Angstroms)
 Number     Number       Type             X           Y           Z
 ---------------------------------------------------------------------
      1          8           0        5.450821   -0.328666   -3.389018
      2          8           0       -2.931628   -3.191811    3.316693
      3          8           0       -3.188409   -0.917279    3.388454
      4          8           0       -0.862171    7.263324    1.556197
      5          8           0       -0.150775    7.001354   -0.529706
      6          8           0       -2.320733   -3.940556   -0.092900
      7          7           0        2.441838    0.709016    0.451839
      8          7           0        4.449083   -0.824226   -1.363447
      9          7           0       -1.900879    0.716652   -0.271087
     10          7           0       -2.920830   -1.717101   -0.460897
     11          6           0        4.810877   -1.495817   -0.107817
     12          6           0        4.392738   -0.612090    1.168988
     13          6           0        2.984661   -0.345252    1.307348
     14          6           0        1.984439   -0.794044    2.010322
     15          6           0        0.769069   -0.129562    1.790981
     16          6           0        1.089761    0.714855    0.593165
     17          6           0        6.404935   -1.524187   -0.174037
     18          6           0       -0.505657   -0.305855    2.534293
     19          6           0        6.733276   -0.982366   -1.366711
     20          6           0        0.335694    1.869777   -0.027363
     21          6           0       -0.979804    1.786060   -0.238760
     22          6           0        5.476067   -0.623446   -2.143492
     23          6           0       -1.840691    2.954586   -0.704122
     24          6           0        2.157223   -1.779211    3.190325
     25          6           0        7.213107   -2.081830    1.032451
     26          6           0       -3.138669    2.472362   -1.202931
     27          6           0       -1.072506   -1.717708    2.470414
     28          6           0       -3.108923    1.033905   -0.847185
     29          6           0       -1.349718    4.350555   -0.709376
     30          6           0        8.028672   -0.941640   -2.090448
     31          6           0       -1.333196    5.205044    0.552118
     32          6           0       -4.232317    3.341310   -1.628033
     33          6           0       -4.121802    0.202365   -1.083064
     34          6           0       -2.543449   -1.903937    3.100925
     35          6           0       -3.950190   -1.217648   -0.991228
     36          6           0        9.251764   -0.985276   -1.658970
     37          6           0       -0.837283    6.528169    0.387170
     38          6           0       -5.055318   -2.228434   -1.461714
     39          6           0       -4.399953   -3.421825   -1.279105
     40          6           0       -3.066693   -3.195084   -0.550112
     41          6           0       -6.392837   -2.029794   -2.094078
     42          6           0       -4.872330   -4.847879   -1.485211
     43          6           0       -7.186335   -2.801344   -2.737583
     44          1           0        4.340817   -2.442096   -0.151367
     45          1           0        4.885393    0.519008    0.765671
     46          1           0        5.004319   -0.985882    2.138443
     47          1           0        2.928094    1.073361   -0.357990
     48          1           0        3.589518   -1.127087   -1.869953
     49          1           0       -0.549116    0.199266    3.563908
     50          1           0       -1.355799    0.080602    2.078334
     51          1           0        0.739122    2.704409   -0.240534
     52          1           0        3.184580   -1.862128    3.568856
     53          1           0        1.572860   -1.507933    4.087153
     54          1           0        1.765642   -2.786344    3.055526
     55          1           0        6.677986   -2.769015    1.514661
     56          1           0        7.570684   -1.267172    1.689888
     57          1           0        8.260714   -2.203131    0.506429
     58          1           0       -0.997015   -1.906777    1.422661
     59          1           0       -0.471110   -2.407006    2.934211
     60          1           0       -1.669501   -0.282925   -0.263699
     61          1           0       -1.797486    4.837609   -1.476160
     62          1           0       -0.401445    4.344971   -1.215417
     63          1           0        7.654825   -0.746988   -3.262598
     64          1           0       -0.697272    4.841674    1.405592
     65          1           0       -2.336430    5.373173    1.117214
     66          1           0       -3.803153    4.368303   -1.623143
     67          1           0       -5.318758    3.373552   -1.104562
     68          1           0       -4.619061    3.244348   -2.605411
     69          1           0       -5.050468    0.635371   -1.633634
     70          1           0        9.433179   -0.924736   -0.418206
     71          1           0        9.980291   -0.865360   -2.238325
     72          1           0       -3.821005   -3.069453    3.814826
     73          1           0       -6.574652   -0.972665   -2.059320
     74          1           0       -4.987564   -5.098410   -2.570216
     75          1           0       -4.189729   -5.468608   -0.958026
     76          1           0       -5.907298   -5.017504   -1.014911
     77          1           0       -0.212892    8.009563    1.499800
     78          1           0       -8.052647   -2.374875   -3.263541
     79          1           0       -7.104626   -3.769005   -2.671726
 ---------------------------------------------------------------------

 SCF Done:  E(RB3LYP) =  -1947.80377203     A.U. after   16 cycles

 Excitation energies and oscillator strengths:

 Excited State   1:      Singlet-A      2.1301 eV  582.07 nm  f=0.3539  <S**2>=0.000
     155 ->156         0.70155
 This state for optimization and/or second-order correction.
 Total Energy, E(TD-HF/TD-KS) =  -1947.72549340
 Copying the excited state density for this state as the 1-particle RhoCI density.

 The electronic state is 1-A.
 Alpha  occ. eigenvalues --  -19.18485 -19.17371 -19.13163 -19.12599 -19.12069
 Alpha  occ. eigenvalues --  -19.09806 -14.37236 -14.36944 -14.35856 -14.29669
 Alpha  occ. eigenvalues --  -10.32350 -10.31520 -10.28659 -10.28205 -10.25541
 Alpha  occ. eigenvalues --  -10.24085 -10.24049 -10.24034 -10.23896 -10.23475
 Alpha  occ. eigenvalues --  -10.22983 -10.22677 -10.22130 -10.21818 -10.21638
 Alpha  occ. eigenvalues --  -10.21413 -10.21187 -10.20826 -10.20581 -10.20362
 Alpha  occ. eigenvalues --  -10.20311 -10.20227 -10.20212 -10.19984 -10.19621
 Alpha  occ. eigenvalues --  -10.19224 -10.19035 -10.18998 -10.18664 -10.18515
 Alpha  occ. eigenvalues --  -10.18295 -10.18050 -10.18000  -1.08358  -1.08098
 Alpha  occ. eigenvalues --   -1.07093  -1.01538  -0.99645  -0.98550  -0.97032
 Alpha  occ. eigenvalues --   -0.96622  -0.93932  -0.93114  -0.83290  -0.82206
 Alpha  occ. eigenvalues --   -0.81634  -0.81355  -0.81099  -0.79407  -0.78789
 Alpha  occ. eigenvalues --   -0.77203  -0.76786  -0.75750  -0.75014  -0.72949
 Alpha  occ. eigenvalues --   -0.72394  -0.70700  -0.70085  -0.69328  -0.69031
 Alpha  occ. eigenvalues --   -0.65931  -0.65769  -0.63120  -0.61652  -0.61108
 Alpha  occ. eigenvalues --   -0.59698  -0.59056  -0.58516  -0.58280  -0.56665
 Alpha  occ. eigenvalues --   -0.55981  -0.55784  -0.55372  -0.54308  -0.53059
 Alpha  occ. eigenvalues --   -0.52700  -0.51606  -0.50914  -0.50460  -0.49549
 Alpha  occ. eigenvalues --   -0.49072  -0.48821  -0.48419  -0.47818  -0.47529
 Alpha  occ. eigenvalues --   -0.47488  -0.47363  -0.47097  -0.46238  -0.45703
 Alpha  occ. eigenvalues --   -0.45627  -0.45365  -0.44897  -0.44821  -0.44528
 Alpha  occ. eigenvalues --   -0.44155  -0.43935  -0.43573  -0.42949  -0.42568
 Alpha  occ. eigenvalues --   -0.42292  -0.42030  -0.41687  -0.41339  -0.41209
 Alpha  occ. eigenvalues --   -0.40667  -0.40169  -0.40047  -0.39716  -0.39652
 Alpha  occ. eigenvalues --   -0.39557  -0.39231  -0.39088  -0.38700  -0.38358
 Alpha  occ. eigenvalues --   -0.37890  -0.37475  -0.36896  -0.36853  -0.36549
 Alpha  occ. eigenvalues --   -0.36166  -0.36089  -0.35611  -0.35311  -0.34977
 Alpha  occ. eigenvalues --   -0.34290  -0.32424  -0.32082  -0.32023  -0.31971
 Alpha  occ. eigenvalues --   -0.31751  -0.31554  -0.29857  -0.29507  -0.27879
 Alpha  occ. eigenvalues --   -0.27356  -0.27121  -0.25603  -0.25184  -0.25060
 Alpha  occ. eigenvalues --   -0.24910  -0.24863  -0.24116  -0.22673  -0.18909
 Alpha virt. eigenvalues --   -0.10147  -0.06421  -0.05286  -0.01776  -0.00504
 Alpha virt. eigenvalues --    0.00166   0.00924   0.01324   0.02822   0.03763
 Alpha virt. eigenvalues --    0.04017   0.04442   0.04707   0.05036   0.05367

 Mulliken charges:
               1
     1  O   -0.297673
     2  O   -0.204246
     3  O   -0.234140
     4  O   -0.234993
     5  O   -0.257219
     6  O   -0.093644
     7  N   -0.118918
     8  N   -0.128455
     9  N   -0.103665
    10  N   -0.273742
    11  C    0.087146
    12  C   -0.006447
    13  C    0.039939
    14  C   -0.102171
    15  C   -0.105700
    16  C    0.035701
    17  C   -0.191369
    18  C    0.101193
    19  C   -0.078481
    20  C    0.001132
    21  C    0.165369
    22  C    0.128113
    23  C   -0.142969
    24  C    0.082605
    25  C    0.135613
    26  C   -0.061774
    27  C    0.025064
    28  C    0.134431
    29  C    0.156636
    30  C   -0.027948
    31  C    0.034497
    32  C    0.059310
    33  C   -0.141168
    34  C    0.159673
    35  C    0.055474
    36  C    0.026818
    37  C    0.125057
    38  C    0.021264
    39  C   -0.259083
    40  C    0.157160
    41  C    0.023506
    42  C    0.083925
    43  C    0.063883
    44  H    0.013866
    45  H    0.029216
    46  H    0.044092
    47  H    0.121794
    48  H    0.147600
    49  H    0.017603
    50  H   -0.015918
    51  H   -0.106016
    52  H   -0.006116
    53  H    0.010008
    54  H    0.020173
    55  H    0.005560
    56  H    0.039400
    57  H    0.040182
    58  H    0.040928
    59  H   -0.022019
    60  H    0.149210
    61  H   -0.038238
    62  H    0.004562
    63  H    0.067682
    64  H    0.060786
    65  H    0.054152
    66  H    0.011396
    67  H    0.043140
    68  H    0.004789
    69  H    0.000095
    70  H    0.034325
    71  H   -0.046345
    72  H    0.199789
    73  H   -0.032425
    74  H    0.040808
    75  H    0.015559
    76  H    0.035946
    77  H    0.196598
    78  H    0.028641
    79  H   -0.050526
 Sum of Mulliken charges =   0.00000

 Dipole moment (field-independent basis, Debye):
    X=             -1.1496    Y=             -0.2207    Z=              2.7793  Tot=              3.0158
 Quadrupole moment (field-independent basis, Debye-Ang):
   XX=           -222.8779   YY=           -249.3146   ZZ=           -262.6784
   XY=             -4.6520   XZ=             36.8702   YZ=              2.9435

 Normal termination of Gaussian 09 at Sun Jul  7 23:08:11 2019.
