 Gaussian 09, Revision D.01,
 Gaussian 09:  ES64L-G09RevD.01 24-Apr-2013

 --------------------------
 # td=(NStates=1) B3LYP/SVP
 --------------------------

 --
 TD
 --
 Symbolic Z-matrix:
 Charge =  0 Multiplicity = 1

                         Standard orientation:
 ---------------------------------------------------------------------
 Center     Atomic      Atomic             Coordinates (Angstroms)
 Number     Number       Type             X           Y           Z
 ---------------------------------------------------------------------
      1          8           0        5.310298   -0.472781   -3.410522
      2          8           0       -3.142174   -2.971260    2.952682
      3          8           0       -3.228596   -0.718131    3.129591
      4          8           0       -1.315177    7.401136    1.256173
      5          8           0       -0.292590    6.883891   -0.648626
      6          8           0       -1.690253   -3.910655    0.009352
      7          7           0        2.268690    1.106581    0.573336
      8          7           0        4.358687   -0.684912   -1.339161
      9          7           0       -1.906472    0.662984   -0.434848
     10          7           0       -2.578156   -1.938471   -0.399050
     11          6           0        4.897383   -1.139211    0.010215
     12          6           0        4.415007   -0.064458    1.168709
     13          6           0        3.024461    0.183630    1.353647
     14          6           0        1.987816   -0.479467    2.185053
     15          6           0        0.750157    0.107849    1.855441
     16          6           0        0.883363    1.071830    0.810323
     17          6           0        6.314247   -1.255326   -0.077896
     18          6           0       -0.532114   -0.150130    2.611512
     19          6           0        6.612750   -1.033040   -1.400985
     20          6           0        0.071879    2.024250    0.156353
     21          6           0       -1.176863    1.746196   -0.374942
     22          6           0        5.424849   -0.729009   -2.185787
     23          6           0       -2.017619    2.858422   -0.932841
     24          6           0        2.334750   -1.539691    3.120699
     25          6           0        7.004816   -1.918813    1.063264
     26          6           0       -3.298958    2.341330   -1.277016
     27          6           0       -1.058696   -1.706105    2.500954
     28          6           0       -3.137375    0.954754   -0.900556
     29          6           0       -1.619608    4.342414   -1.010184
     30          6           0        7.991856   -1.117337   -1.905324
     31          6           0       -1.704665    5.183326    0.285816
     32          6           0       -4.427404    3.082721   -1.895455
     33          6           0       -4.088791   -0.098720   -1.153887
     34          6           0       -2.594418   -1.685921    3.000163
     35          6           0       -3.770547   -1.429708   -0.964501
     36          6           0        9.122416   -1.128886   -1.406767
     37          6           0       -1.036429    6.615734    0.211453
     38          6           0       -4.627145   -2.679338   -1.353439
     39          6           0       -3.959159   -3.801211   -0.998110
     40          6           0       -2.633950   -3.281636   -0.392838
     41          6           0       -6.034594   -2.553653   -1.957867
     42          6           0       -4.272367   -5.163531   -1.133802
     43          6           0       -6.827899   -3.616288   -2.304010
     44          1           0        4.341458   -2.058321    0.263404
     45          1           0        4.877484    0.939544    0.495904
     46          1           0        4.968466   -0.275167    1.941092
     47          1           0        2.624386    1.608862   -0.023658
     48          1           0        3.503033   -0.660463   -1.692937
     49          1           0       -0.522419    0.175618    3.607176
     50          1           0       -1.077480    0.430986    2.090572
     51          1           0        0.457228    3.153347    0.018979
     52          1           0        3.536046   -1.388507    3.323016
     53          1           0        1.709038   -1.319591    3.981422
     54          1           0        2.186420   -2.432959    2.566820
     55          1           0        6.306863   -2.600522    1.655484
     56          1           0        7.529708   -1.267012    1.892089
     57          1           0        7.714386   -2.592972    0.533961
     58          1           0       -1.044525   -1.955537    1.442457
     59          1           0       -0.674000   -2.380417    3.153641
     60          1           0       -1.858858   -0.360884   -0.189247
     61          1           0       -2.244491    4.715473   -1.924725
     62          1           0       -0.475911    4.639073   -1.328452
     63          1           0        8.126639   -1.201899   -2.935578
     64          1           0       -1.152747    4.693414    1.297717
     65          1           0       -2.811744    5.482056    0.710168
     66          1           0       -4.209670    4.274108   -2.305441
     67          1           0       -5.282478    3.049390   -1.044889
     68          1           0       -4.846346    2.555016   -2.874575
     69          1           0       -5.077362    0.207978   -1.564747
     70          1           0        9.536889   -0.890093   -0.281075
     71          1           0       10.022874   -1.212190   -2.102207
     72          1           0       -4.041166   -2.643774    3.317704
     73          1           0       -6.589828   -1.580915   -1.929447
     74          1           0       -3.921081   -5.511304   -2.058122
     75          1           0       -3.618293   -5.695983   -0.394677
     76          1           0       -5.234908   -5.269953   -0.993101
     77          1           0       -0.742404    8.103496    0.944134
     78          1           0       -7.969951   -3.568325   -2.550834
     79          1           0       -6.279444   -4.528326   -2.397536
 ---------------------------------------------------------------------

 SCF Done:  E(RB3LYP) =  -1947.74667795     A.U. after   23 cycles

 Excitation energies and oscillator strengths:

 Excited State   1:      Singlet-A      2.0925 eV  592.51 nm  f=0.4839  <S**2>=0.000
     154 ->156         0.10431
     155 ->156         0.69396
     155 <-156        -0.11408
 This state for optimization and/or second-order correction.
 Total Energy, E(TD-HF/TD-KS) =  -1947.66977865
 Copying the excited state density for this state as the 1-particle RhoCI density.

 The electronic state is 1-A.
 Alpha  occ. eigenvalues --  -19.20146 -19.16729 -19.14545 -19.12773 -19.08822
 Alpha  occ. eigenvalues --  -19.08637 -14.37175 -14.37159 -14.34792 -14.28572
 Alpha  occ. eigenvalues --  -10.33258 -10.30515 -10.28076 -10.25499 -10.25453
 Alpha  occ. eigenvalues --  -10.25029 -10.24846 -10.24338 -10.24270 -10.23744
 Alpha  occ. eigenvalues --  -10.23694 -10.23480 -10.23408 -10.23156 -10.22842
 Alpha  occ. eigenvalues --  -10.22802 -10.22617 -10.22558 -10.22041 -10.21352
 Alpha  occ. eigenvalues --  -10.20730 -10.20297 -10.20250 -10.19929 -10.19673
 Alpha  occ. eigenvalues --  -10.19546 -10.19515 -10.19406 -10.18715 -10.18621
 Alpha  occ. eigenvalues --  -10.18496 -10.17524 -10.16582  -1.13811  -1.09038
 Alpha  occ. eigenvalues --   -1.04397  -1.01255  -1.00918  -1.00848  -0.99997
 Alpha  occ. eigenvalues --   -0.97991  -0.93265  -0.89819  -0.84115  -0.82357
 Alpha  occ. eigenvalues --   -0.82276  -0.82013  -0.80579  -0.80072  -0.78802
 Alpha  occ. eigenvalues --   -0.76929  -0.76187  -0.75638  -0.74990  -0.73249
 Alpha  occ. eigenvalues --   -0.72560  -0.71158  -0.69577  -0.69305  -0.68198
 Alpha  occ. eigenvalues --   -0.67323  -0.66832  -0.63450  -0.61439  -0.60729
 Alpha  occ. eigenvalues --   -0.59382  -0.58722  -0.58315  -0.57442  -0.56271
 Alpha  occ. eigenvalues --   -0.55396  -0.55206  -0.54423  -0.54081  -0.53063
 Alpha  occ. eigenvalues --   -0.52295  -0.51384  -0.51324  -0.50754  -0.49742
 Alpha  occ. eigenvalues --   -0.49705  -0.49195  -0.48964  -0.48243  -0.47853
 Alpha  occ. eigenvalues --   -0.47551  -0.47102  -0.46730  -0.46445  -0.46329
 Alpha  occ. eigenvalues --   -0.45877  -0.45532  -0.44981  -0.44819  -0.44480
 Alpha  occ. eigenvalues --   -0.44303  -0.43410  -0.43304  -0.42913  -0.42617
 Alpha  occ. eigenvalues --   -0.42590  -0.42197  -0.42177  -0.41903  -0.41442
 Alpha  occ. eigenvalues --   -0.41096  -0.40784  -0.40704  -0.40378  -0.39835
 Alpha  occ. eigenvalues --   -0.39618  -0.39472  -0.39093  -0.38628  -0.38539
 Alpha  occ. eigenvalues --   -0.38382  -0.37944  -0.37741  -0.37149  -0.36919
 Alpha  occ. eigenvalues --   -0.36068  -0.35409  -0.35305  -0.34958  -0.34360
 Alpha  occ. eigenvalues --   -0.33919  -0.33450  -0.33227  -0.32831  -0.32344
 Alpha  occ. eigenvalues --   -0.31600  -0.30513  -0.29745  -0.27944  -0.27344
 Alpha  occ. eigenvalues --   -0.26511  -0.26370  -0.26173  -0.25415  -0.24650
 Alpha  occ. eigenvalues --   -0.24488  -0.23442  -0.23218  -0.21822  -0.19167
 Alpha virt. eigenvalues --   -0.11027  -0.06733  -0.05421  -0.01178  -0.00286
 Alpha virt. eigenvalues --   -0.00020   0.01617   0.01939   0.01966   0.02637
 Alpha virt. eigenvalues --    0.03318   0.03910   0.04505   0.04768   0.05419

 Mulliken charges:
               1
     1  O   -0.259596
     2  O   -0.228321
     3  O   -0.186866
     4  O   -0.143020
     5  O   -0.192411
     6  O   -0.198139
     7  N   -0.006161
     8  N   -0.143064
     9  N    0.012939
    10  N   -0.311917
    11  C    0.085493
    12  C    0.094091
    13  C    0.000207
    14  C   -0.157486
    15  C   -0.157803
    16  C    0.094620
    17  C   -0.103882
    18  C    0.256035
    19  C   -0.023390
    20  C   -0.168935
    21  C    0.109714
    22  C    0.137272
    23  C   -0.096765
    24  C    0.110626
    25  C    0.026253
    26  C   -0.057277
    27  C    0.023835
    28  C    0.032344
    29  C    0.002598
    30  C    0.081296
    31  C   -0.104307
    32  C   -0.050738
    33  C   -0.103536
    34  C    0.118680
    35  C    0.119914
    36  C   -0.139332
    37  C    0.115982
    38  C    0.032007
    39  C   -0.253592
    40  C    0.123574
    41  C   -0.040550
    42  C    0.210522
    43  C   -0.053418
    44  H    0.030066
    45  H    0.030230
    46  H   -0.049393
    47  H    0.006312
    48  H    0.082131
    49  H   -0.005809
    50  H   -0.096870
    51  H    0.047830
    52  H    0.018347
    53  H    0.033469
    54  H    0.043595
    55  H    0.034277
    56  H    0.063586
    57  H    0.051397
    58  H    0.085373
    59  H   -0.005220
    60  H    0.161508
    61  H    0.038886
    62  H    0.059603
    63  H   -0.013411
    64  H    0.077868
    65  H    0.053710
    66  H    0.062926
    67  H    0.064602
    68  H    0.059904
    69  H   -0.016859
    70  H    0.025933
    71  H    0.031876
    72  H    0.174534
    73  H    0.002874
    74  H    0.016129
    75  H    0.022856
    76  H   -0.013985
    77  H    0.156735
    78  H    0.048639
    79  H    0.008855
 Sum of Mulliken charges =   0.00000

 Dipole moment (field-independent basis, Debye):
    X=              0.0991    Y=              3.7113    Z=              3.8219  Tot=              5.3283
 Quadrupole moment (field-independent basis, Debye-Ang):
   XX=           -220.1211   YY=           -243.7019   ZZ=           -266.1430
   XY=            -12.6733   XZ=             34.8251   YZ=             -0.5121

 Normal termination of Gaussian 09 at Mon Jul  8 07:03:45 2019.
