 Gaussian 09, Revision D.01,
 Gaussian 09:  ES64L-G09RevD.01 24-Apr-2013

 --------------------------
 # td=(NStates=1) B3LYP/SVP
 --------------------------

 --
 TD
 --
 Symbolic Z-matrix:
 Charge =  0 Multiplicity = 1

                         Standard orientation:
 ---------------------------------------------------------------------
 Center     Atomic      Atomic             Coordinates (Angstroms)
 Number     Number       Type             X           Y           Z
 ---------------------------------------------------------------------
      1          8           0        5.496091   -0.227677   -3.357213
      2          8           0       -2.766708   -3.159446    3.173271
      3          8           0       -3.092413   -0.969040    3.421610
      4          8           0       -1.311975    7.041206    1.681290
      5          8           0       -0.315140    6.890053   -0.363732
      6          8           0       -2.049852   -3.943462   -0.052508
      7          7           0        2.382224    0.943993    0.494592
      8          7           0        4.383442   -0.676727   -1.371084
      9          7           0       -1.855891    0.700148   -0.343560
     10          7           0       -2.787688   -1.862207   -0.433554
     11          6           0        4.753925   -1.247250   -0.014374
     12          6           0        4.457551   -0.321283    1.195188
     13          6           0        3.024287    0.086575    1.232417
     14          6           0        2.061759   -0.653631    2.051191
     15          6           0        0.764879   -0.047478    1.722756
     16          6           0        1.006173    0.869763    0.778047
     17          6           0        6.294567   -1.499007   -0.222199
     18          6           0       -0.582936   -0.332284    2.485929
     19          6           0        6.695882   -0.995375   -1.372241
     20          6           0        0.229848    1.870620    0.036806
     21          6           0       -1.067614    1.821467   -0.384463
     22          6           0        5.475164   -0.680000   -2.190211
     23          6           0       -1.935326    2.928133   -0.964968
     24          6           0        2.306222   -1.642762    3.149602
     25          6           0        7.186970   -1.991410    0.900472
     26          6           0       -3.120770    2.453074   -1.314614
     27          6           0       -1.083626   -1.760812    2.595448
     28          6           0       -3.113684    0.998647   -1.001019
     29          6           0       -1.531498    4.338324   -0.873921
     30          6           0        7.966706   -0.845557   -2.090530
     31          6           0       -1.814275    5.120403    0.389987
     32          6           0       -4.294983    3.143724   -1.935641
     33          6           0       -4.073948    0.053759   -1.166775
     34          6           0       -2.486419   -1.880644    3.037986
     35          6           0       -3.918506   -1.358209   -0.856815
     36          6           0        9.226202   -0.755967   -1.456857
     37          6           0       -1.073475    6.437614    0.524009
     38          6           0       -4.903496   -2.367095   -1.349774
     39          6           0       -4.279041   -3.583579   -1.109022
     40          6           0       -2.889374   -3.241555   -0.493374
     41          6           0       -6.197259   -2.153082   -2.024554
     42          6           0       -4.502563   -5.013372   -1.393660
     43          6           0       -7.012059   -2.998256   -2.583203
     44          1           0        4.291124   -2.171519    0.101978
     45          1           0        5.372110    0.514077    0.780034
     46          1           0        4.964514   -0.733207    2.104464
     47          1           0        2.826092    1.426721   -0.325704
     48          1           0        3.533369   -0.681798   -1.938715
     49          1           0       -0.559266    0.317020    3.446432
     50          1           0       -1.210320    0.465401    2.007235
     51          1           0        0.787134    2.858270   -0.257352
     52          1           0        3.186853   -1.804069    3.446295
     53          1           0        1.874032   -1.323988    3.992717
     54          1           0        1.910681   -2.906016    3.217990
     55          1           0        6.384985   -2.629280    1.487597
     56          1           0        7.744946   -1.110150    1.397695
     57          1           0        8.071928   -2.414069    0.466102
     58          1           0       -1.001069   -2.238512    1.638615
     59          1           0       -0.522983   -2.396972    3.389960
     60          1           0       -1.599850   -0.395999   -0.208159
     61          1           0       -1.922248    4.875081   -1.700107
     62          1           0       -0.461889    4.808473   -0.994595
     63          1           0        7.804039   -0.545570   -3.016991
     64          1           0       -1.570252    4.369261    1.327327
     65          1           0       -2.771731    5.303789    0.669626
     66          1           0       -4.118419    4.103701   -2.387151
     67          1           0       -5.222155    3.187827   -1.310849
     68          1           0       -4.815396    2.604956   -2.785841
     69          1           0       -4.938113    0.335946   -1.633008
     70          1           0        9.290887   -1.020706   -0.456193
     71          1           0       10.156144   -0.638112   -1.978433
     72          1           0       -3.631932   -3.130172    3.598005
     73          1           0       -6.346860   -1.068055   -1.916962
     74          1           0       -4.577931   -5.287573   -2.545711
     75          1           0       -3.719534   -5.550925   -0.974114
     76          1           0       -5.359367   -5.375761   -1.003583
     77          1           0       -1.142558    7.993524    1.728861
     78          1           0       -7.943394   -2.958543   -2.917056
     79          1           0       -6.713889   -4.093550   -2.706641
 ---------------------------------------------------------------------

 SCF Done:  E(RB3LYP) =  -1947.81361439     A.U. after   16 cycles

 Excitation energies and oscillator strengths:

 Excited State   1:      Singlet-A      2.0283 eV  611.26 nm  f=0.4111  <S**2>=0.000
     155 ->156         0.70462
 This state for optimization and/or second-order correction.
 Total Energy, E(TD-HF/TD-KS) =  -1947.73907402
 Copying the excited state density for this state as the 1-particle RhoCI density.

 The electronic state is 1-A.
 Alpha  occ. eigenvalues --  -19.19817 -19.17194 -19.13410 -19.11328 -19.11063
 Alpha  occ. eigenvalues --  -19.09445 -14.38551 -14.36088 -14.35792 -14.29425
 Alpha  occ. eigenvalues --  -10.33580 -10.29441 -10.27798 -10.26674 -10.25354
 Alpha  occ. eigenvalues --  -10.24797 -10.24123 -10.23665 -10.23619 -10.23351
 Alpha  occ. eigenvalues --  -10.22228 -10.22040 -10.21680 -10.21512 -10.21494
 Alpha  occ. eigenvalues --  -10.21388 -10.21332 -10.20878 -10.20632 -10.20602
 Alpha  occ. eigenvalues --  -10.20292 -10.20187 -10.19828 -10.19795 -10.19447
 Alpha  occ. eigenvalues --  -10.19381 -10.19141 -10.19021 -10.18919 -10.18478
 Alpha  occ. eigenvalues --  -10.18227 -10.18215 -10.18137  -1.10844  -1.10592
 Alpha  occ. eigenvalues --   -1.04325  -1.01934  -1.00895  -1.00236  -0.99420
 Alpha  occ. eigenvalues --   -0.95898  -0.93063  -0.92709  -0.82960  -0.82504
 Alpha  occ. eigenvalues --   -0.81294  -0.80845  -0.80005  -0.79469  -0.78101
 Alpha  occ. eigenvalues --   -0.76679  -0.76202  -0.75938  -0.74519  -0.72852
 Alpha  occ. eigenvalues --   -0.71886  -0.71480  -0.70798  -0.69267  -0.68855
 Alpha  occ. eigenvalues --   -0.66998  -0.65719  -0.64012  -0.62303  -0.61650
 Alpha  occ. eigenvalues --   -0.60977  -0.59224  -0.58398  -0.57710  -0.57337
 Alpha  occ. eigenvalues --   -0.56358  -0.55935  -0.54860  -0.54232  -0.53520
 Alpha  occ. eigenvalues --   -0.52663  -0.51899  -0.51318  -0.51136  -0.49355
 Alpha  occ. eigenvalues --   -0.48910  -0.48615  -0.48281  -0.48067  -0.47819
 Alpha  occ. eigenvalues --   -0.47655  -0.47432  -0.46947  -0.46507  -0.46116
 Alpha  occ. eigenvalues --   -0.45499  -0.45270  -0.44658  -0.44581  -0.44016
 Alpha  occ. eigenvalues --   -0.43556  -0.43207  -0.42986  -0.42416  -0.42142
 Alpha  occ. eigenvalues --   -0.41805  -0.41408  -0.41153  -0.41106  -0.40813
 Alpha  occ. eigenvalues --   -0.40539  -0.40450  -0.39987  -0.39838  -0.39454
 Alpha  occ. eigenvalues --   -0.39345  -0.39185  -0.39042  -0.38666  -0.38635
 Alpha  occ. eigenvalues --   -0.38348  -0.37507  -0.37457  -0.36897  -0.36608
 Alpha  occ. eigenvalues --   -0.36288  -0.36169  -0.35463  -0.35108  -0.34033
 Alpha  occ. eigenvalues --   -0.33357  -0.33017  -0.32729  -0.32244  -0.31539
 Alpha  occ. eigenvalues --   -0.31315  -0.30823  -0.29162  -0.28979  -0.28478
 Alpha  occ. eigenvalues --   -0.26785  -0.26436  -0.26305  -0.25268  -0.24905
 Alpha  occ. eigenvalues --   -0.24653  -0.23983  -0.23179  -0.22624  -0.18560
 Alpha virt. eigenvalues --   -0.10569  -0.05941  -0.05631  -0.01851  -0.00705
 Alpha virt. eigenvalues --    0.00106   0.00742   0.02651   0.03245   0.03392
 Alpha virt. eigenvalues --    0.03611   0.04500   0.04681   0.05166   0.05579

 Mulliken charges:
               1
     1  O   -0.273100
     2  O   -0.143702
     3  O   -0.184379
     4  O   -0.164807
     5  O   -0.263008
     6  O   -0.144459
     7  N   -0.031340
     8  N   -0.207789
     9  N   -0.186999
    10  N   -0.245225
    11  C    0.179331
    12  C    0.028945
    13  C   -0.025163
    14  C   -0.142430
    15  C   -0.106605
    16  C    0.083572
    17  C   -0.258158
    18  C    0.075500
    19  C   -0.020547
    20  C   -0.133236
    21  C    0.086948
    22  C    0.128452
    23  C   -0.017059
    24  C    0.166514
    25  C    0.057411
    26  C   -0.052601
    27  C    0.042767
    28  C    0.128930
    29  C    0.040862
    30  C    0.072799
    31  C   -0.015170
    32  C    0.087706
    33  C   -0.084868
    34  C    0.082814
    35  C    0.113244
    36  C    0.004499
    37  C    0.158602
    38  C   -0.028182
    39  C   -0.241010
    40  C    0.120577
    41  C    0.072734
    42  C    0.160093
    43  C    0.000835
    44  H   -0.003197
    45  H    0.024990
    46  H    0.032771
    47  H    0.142109
    48  H    0.135942
    49  H    0.012124
    50  H   -0.004470
    51  H    0.014253
    52  H   -0.091551
    53  H   -0.019091
    54  H    0.019437
    55  H    0.056178
    56  H    0.050079
    57  H    0.028869
    58  H    0.041481
    59  H    0.045215
    60  H    0.213984
    61  H   -0.010272
    62  H    0.041501
    63  H   -0.042589
    64  H    0.059438
    65  H   -0.008154
    66  H    0.014127
    67  H    0.022699
    68  H    0.018088
    69  H   -0.088255
    70  H   -0.015630
    71  H    0.030191
    72  H    0.156030
    73  H   -0.021810
    74  H    0.042486
    75  H   -0.001191
    76  H   -0.010095
    77  H    0.196409
    78  H   -0.019060
    79  H    0.013660
 Sum of Mulliken charges =   0.00000

 Dipole moment (field-independent basis, Debye):
    X=             -1.9126    Y=              2.0869    Z=              3.0119  Tot=              4.1334
 Quadrupole moment (field-independent basis, Debye-Ang):
   XX=           -217.4549   YY=           -233.7167   ZZ=           -262.7082
   XY=            -13.2028   XZ=             33.5549   YZ=              6.1887

 Normal termination of Gaussian 09 at Mon Jul  8 08:50:34 2019.
