 Gaussian 09, Revision D.01,
 Gaussian 09:  ES64L-G09RevD.01 24-Apr-2013

 --------------------------
 # td=(NStates=1) B3LYP/SVP
 --------------------------

 --
 TD
 --
 Symbolic Z-matrix:
 Charge =  0 Multiplicity = 1

                         Standard orientation:
 ---------------------------------------------------------------------
 Center     Atomic      Atomic             Coordinates (Angstroms)
 Number     Number       Type             X           Y           Z
 ---------------------------------------------------------------------
      1          8           0        5.371049    0.085104   -3.272759
      2          8           0       -3.043538   -3.019247    3.337973
      3          8           0       -3.172898   -0.748387    3.379696
      4          8           0       -1.595786    7.116806    1.642756
      5          8           0       -0.442509    7.069889   -0.322228
      6          8           0       -1.838650   -4.088816   -0.152978
      7          7           0        2.428673    0.824075    0.613019
      8          7           0        4.322255   -0.674213   -1.340832
      9          7           0       -1.761960    0.638198   -0.432651
     10          7           0       -2.604649   -1.927234   -0.616016
     11          6           0        4.747131   -1.227029   -0.176766
     12          6           0        4.404213   -0.548781    1.286672
     13          6           0        3.100417   -0.125129    1.462690
     14          6           0        2.015658   -0.698690    2.183560
     15          6           0        0.685161   -0.160749    1.828883
     16          6           0        1.026118    0.864173    0.816442
     17          6           0        6.190980   -1.423680   -0.277400
     18          6           0       -0.612226   -0.306908    2.541617
     19          6           0        6.636602   -0.893133   -1.406683
     20          6           0        0.298140    1.865216    0.198189
     21          6           0       -1.077257    1.819694   -0.325987
     22          6           0        5.354144   -0.410275   -2.146430
     23          6           0       -1.792500    2.960282   -0.856957
     24          6           0        2.219172   -1.721319    3.247303
     25          6           0        6.979809   -2.016608    0.845585
     26          6           0       -2.959920    2.358927   -1.392845
     27          6           0       -1.177634   -1.772545    2.606515
     28          6           0       -2.940464    1.009775   -1.053355
     29          6           0       -1.334765    4.358099   -0.868304
     30          6           0        8.009250   -0.918159   -2.078382
     31          6           0       -1.712275    5.086774    0.447169
     32          6           0       -4.095311    3.150732   -2.086728
     33          6           0       -4.040922   -0.029689   -1.187712
     34          6           0       -2.496830   -1.768391    3.088814
     35          6           0       -3.782327   -1.420425   -1.011958
     36          6           0        9.152379   -0.787494   -1.482911
     37          6           0       -1.254989    6.577702    0.457096
     38          6           0       -4.739186   -2.520881   -1.474223
     39          6           0       -4.118102   -3.670282   -1.159800
     40          6           0       -2.721515   -3.319542   -0.523433
     41          6           0       -6.091244   -2.195411   -2.069127
     42          6           0       -4.581608   -5.027045   -1.257722
     43          6           0       -6.823597   -3.023934   -2.806467
     44          1           0        4.158468   -2.427899   -0.262009
     45          1           0        4.755196    0.417557    1.275794
     46          1           0        4.897087   -1.072048    2.120235
     47          1           0        2.821922    1.431075   -0.108960
     48          1           0        3.391477   -0.428477   -1.573343
     49          1           0       -0.343766    0.000486    3.662891
     50          1           0       -1.417362    0.344221    1.975356
     51          1           0        0.562121    2.888714   -0.171411
     52          1           0        3.239567   -1.903939    3.189817
     53          1           0        1.707077   -1.456843    3.974436
     54          1           0        1.631254   -2.649448    2.878694
     55          1           0        6.627299   -3.024499    1.307187
     56          1           0        7.073957   -1.386322    1.691349
     57          1           0        7.986264   -2.362360    0.498236
     58          1           0       -1.269945   -2.289427    1.751681
     59          1           0       -0.541109   -2.292856    3.390163
     60          1           0       -1.248078   -0.301090   -0.382134
     61          1           0       -2.011157    4.877635   -1.623305
     62          1           0       -0.268835    4.581680   -0.922778
     63          1           0        7.693775   -0.825829   -3.281351
     64          1           0       -1.146725    4.565218    1.388429
     65          1           0       -2.718749    5.160811    0.499008
     66          1           0       -3.721885    4.196349   -2.247739
     67          1           0       -5.063470    3.265046   -1.539376
     68          1           0       -4.518626    2.731540   -3.121638
     69          1           0       -4.892528    0.489084   -1.883759
     70          1           0        9.359204   -0.673433   -0.269174
     71          1           0        9.909037   -0.607524   -2.424079
     72          1           0       -3.940867   -2.856243    3.678141
     73          1           0       -6.527632   -1.124611   -1.857492
     74          1           0       -4.361661   -5.350985   -2.277279
     75          1           0       -4.128090   -5.580555   -0.439660
     76          1           0       -5.668670   -5.089032   -1.204358
     77          1           0       -1.052356    7.950647    1.493294
     78          1           0       -7.987291   -2.777994   -3.110317
     79          1           0       -6.695488   -4.158866   -2.742945
 ---------------------------------------------------------------------

 SCF Done:  E(RB3LYP) =  -1947.76836179     A.U. after   25 cycles

 Excitation energies and oscillator strengths:

 Excited State   1:      Singlet-A      1.9030 eV  651.50 nm  f=0.4717  <S**2>=0.000
     154 ->156         0.13779
     155 ->156         0.70249
     155 <-156        -0.15447
 This state for optimization and/or second-order correction.
 Total Energy, E(TD-HF/TD-KS) =  -1947.69842603
 Copying the excited state density for this state as the 1-particle RhoCI density.

 The electronic state is 1-A.
 Alpha  occ. eigenvalues --  -19.20683 -19.16622 -19.14884 -19.11037 -19.10409
 Alpha  occ. eigenvalues --  -19.10006 -14.39392 -14.37401 -14.37333 -14.28264
 Alpha  occ. eigenvalues --  -10.33802 -10.30771 -10.29237 -10.27385 -10.26194
 Alpha  occ. eigenvalues --  -10.25106 -10.25070 -10.24704 -10.24681 -10.23029
 Alpha  occ. eigenvalues --  -10.23024 -10.22639 -10.22475 -10.22414 -10.22276
 Alpha  occ. eigenvalues --  -10.22114 -10.21886 -10.21814 -10.21778 -10.21674
 Alpha  occ. eigenvalues --  -10.21601 -10.21559 -10.21332 -10.20760 -10.20454
 Alpha  occ. eigenvalues --  -10.20412 -10.20397 -10.19788 -10.19320 -10.19194
 Alpha  occ. eigenvalues --  -10.18643 -10.18453 -10.17441  -1.11801  -1.06715
 Alpha  occ. eigenvalues --   -1.03773  -1.01900  -1.00136  -0.98819  -0.97809
 Alpha  occ. eigenvalues --   -0.97049  -0.96958  -0.90469  -0.84079  -0.83738
 Alpha  occ. eigenvalues --   -0.83021  -0.82147  -0.79924  -0.79488  -0.78774
 Alpha  occ. eigenvalues --   -0.78139  -0.77098  -0.75502  -0.74460  -0.72942
 Alpha  occ. eigenvalues --   -0.72507  -0.71535  -0.70115  -0.69285  -0.68741
 Alpha  occ. eigenvalues --   -0.68391  -0.66896  -0.63401  -0.62362  -0.59612
 Alpha  occ. eigenvalues --   -0.59263  -0.58917  -0.57942  -0.57471  -0.56584
 Alpha  occ. eigenvalues --   -0.56320  -0.55580  -0.55387  -0.54690  -0.53013
 Alpha  occ. eigenvalues --   -0.52231  -0.51664  -0.50989  -0.50677  -0.50089
 Alpha  occ. eigenvalues --   -0.49797  -0.49730  -0.49672  -0.48977  -0.48330
 Alpha  occ. eigenvalues --   -0.47954  -0.47693  -0.46709  -0.46425  -0.45994
 Alpha  occ. eigenvalues --   -0.45585  -0.45067  -0.44703  -0.44270  -0.43758
 Alpha  occ. eigenvalues --   -0.43670  -0.43425  -0.43371  -0.43238  -0.42924
 Alpha  occ. eigenvalues --   -0.42613  -0.42181  -0.41788  -0.41365  -0.41142
 Alpha  occ. eigenvalues --   -0.40748  -0.40373  -0.40281  -0.39610  -0.39461
 Alpha  occ. eigenvalues --   -0.39367  -0.39280  -0.39031  -0.38724  -0.38625
 Alpha  occ. eigenvalues --   -0.38201  -0.38030  -0.37837  -0.37567  -0.36995
 Alpha  occ. eigenvalues --   -0.36724  -0.36370  -0.36011  -0.34953  -0.34148
 Alpha  occ. eigenvalues --   -0.33681  -0.33462  -0.32945  -0.32677  -0.31845
 Alpha  occ. eigenvalues --   -0.30249  -0.30184  -0.29883  -0.28508  -0.27334
 Alpha  occ. eigenvalues --   -0.26590  -0.26448  -0.26374  -0.25790  -0.25563
 Alpha  occ. eigenvalues --   -0.24704  -0.23869  -0.23301  -0.21864  -0.18627
 Alpha virt. eigenvalues --   -0.11622  -0.05991  -0.05114  -0.02749  -0.01096
 Alpha virt. eigenvalues --    0.00131   0.00210   0.00771   0.01520   0.02583
 Alpha virt. eigenvalues --    0.03038   0.03513   0.04100   0.04505   0.04640

 Mulliken charges:
               1
     1  O   -0.236404
     2  O   -0.212287
     3  O   -0.281748
     4  O   -0.172226
     5  O   -0.248212
     6  O   -0.219842
     7  N   -0.179455
     8  N   -0.063782
     9  N   -0.078772
    10  N   -0.291366
    11  C    0.014807
    12  C    0.228995
    13  C   -0.013266
    14  C   -0.252905
    15  C   -0.024796
    16  C    0.123188
    17  C   -0.140244
    18  C   -0.015318
    19  C   -0.101335
    20  C   -0.060778
    21  C   -0.075201
    22  C    0.099115
    23  C   -0.044522
    24  C    0.280120
    25  C    0.052136
    26  C   -0.084010
    27  C    0.120019
    28  C    0.036158
    29  C    0.076804
    30  C   -0.019799
    31  C   -0.016964
    32  C    0.024689
    33  C   -0.109409
    34  C    0.118200
    35  C    0.086476
    36  C   -0.097843
    37  C    0.148448
    38  C    0.048947
    39  C   -0.259901
    40  C    0.171542
    41  C   -0.013652
    42  C    0.122190
    43  C   -0.103410
    44  H    0.042992
    45  H   -0.026540
    46  H    0.019577
    47  H    0.117839
    48  H    0.118607
    49  H    0.046394
    50  H    0.068054
    51  H   -0.020095
    52  H   -0.023049
    53  H   -0.061586
    54  H    0.035048
    55  H    0.026201
    56  H    0.028454
    57  H    0.030462
    58  H    0.014475
    59  H    0.042099
    60  H    0.189571
    61  H    0.024688
    62  H    0.034225
    63  H    0.071780
    64  H    0.082706
    65  H    0.003728
    66  H    0.010629
    67  H    0.038990
    68  H    0.048755
    69  H    0.023362
    70  H    0.077322
    71  H    0.063627
    72  H    0.181738
    73  H    0.033851
    74  H    0.030196
    75  H    0.030847
    76  H    0.007851
    77  H    0.183527
    78  H    0.038196
    79  H    0.031098
 Sum of Mulliken charges =   0.00000

 Dipole moment (field-independent basis, Debye):
    X=              2.1669    Y=              3.6612    Z=              3.8767  Tot=              5.7558
 Quadrupole moment (field-independent basis, Debye-Ang):
   XX=           -230.0539   YY=           -251.0435   ZZ=           -265.5752
   XY=            -14.1932   XZ=             32.2882   YZ=             -0.2375

 Normal termination of Gaussian 09 at Mon Jul  8 12:35:55 2019.
