 Gaussian 09, Revision D.01,
 Gaussian 09:  ES64L-G09RevD.01 24-Apr-2013

 --------------------------
 # td=(NStates=1) B3LYP/SVP
 --------------------------

 --
 TD
 --
 Symbolic Z-matrix:
 Charge =  0 Multiplicity = 1

                         Standard orientation:
 ---------------------------------------------------------------------
 Center     Atomic      Atomic             Coordinates (Angstroms)
 Number     Number       Type             X           Y           Z
 ---------------------------------------------------------------------
      1          8           0        5.253143   -0.284878   -3.375412
      2          8           0       -2.873385   -2.981570    3.488619
      3          8           0       -3.364130   -0.793166    3.122042
      4          8           0       -1.418312    7.302087    1.528455
      5          8           0       -0.060080    6.853195   -0.286077
      6          8           0       -2.113889   -3.935594    0.133708
      7          7           0        2.388695    0.842327    0.634428
      8          7           0        4.310977   -0.668576   -1.221452
      9          7           0       -1.864764    0.726229   -0.397452
     10          7           0       -2.758042   -1.814845   -0.486310
     11          6           0        4.767507   -1.258947    0.013841
     12          6           0        4.437003   -0.439336    1.312641
     13          6           0        3.036632   -0.235696    1.316315
     14          6           0        1.983442   -0.754154    2.147383
     15          6           0        0.734175   -0.095360    1.798260
     16          6           0        1.056679    0.852199    0.746197
     17          6           0        6.235404   -1.460684   -0.250310
     18          6           0       -0.576701   -0.251083    2.606750
     19          6           0        6.601725   -1.006778   -1.580039
     20          6           0        0.225667    1.893990    0.088640
     21          6           0       -1.036349    1.869546   -0.361939
     22          6           0        5.338838   -0.586191   -2.232907
     23          6           0       -1.855215    2.919713   -0.945484
     24          6           0        2.217779   -1.751985    3.165177
     25          6           0        7.309433   -1.999156    0.830524
     26          6           0       -3.038238    2.462681   -1.273444
     27          6           0       -1.124271   -1.726929    2.564386
     28          6           0       -3.048680    1.029826   -1.024582
     29          6           0       -1.377795    4.426062   -0.938962
     30          6           0        7.915248   -0.941164   -2.171139
     31          6           0       -1.564875    5.085448    0.477118
     32          6           0       -4.235559    3.135706   -1.985921
     33          6           0       -4.069056    0.054993   -1.366438
     34          6           0       -2.622229   -1.691746    3.048325
     35          6           0       -3.854403   -1.372534   -1.160479
     36          6           0        9.170817   -0.869409   -1.489920
     37          6           0       -0.939697    6.450610    0.556340
     38          6           0       -4.805144   -2.446107   -1.482950
     39          6           0       -4.163294   -3.625872   -1.106445
     40          6           0       -2.863971   -3.211727   -0.535384
     41          6           0       -6.117291   -2.196061   -2.107138
     42          6           0       -4.578892   -5.063709   -1.049334
     43          6           0       -6.833008   -3.012278   -2.806874
     44          1           0        4.317668   -2.422433    0.251721
     45          1           0        5.035471    0.550187    1.295717
     46          1           0        4.780009   -0.920841    2.221884
     47          1           0        2.962823    1.319608   -0.171870
     48          1           0        3.500374   -0.725615   -1.659567
     49          1           0       -0.429200    0.167995    3.743776
     50          1           0       -1.375055    0.414825    2.255453
     51          1           0        0.907428    2.826369    0.095805
     52          1           0        3.347246   -1.781012    3.503784
     53          1           0        1.689551   -1.553972    4.215659
     54          1           0        1.952771   -2.893548    2.871101
     55          1           0        6.677221   -2.870210    1.427961
     56          1           0        7.639250   -1.113566    1.513225
     57          1           0        7.988337   -2.386717    0.410820
     58          1           0       -1.138258   -2.036964    1.491583
     59          1           0       -0.570947   -2.350957    3.020469
     60          1           0       -1.699786   -0.203320   -0.141858
     61          1           0       -1.975545    5.053294   -1.672416
     62          1           0       -0.294815    4.335582   -1.223641
     63          1           0        7.961051   -0.906540   -3.255667
     64          1           0       -1.074386    4.344176    1.265539
     65          1           0       -2.594028    5.175363    0.681260
     66          1           0       -4.226009    4.230977   -2.324406
     67          1           0       -5.333226    3.053307   -1.595704
     68          1           0       -4.234883    2.632758   -2.919655
     69          1           0       -4.878799    0.526106   -1.696953
     70          1           0        9.311210   -0.715750   -0.511667
     71          1           0       10.005871   -0.901587   -2.296485
     72          1           0       -3.840645   -2.833564    3.649826
     73          1           0       -6.516635   -1.179069   -2.108139
     74          1           0       -4.777482   -5.239942   -2.046940
     75          1           0       -3.996946   -5.836413   -0.531011
     76          1           0       -5.730544   -5.122040   -0.858003
     77          1           0       -0.849736    8.213772    1.713968
     78          1           0       -7.833676   -2.655185   -3.152078
     79          1           0       -6.584598   -4.174798   -2.871898
 ---------------------------------------------------------------------

 SCF Done:  E(RB3LYP) =  -1947.81488187     A.U. after   17 cycles

 Excitation energies and oscillator strengths:

 Excited State   1:      Singlet-A      2.0794 eV  596.26 nm  f=0.3680  <S**2>=0.000
     153 ->156         0.10367
     155 ->156         0.68787
 This state for optimization and/or second-order correction.
 Total Energy, E(TD-HF/TD-KS) =  -1947.73846710
 Copying the excited state density for this state as the 1-particle RhoCI density.

 The electronic state is 1-A.
 Alpha  occ. eigenvalues --  -19.19429 -19.16104 -19.12642 -19.12577 -19.11488
 Alpha  occ. eigenvalues --  -19.10127 -14.38709 -14.36434 -14.35090 -14.28726
 Alpha  occ. eigenvalues --  -10.33395 -10.30360 -10.29056 -10.27077 -10.25966
 Alpha  occ. eigenvalues --  -10.25243 -10.24713 -10.23785 -10.23569 -10.23454
 Alpha  occ. eigenvalues --  -10.22748 -10.22651 -10.22557 -10.22261 -10.22182
 Alpha  occ. eigenvalues --  -10.21655 -10.21540 -10.21430 -10.21328 -10.21189
 Alpha  occ. eigenvalues --  -10.21132 -10.20710 -10.20657 -10.20475 -10.20444
 Alpha  occ. eigenvalues --  -10.19981 -10.19862 -10.19857 -10.19533 -10.19250
 Alpha  occ. eigenvalues --  -10.19229 -10.19085 -10.16974  -1.08807  -1.06497
 Alpha  occ. eigenvalues --   -1.04889  -1.00400  -1.00362  -0.98448  -0.97525
 Alpha  occ. eigenvalues --   -0.97253  -0.94568  -0.91168  -0.82819  -0.82054
 Alpha  occ. eigenvalues --   -0.81232  -0.80596  -0.80258  -0.79265  -0.77951
 Alpha  occ. eigenvalues --   -0.76825  -0.75909  -0.74869  -0.74514  -0.72151
 Alpha  occ. eigenvalues --   -0.71941  -0.70519  -0.70155  -0.68614  -0.68165
 Alpha  occ. eigenvalues --   -0.66353  -0.64714  -0.64217  -0.61381  -0.60470
 Alpha  occ. eigenvalues --   -0.60018  -0.58323  -0.57623  -0.57393  -0.56228
 Alpha  occ. eigenvalues --   -0.55701  -0.55077  -0.54540  -0.54342  -0.53435
 Alpha  occ. eigenvalues --   -0.52344  -0.51234  -0.51186  -0.50576  -0.49486
 Alpha  occ. eigenvalues --   -0.48410  -0.48205  -0.47840  -0.47728  -0.47670
 Alpha  occ. eigenvalues --   -0.46877  -0.46776  -0.46383  -0.46142  -0.45745
 Alpha  occ. eigenvalues --   -0.45141  -0.44977  -0.44328  -0.43979  -0.43724
 Alpha  occ. eigenvalues --   -0.43281  -0.43187  -0.42569  -0.42515  -0.42152
 Alpha  occ. eigenvalues --   -0.41800  -0.41639  -0.41427  -0.41243  -0.40949
 Alpha  occ. eigenvalues --   -0.40751  -0.40647  -0.40110  -0.39811  -0.39559
 Alpha  occ. eigenvalues --   -0.39262  -0.39200  -0.38906  -0.38296  -0.38275
 Alpha  occ. eigenvalues --   -0.37867  -0.37382  -0.37237  -0.37060  -0.36891
 Alpha  occ. eigenvalues --   -0.36344  -0.35995  -0.35414  -0.35129  -0.34914
 Alpha  occ. eigenvalues --   -0.33946  -0.33817  -0.32733  -0.31524  -0.31435
 Alpha  occ. eigenvalues --   -0.31150  -0.31053  -0.28972  -0.27825  -0.27683
 Alpha  occ. eigenvalues --   -0.27596  -0.27421  -0.27073  -0.26367  -0.24143
 Alpha  occ. eigenvalues --   -0.23709  -0.23407  -0.22959  -0.21930  -0.19263
 Alpha virt. eigenvalues --   -0.10835  -0.07284  -0.06313  -0.02450  -0.00615
 Alpha virt. eigenvalues --   -0.00310   0.00526   0.00908   0.02510   0.02855
 Alpha virt. eigenvalues --    0.03346   0.03837   0.04098   0.05057   0.05321

 Mulliken charges:
               1
     1  O   -0.169945
     2  O   -0.205862
     3  O   -0.178571
     4  O   -0.268872
     5  O   -0.288365
     6  O   -0.219497
     7  N   -0.116562
     8  N   -0.183628
     9  N   -0.052987
    10  N   -0.293359
    11  C    0.044000
    12  C    0.180957
    13  C   -0.051890
    14  C   -0.073426
    15  C   -0.081488
    16  C    0.005687
    17  C   -0.193183
    18  C    0.019999
    19  C   -0.027951
    20  C   -0.142866
    21  C    0.182075
    22  C    0.128533
    23  C   -0.116968
    24  C   -0.044240
    25  C    0.159657
    26  C   -0.055694
    27  C    0.083768
    28  C    0.016289
    29  C    0.089044
    30  C   -0.056269
    31  C    0.010459
    32  C    0.032650
    33  C   -0.003707
    34  C    0.131337
    35  C    0.125567
    36  C   -0.004291
    37  C    0.190033
    38  C    0.061409
    39  C   -0.215760
    40  C    0.149798
    41  C   -0.007876
    42  C    0.155164
    43  C   -0.065875
    44  H    0.056967
    45  H    0.013811
    46  H   -0.006171
    47  H    0.146638
    48  H    0.086091
    49  H    0.024124
    50  H    0.007096
    51  H    0.031212
    52  H    0.008551
    53  H    0.038656
    54  H    0.060993
    55  H    0.036511
    56  H    0.061490
    57  H   -0.065138
    58  H    0.073350
    59  H   -0.053965
    60  H    0.112944
    61  H    0.026649
    62  H    0.036052
    63  H    0.014694
    64  H    0.072702
    65  H    0.023360
    66  H    0.025494
    67  H    0.047174
    68  H    0.023935
    69  H   -0.105014
    70  H   -0.013876
    71  H    0.048538
    72  H    0.158653
    73  H   -0.007256
    74  H   -0.006458
    75  H    0.052988
    76  H    0.008974
    77  H    0.253203
    78  H    0.028869
    79  H    0.030863
 Sum of Mulliken charges =   0.00000

 Dipole moment (field-independent basis, Debye):
    X=              0.1921    Y=              2.7522    Z=              2.2325  Tot=              3.5490
 Quadrupole moment (field-independent basis, Debye-Ang):
   XX=           -214.7357   YY=           -243.7319   ZZ=           -261.9034
   XY=            -11.2274   XZ=             33.2078   YZ=             10.2897

 Normal termination of Gaussian 09 at Wed Jul 10 09:39:35 2019.
