 Gaussian 09, Revision D.01,
 Gaussian 09:  ES64L-G09RevD.01 24-Apr-2013

 --------------------------
 # td=(NStates=1) B3LYP/SVP
 --------------------------

 --
 TD
 --
 Symbolic Z-matrix:
 Charge =  0 Multiplicity = 1

                         Standard orientation:
 ---------------------------------------------------------------------
 Center     Atomic      Atomic             Coordinates (Angstroms)
 Number     Number       Type             X           Y           Z
 ---------------------------------------------------------------------
      1          8           0        5.121607   -0.393550   -3.330471
      2          8           0       -3.035366   -2.945124    3.201583
      3          8           0       -3.279318   -0.770958    3.139022
      4          8           0       -1.276320    7.167242    1.559756
      5          8           0       -1.011084    7.186696   -0.829934
      6          8           0       -1.887880   -3.909247    0.183660
      7          7           0        2.410444    0.825269    0.502695
      8          7           0        4.297396   -0.701542   -1.293729
      9          7           0       -1.845081    0.704905   -0.356277
     10          7           0       -2.652168   -1.854551   -0.493431
     11          6           0        4.750696   -1.261259    0.011047
     12          6           0        4.462314   -0.316900    1.195740
     13          6           0        3.041142    0.020123    1.356859
     14          6           0        2.055459   -0.521652    2.244460
     15          6           0        0.744385    0.110929    1.893919
     16          6           0        1.081706    0.967578    0.746316
     17          6           0        6.241156   -1.402533   -0.156595
     18          6           0       -0.630430   -0.094950    2.601310
     19          6           0        6.522929   -0.963706   -1.391388
     20          6           0        0.273565    1.913205    0.074784
     21          6           0       -1.075081    1.885475   -0.371780
     22          6           0        5.294907   -0.664547   -2.195919
     23          6           0       -1.955337    2.899426   -0.907566
     24          6           0        2.339072   -1.466581    3.357999
     25          6           0        7.212694   -1.913678    0.803288
     26          6           0       -3.064787    2.254581   -1.228104
     27          6           0       -1.028970   -1.546300    2.590838
     28          6           0       -2.996471    0.875866   -0.957965
     29          6           0       -1.552240    4.336140   -0.969566
     30          6           0        7.890170   -0.862626   -2.141408
     31          6           0       -1.834672    5.080039    0.359449
     32          6           0       -4.312943    2.945322   -1.829832
     33          6           0       -3.998306   -0.069969   -1.331525
     34          6           0       -2.570836   -1.711721    2.941534
     35          6           0       -3.730681   -1.508069   -1.003463
     36          6           0        9.096166   -0.624265   -1.506074
     37          6           0       -1.258389    6.568345    0.267006
     38          6           0       -4.569086   -2.629147   -1.456564
     39          6           0       -4.038237   -3.741673   -0.997995
     40          6           0       -2.617007   -3.234279   -0.447614
     41          6           0       -5.814975   -2.553248   -2.141943
     42          6           0       -4.263169   -5.215356   -0.996932
     43          6           0       -6.590514   -3.521736   -2.670138
     44          1           0        4.266548   -2.269093    0.228336
     45          1           0        5.063036    0.667072    1.048137
     46          1           0        4.826919   -0.899928    2.019846
     47          1           0        2.768327    1.438547   -0.014423
     48          1           0        3.216204   -0.717991   -1.559706
     49          1           0       -0.521627    0.305000    3.623578
     50          1           0       -1.570215    0.479955    2.104964
     51          1           0        0.771406    2.845496   -0.221335
     52          1           0        3.569768   -1.602281    3.464706
     53          1           0        1.884210   -1.109798    4.226160
     54          1           0        1.954003   -2.465144    3.258246
     55          1           0        6.947540   -2.720440    1.593771
     56          1           0        7.615124   -1.068264    1.469244
     57          1           0        8.265654   -2.245427    0.311377
     58          1           0       -1.061344   -2.096755    1.663080
     59          1           0       -0.426747   -2.112262    3.355302
     60          1           0       -1.664298   -0.303411   -0.088243
     61          1           0       -2.089781    4.770431   -1.830405
     62          1           0       -0.366807    4.656274   -1.119407
     63          1           0        7.700905   -0.937634   -3.302914
     64          1           0       -1.502864    4.404211    1.177196
     65          1           0       -2.867326    5.385095    0.539990
     66          1           0       -3.882923    3.965502   -2.166243
     67          1           0       -5.164061    3.015103   -1.121814
     68          1           0       -4.861968    2.468239   -2.614305
     69          1           0       -4.869114    0.263440   -1.833575
     70          1           0        9.130513   -0.181429   -0.366841
     71          1           0        9.939060   -0.583917   -2.062762
     72          1           0       -3.918150   -2.957900    3.461603
     73          1           0       -6.253886   -1.643727   -2.157072
     74          1           0       -4.244077   -5.500069   -2.051751
     75          1           0       -3.697931   -5.726701   -0.159709
     76          1           0       -5.445403   -5.195738   -0.930582
     77          1           0       -0.827457    7.933081    1.535279
     78          1           0       -7.593315   -3.266572   -3.218169
     79          1           0       -6.242550   -4.689004   -2.618345
 ---------------------------------------------------------------------

 SCF Done:  E(RB3LYP) =  -1947.85067859     A.U. after   16 cycles

 Excitation energies and oscillator strengths:

 Excited State   1:      Singlet-A      2.2272 eV  556.67 nm  f=0.5207  <S**2>=0.000
     155 ->156         0.70364
     155 <-156        -0.10963
 This state for optimization and/or second-order correction.
 Total Energy, E(TD-HF/TD-KS) =  -1947.76882943
 Copying the excited state density for this state as the 1-particle RhoCI density.

 The electronic state is 1-A.
 Alpha  occ. eigenvalues --  -19.18775 -19.16423 -19.15003 -19.11656 -19.11022
 Alpha  occ. eigenvalues --  -19.09563 -14.37843 -14.36056 -14.35403 -14.29297
 Alpha  occ. eigenvalues --  -10.34838 -10.30729 -10.27701 -10.26891 -10.25451
 Alpha  occ. eigenvalues --  -10.24532 -10.23484 -10.23426 -10.23266 -10.23126
 Alpha  occ. eigenvalues --  -10.22683 -10.22431 -10.22386 -10.22164 -10.22091
 Alpha  occ. eigenvalues --  -10.22088 -10.22049 -10.20868 -10.20854 -10.20627
 Alpha  occ. eigenvalues --  -10.20620 -10.20551 -10.20343 -10.20293 -10.20148
 Alpha  occ. eigenvalues --  -10.20117 -10.20042 -10.19876 -10.19674 -10.19232
 Alpha  occ. eigenvalues --  -10.18947 -10.18920 -10.18698  -1.09388  -1.08469
 Alpha  occ. eigenvalues --   -1.04719  -1.04324  -1.01120  -0.99914  -0.99799
 Alpha  occ. eigenvalues --   -0.99499  -0.95458  -0.93926  -0.83189  -0.82119
 Alpha  occ. eigenvalues --   -0.81721  -0.81514  -0.81021  -0.79220  -0.77750
 Alpha  occ. eigenvalues --   -0.76764  -0.76105  -0.75196  -0.74325  -0.71919
 Alpha  occ. eigenvalues --   -0.71308  -0.70897  -0.70119  -0.69651  -0.68631
 Alpha  occ. eigenvalues --   -0.67204  -0.66095  -0.63891  -0.61281  -0.61014
 Alpha  occ. eigenvalues --   -0.60038  -0.59908  -0.58867  -0.57962  -0.57443
 Alpha  occ. eigenvalues --   -0.56711  -0.55879  -0.55493  -0.54366  -0.53463
 Alpha  occ. eigenvalues --   -0.52680  -0.51800  -0.50857  -0.50392  -0.49622
 Alpha  occ. eigenvalues --   -0.48793  -0.48241  -0.47975  -0.47583  -0.47245
 Alpha  occ. eigenvalues --   -0.46896  -0.46731  -0.46428  -0.45726  -0.45526
 Alpha  occ. eigenvalues --   -0.45135  -0.44875  -0.44613  -0.44309  -0.43958
 Alpha  occ. eigenvalues --   -0.43244  -0.42990  -0.42589  -0.42511  -0.42415
 Alpha  occ. eigenvalues --   -0.42356  -0.42155  -0.41921  -0.41456  -0.41312
 Alpha  occ. eigenvalues --   -0.41078  -0.40921  -0.40691  -0.40404  -0.40043
 Alpha  occ. eigenvalues --   -0.39860  -0.39378  -0.39178  -0.39010  -0.38807
 Alpha  occ. eigenvalues --   -0.38593  -0.38368  -0.38209  -0.37833  -0.37200
 Alpha  occ. eigenvalues --   -0.36472  -0.35919  -0.35614  -0.34662  -0.34649
 Alpha  occ. eigenvalues --   -0.34047  -0.33832  -0.33035  -0.32481  -0.31309
 Alpha  occ. eigenvalues --   -0.31036  -0.30263  -0.29511  -0.29270  -0.28763
 Alpha  occ. eigenvalues --   -0.26661  -0.26489  -0.26386  -0.25788  -0.24505
 Alpha  occ. eigenvalues --   -0.24375  -0.24052  -0.23567  -0.22902  -0.18656
 Alpha virt. eigenvalues --   -0.10023  -0.05911  -0.05283  -0.03380  -0.00230
 Alpha virt. eigenvalues --    0.00154   0.01436   0.01981   0.02979   0.03367
 Alpha virt. eigenvalues --    0.03450   0.04181   0.05399   0.05540   0.05671

 Mulliken charges:
               1
     1  O   -0.178977
     2  O   -0.151911
     3  O   -0.224777
     4  O   -0.179688
     5  O   -0.268256
     6  O   -0.159727
     7  N    0.102340
     8  N   -0.237145
     9  N   -0.054754
    10  N   -0.202778
    11  C    0.082282
    12  C    0.199583
    13  C   -0.101446
    14  C   -0.141675
    15  C   -0.072952
    16  C    0.010167
    17  C   -0.115267
    18  C    0.043891
    19  C   -0.123854
    20  C   -0.068492
    21  C    0.034382
    22  C    0.130219
    23  C   -0.012575
    24  C    0.083574
    25  C   -0.023698
    26  C   -0.144505
    27  C   -0.010014
    28  C    0.085207
    29  C    0.011763
    30  C   -0.020586
    31  C    0.009018
    32  C    0.091662
    33  C   -0.108058
    34  C    0.104054
    35  C    0.067888
    36  C   -0.034966
    37  C    0.190586
    38  C    0.067569
    39  C   -0.268030
    40  C    0.122762
    41  C    0.022589
    42  C    0.092321
    43  C   -0.105012
    44  H    0.029553
    45  H    0.008854
    46  H   -0.020469
    47  H    0.027902
    48  H    0.166904
    49  H    0.015862
    50  H    0.060105
    51  H   -0.024964
    52  H    0.018801
    53  H    0.005680
    54  H    0.028168
    55  H    0.037630
    56  H    0.038860
    57  H    0.059103
    58  H    0.049955
    59  H    0.030882
    60  H    0.162242
    61  H    0.026710
    62  H    0.054759
    63  H    0.059183
    64  H    0.053691
    65  H    0.047440
    66  H    0.025292
    67  H    0.022507
    68  H    0.010321
    69  H   -0.046357
    70  H    0.057520
    71  H    0.004160
    72  H    0.153022
    73  H   -0.058328
    74  H    0.037585
    75  H    0.067679
    76  H    0.028868
    77  H    0.141624
    78  H    0.045745
    79  H    0.030796
 Sum of Mulliken charges =   0.00000

 Dipole moment (field-independent basis, Debye):
    X=              1.3192    Y=              1.1853    Z=              3.8141  Tot=              4.2063
 Quadrupole moment (field-independent basis, Debye-Ang):
   XX=           -222.4605   YY=           -250.7641   ZZ=           -265.4143
   XY=              0.9128   XZ=             29.1543   YZ=              6.1552

 Normal termination of Gaussian 09 at Tue Jul  9 06:23:37 2019.
