 Gaussian 09, Revision D.01,
 Gaussian 09:  ES64L-G09RevD.01 24-Apr-2013

 --------------------------
 # td=(NStates=1) B3LYP/SVP
 --------------------------

 --
 TD
 --
 Symbolic Z-matrix:
 Charge =  0 Multiplicity = 1

                         Standard orientation:
 ---------------------------------------------------------------------
 Center     Atomic      Atomic             Coordinates (Angstroms)
 Number     Number       Type             X           Y           Z
 ---------------------------------------------------------------------
      1          8           0        5.332770   -0.298510   -3.306746
      2          8           0       -2.883435   -2.964367    3.340296
      3          8           0       -3.318099   -0.852825    3.253219
      4          8           0       -1.437915    7.156626    1.632538
      5          8           0       -0.407086    6.996671   -0.271270
      6          8           0       -1.915983   -3.903396   -0.027509
      7          7           0        2.422396    0.913509    0.571533
      8          7           0        4.334329   -0.852143   -1.262546
      9          7           0       -1.913359    0.687973   -0.364567
     10          7           0       -2.709134   -1.812741   -0.536055
     11          6           0        4.799783   -1.351766    0.067679
     12          6           0        4.390220   -0.429300    1.236251
     13          6           0        2.961130   -0.096057    1.330643
     14          6           0        1.941142   -0.672361    2.104125
     15          6           0        0.706835   -0.068001    1.749982
     16          6           0        0.989271    0.857884    0.745874
     17          6           0        6.265658   -1.409622   -0.179547
     18          6           0       -0.652639   -0.306854    2.365163
     19          6           0        6.664754   -0.944853   -1.345103
     20          6           0        0.199449    1.771825    0.076650
     21          6           0       -1.068604    1.865614   -0.393115
     22          6           0        5.440849   -0.641997   -2.160089
     23          6           0       -1.783608    2.924600   -0.894709
     24          6           0        2.068832   -1.795753    3.140172
     25          6           0        7.298983   -1.822726    0.935081
     26          6           0       -3.098952    2.459854   -1.297172
     27          6           0       -1.100548   -1.761067    2.554433
     28          6           0       -3.004983    0.929809   -1.111262
     29          6           0       -1.296388    4.385015   -0.888946
     30          6           0        7.887383   -0.871114   -2.078784
     31          6           0       -1.604641    5.110484    0.476022
     32          6           0       -4.188634    3.155013   -2.012450
     33          6           0       -3.978075    0.005820   -1.444250
     34          6           0       -2.592694   -1.754489    3.097773
     35          6           0       -3.755693   -1.369648   -1.189562
     36          6           0        9.151316   -0.676217   -1.609159
     37          6           0       -1.060125    6.506755    0.531980
     38          6           0       -4.779073   -2.407641   -1.455857
     39          6           0       -4.157573   -3.569136   -1.055067
     40          6           0       -2.827442   -3.191750   -0.403197
     41          6           0       -6.026787   -2.245310   -2.098859
     42          6           0       -4.518939   -4.898836   -1.068033
     43          6           0       -6.921180   -3.134112   -2.685902
     44          1           0        4.539197   -2.365287    0.223467
     45          1           0        5.087540    0.426538    1.444623
     46          1           0        4.658265   -1.192198    2.197070
     47          1           0        2.877809    1.579352   -0.264225
     48          1           0        3.333854   -1.129250   -1.497040
     49          1           0       -0.467841    0.193274    3.328483
     50          1           0       -1.537045    0.081062    1.706775
     51          1           0        0.828740    2.773317   -0.068992
     52          1           0        3.190075   -1.910984    3.362966
     53          1           0        1.603910   -1.487197    3.993938
     54          1           0        1.410343   -2.643484    2.637290
     55          1           0        6.682930   -2.558173    1.624825
     56          1           0        7.777056   -1.102164    1.737289
     57          1           0        7.980356   -2.427987    0.249551
     58          1           0       -1.230404   -2.437555    1.585635
     59          1           0       -0.465712   -2.369192    3.311138
     60          1           0       -1.877224   -0.334626   -0.190074
     61          1           0       -1.650488    4.928401   -1.679387
     62          1           0       -0.159366    4.104438   -1.224875
     63          1           0        7.971517   -1.079566   -3.151304
     64          1           0       -1.213727    4.511420    1.413848
     65          1           0       -2.784842    5.165778    0.498985
     66          1           0       -4.060408    4.359876   -1.877801
     67          1           0       -5.077558    2.839018   -1.624712
     68          1           0       -4.089643    2.978089   -3.229771
     69          1           0       -4.935260    0.489399   -1.659793
     70          1           0        9.243310   -0.459563   -0.666792
     71          1           0       10.131671   -0.543298   -2.030958
     72          1           0       -3.832296   -3.189590    3.564772
     73          1           0       -6.330293   -1.198051   -2.161363
     74          1           0       -4.619822   -5.310116   -2.071688
     75          1           0       -3.966687   -5.552915   -0.526472
     76          1           0       -5.694050   -4.945322   -0.611991
     77          1           0       -0.923712    7.900316    1.577036
     78          1           0       -7.757338   -2.909700   -2.971996
     79          1           0       -6.638681   -4.138194   -3.015840
 ---------------------------------------------------------------------

 SCF Done:  E(RB3LYP) =  -1947.80520523     A.U. after   17 cycles

 Excitation energies and oscillator strengths:

 Excited State   1:      Singlet-A      2.1357 eV  580.53 nm  f=0.4652  <S**2>=0.000
     154 ->156         0.13651
     155 ->156         0.69065
 This state for optimization and/or second-order correction.
 Total Energy, E(TD-HF/TD-KS) =  -1947.72671877
 Copying the excited state density for this state as the 1-particle RhoCI density.

 The electronic state is 1-A.
 Alpha  occ. eigenvalues --  -19.17888 -19.17090 -19.13353 -19.10758 -19.10550
 Alpha  occ. eigenvalues --  -19.10409 -14.38992 -14.35056 -14.34913 -14.28595
 Alpha  occ. eigenvalues --  -10.31839 -10.29624 -10.28904 -10.26371 -10.24686
 Alpha  occ. eigenvalues --  -10.23714 -10.23643 -10.23590 -10.23348 -10.22910
 Alpha  occ. eigenvalues --  -10.22882 -10.22688 -10.22524 -10.22265 -10.21991
 Alpha  occ. eigenvalues --  -10.21665 -10.21632 -10.21162 -10.21085 -10.20599
 Alpha  occ. eigenvalues --  -10.20366 -10.20259 -10.20021 -10.19365 -10.19336
 Alpha  occ. eigenvalues --  -10.19313 -10.19207 -10.19192 -10.19139 -10.18660
 Alpha  occ. eigenvalues --  -10.18394 -10.18139 -10.18029  -1.13682  -1.10910
 Alpha  occ. eigenvalues --   -1.04099  -1.03136  -1.01812  -1.00740  -0.97125
 Alpha  occ. eigenvalues --   -0.96676  -0.92948  -0.92553  -0.82846  -0.82298
 Alpha  occ. eigenvalues --   -0.81166  -0.80887  -0.80474  -0.78944  -0.77367
 Alpha  occ. eigenvalues --   -0.77131  -0.76348  -0.75120  -0.74869  -0.72884
 Alpha  occ. eigenvalues --   -0.71221  -0.70570  -0.70384  -0.68679  -0.68087
 Alpha  occ. eigenvalues --   -0.66941  -0.65929  -0.63629  -0.62126  -0.61265
 Alpha  occ. eigenvalues --   -0.60364  -0.60094  -0.58441  -0.57390  -0.56417
 Alpha  occ. eigenvalues --   -0.55485  -0.55106  -0.54051  -0.53880  -0.53198
 Alpha  occ. eigenvalues --   -0.52438  -0.51513  -0.50744  -0.50589  -0.49973
 Alpha  occ. eigenvalues --   -0.49468  -0.49061  -0.48430  -0.47998  -0.47425
 Alpha  occ. eigenvalues --   -0.47271  -0.46706  -0.46336  -0.46154  -0.45917
 Alpha  occ. eigenvalues --   -0.45826  -0.45028  -0.44389  -0.44088  -0.44008
 Alpha  occ. eigenvalues --   -0.43783  -0.43614  -0.43062  -0.42903  -0.42398
 Alpha  occ. eigenvalues --   -0.42085  -0.41818  -0.41211  -0.41190  -0.41132
 Alpha  occ. eigenvalues --   -0.40814  -0.40556  -0.40341  -0.39904  -0.39621
 Alpha  occ. eigenvalues --   -0.39409  -0.39077  -0.38868  -0.38732  -0.38493
 Alpha  occ. eigenvalues --   -0.38161  -0.37629  -0.37098  -0.36653  -0.36310
 Alpha  occ. eigenvalues --   -0.35902  -0.35483  -0.35128  -0.34905  -0.34432
 Alpha  occ. eigenvalues --   -0.34086  -0.33555  -0.32903  -0.32346  -0.31507
 Alpha  occ. eigenvalues --   -0.31471  -0.30638  -0.29353  -0.28834  -0.27483
 Alpha  occ. eigenvalues --   -0.26708  -0.26276  -0.25777  -0.25376  -0.25030
 Alpha  occ. eigenvalues --   -0.24320  -0.24125  -0.23191  -0.21629  -0.18677
 Alpha virt. eigenvalues --   -0.10184  -0.06800  -0.05702  -0.01481   0.00334
 Alpha virt. eigenvalues --    0.00695   0.00928   0.01674   0.01982   0.03273
 Alpha virt. eigenvalues --    0.04150   0.04331   0.04622   0.05200   0.05278

 Mulliken charges:
               1
     1  O   -0.185947
     2  O   -0.137532
     3  O   -0.190989
     4  O   -0.126391
     5  O   -0.158808
     6  O   -0.206837
     7  N   -0.176887
     8  N   -0.290132
     9  N   -0.110613
    10  N   -0.267797
    11  C    0.179001
    12  C    0.082446
    13  C   -0.009043
    14  C   -0.188234
    15  C   -0.043678
    16  C    0.095449
    17  C   -0.214392
    18  C    0.084150
    19  C    0.026930
    20  C   -0.162477
    21  C    0.161365
    22  C    0.166609
    23  C   -0.090657
    24  C    0.120319
    25  C   -0.010068
    26  C   -0.135832
    27  C   -0.164601
    28  C    0.040513
    29  C    0.099250
    30  C   -0.056977
    31  C   -0.047707
    32  C    0.040406
    33  C   -0.131439
    34  C    0.087888
    35  C    0.128281
    36  C    0.015994
    37  C    0.090870
    38  C    0.073985
    39  C   -0.198048
    40  C    0.149568
    41  C   -0.056201
    42  C    0.091339
    43  C    0.071829
    44  H    0.009386
    45  H    0.021576
    46  H    0.013774
    47  H    0.187750
    48  H    0.151157
    49  H    0.018081
    50  H    0.052924
    51  H    0.008954
    52  H    0.009418
    53  H   -0.002503
    54  H    0.079696
    55  H    0.018002
    56  H    0.072950
    57  H    0.058765
    58  H    0.103682
    59  H    0.033217
    60  H    0.146263
    61  H   -0.015485
    62  H    0.036049
    63  H    0.023825
    64  H    0.072032
    65  H    0.064488
    66  H    0.032635
    67  H    0.019002
    68  H    0.064509
    69  H   -0.016307
    70  H   -0.040278
    71  H    0.021987
    72  H    0.190954
    73  H   -0.015056
    74  H    0.029215
    75  H   -0.008196
    76  H    0.032511
    77  H    0.130894
    78  H   -0.067238
    79  H    0.016465
 Sum of Mulliken charges =   0.00000

 Dipole moment (field-independent basis, Debye):
    X=              1.3308    Y=              1.4290    Z=              3.1154  Tot=              3.6768
 Quadrupole moment (field-independent basis, Debye-Ang):
   XX=           -218.2239   YY=           -244.3492   ZZ=           -261.8166
   XY=             -3.4200   XZ=             28.9943   YZ=              0.3817

 Normal termination of Gaussian 09 at Tue Jul  9 16:53:41 2019.
