 Gaussian 09, Revision D.01,
 Gaussian 09:  ES64L-G09RevD.01 24-Apr-2013

 --------------------------
 # td=(NStates=1) B3LYP/SVP
 --------------------------

 --
 TD
 --
 Symbolic Z-matrix:
 Charge =  0 Multiplicity = 1

                         Standard orientation:
 ---------------------------------------------------------------------
 Center     Atomic      Atomic             Coordinates (Angstroms)
 Number     Number       Type             X           Y           Z
 ---------------------------------------------------------------------
      1          8           0        5.252654   -0.579384   -3.346667
      2          8           0       -2.651974   -3.081753    3.528477
      3          8           0       -3.079326   -0.925858    3.332243
      4          8           0       -1.919842    7.242674    1.331280
      5          8           0       -0.297139    6.952516   -0.344808
      6          8           0       -2.105375   -4.044274   -0.048208
      7          7           0        2.415361    0.895151    0.644759
      8          7           0        4.330497   -0.619364   -1.200185
      9          7           0       -1.853634    0.696276   -0.297863
     10          7           0       -2.771006   -1.909899   -0.583557
     11          6           0        4.899672   -1.151662    0.115494
     12          6           0        4.563377   -0.110997    1.268613
     13          6           0        3.023663   -0.070843    1.396688
     14          6           0        1.953879   -0.643942    2.158336
     15          6           0        0.746052    0.008703    1.911086
     16          6           0        1.020527    0.931013    0.735870
     17          6           0        6.359837   -1.263208   -0.193951
     18          6           0       -0.478378   -0.215471    2.552410
     19          6           0        6.736258   -0.913947   -1.495183
     20          6           0        0.273660    1.902599    0.264217
     21          6           0       -1.032921    1.806035   -0.280936
     22          6           0        5.321844   -0.660097   -2.204289
     23          6           0       -1.842231    2.881323   -0.933934
     24          6           0        2.333774   -1.527849    3.215258
     25          6           0        7.323588   -1.733608    0.886909
     26          6           0       -3.067942    2.351215   -1.275013
     27          6           0       -0.948960   -1.758595    2.482939
     28          6           0       -3.070145    0.927413   -0.951341
     29          6           0       -1.419180    4.291219   -0.944026
     30          6           0        7.885041   -1.081322   -2.301335
     31          6           0       -1.814081    5.103980    0.254918
     32          6           0       -4.206386    3.122725   -1.783860
     33          6           0       -4.032564    0.019313   -1.239683
     34          6           0       -2.356519   -1.893568    3.134817
     35          6           0       -3.881065   -1.442611   -1.023812
     36          6           0        9.190987   -0.806693   -1.805469
     37          6           0       -1.193201    6.515517    0.320027
     38          6           0       -4.819877   -2.470908   -1.508602
     39          6           0       -4.247235   -3.642421   -1.187056
     40          6           0       -2.960503   -3.270623   -0.568512
     41          6           0       -6.130049   -2.201375   -2.216477
     42          6           0       -4.550800   -5.072793   -1.230656
     43          6           0       -7.093926   -3.176515   -2.546402
     44          1           0        4.483313   -2.227509    0.426637
     45          1           0        4.841450    0.894701    0.861492
     46          1           0        5.102189   -0.261708    2.162955
     47          1           0        2.799197    1.355505   -0.055244
     48          1           0        3.496874   -0.857801   -1.573432
     49          1           0       -0.366818   -0.127216    3.647695
     50          1           0       -1.325418    0.348559    2.203493
     51          1           0        0.624437    3.002826    0.002777
     52          1           0        3.393602   -1.430278    3.539295
     53          1           0        1.858359   -1.293748    4.275673
     54          1           0        2.181286   -2.719335    3.025410
     55          1           0        6.948449   -2.585184    1.332698
     56          1           0        7.629166   -0.931508    1.536338
     57          1           0        8.271946   -2.017324    0.345587
     58          1           0       -1.113638   -2.346318    1.517662
     59          1           0       -0.335464   -2.336569    3.057989
     60          1           0       -1.716983   -0.374487   -0.201604
     61          1           0       -1.899660    5.015655   -1.702277
     62          1           0       -0.368819    4.092442   -1.156715
     63          1           0        7.827819   -1.010249   -3.412677
     64          1           0       -1.557083    4.622086    1.269725
     65          1           0       -3.086685    5.069153    0.217820
     66          1           0       -3.921913    4.117283   -2.190996
     67          1           0       -5.325244    3.396302   -1.336279
     68          1           0       -4.405886    2.636556   -2.897375
     69          1           0       -4.817931    0.306291   -1.651737
     70          1           0        9.319974   -0.393297   -0.770710
     71          1           0       10.005004   -0.628960   -2.365335
     72          1           0       -3.382991   -3.244564    4.312632
     73          1           0       -6.083435   -0.964746   -2.322699
     74          1           0       -4.805731   -5.330541   -2.401757
     75          1           0       -3.708808   -5.624834   -0.955449
     76          1           0       -5.439729   -5.507645   -0.672094
     77          1           0       -1.384193    8.126982    1.435465
     78          1           0       -8.084577   -2.894438   -3.059561
     79          1           0       -7.009764   -4.334629   -2.048285
 ---------------------------------------------------------------------

 SCF Done:  E(RB3LYP) =  -1947.77959542     A.U. after   18 cycles

 Excitation energies and oscillator strengths:

 Excited State   1:      Singlet-A      1.9057 eV  650.58 nm  f=0.4795  <S**2>=0.000
     155 ->156         0.70716
     155 <-156        -0.13364
 This state for optimization and/or second-order correction.
 Total Energy, E(TD-HF/TD-KS) =  -1947.70956090
 Copying the excited state density for this state as the 1-particle RhoCI density.

 The electronic state is 1-A.
 Alpha  occ. eigenvalues --  -19.18154 -19.17496 -19.15117 -19.11787 -19.10214
 Alpha  occ. eigenvalues --  -19.09407 -14.37735 -14.35853 -14.35297 -14.29180
 Alpha  occ. eigenvalues --  -10.33457 -10.29779 -10.28991 -10.26968 -10.26073
 Alpha  occ. eigenvalues --  -10.24280 -10.23899 -10.23596 -10.23299 -10.23227
 Alpha  occ. eigenvalues --  -10.23058 -10.22916 -10.22557 -10.22525 -10.22249
 Alpha  occ. eigenvalues --  -10.21870 -10.21462 -10.21423 -10.20872 -10.20798
 Alpha  occ. eigenvalues --  -10.20694 -10.20531 -10.20364 -10.20197 -10.20133
 Alpha  occ. eigenvalues --  -10.19887 -10.19794 -10.19331 -10.19303 -10.19084
 Alpha  occ. eigenvalues --  -10.18519 -10.18323 -10.17448  -1.08235  -1.08233
 Alpha  occ. eigenvalues --   -1.07072  -1.00264  -1.00144  -0.98953  -0.97369
 Alpha  occ. eigenvalues --   -0.96537  -0.93611  -0.93462  -0.82801  -0.82544
 Alpha  occ. eigenvalues --   -0.82302  -0.81791  -0.80359  -0.79444  -0.77617
 Alpha  occ. eigenvalues --   -0.76985  -0.76071  -0.75157  -0.74177  -0.71816
 Alpha  occ. eigenvalues --   -0.70985  -0.70725  -0.69498  -0.68630  -0.67638
 Alpha  occ. eigenvalues --   -0.67109  -0.66022  -0.63983  -0.61469  -0.60833
 Alpha  occ. eigenvalues --   -0.59699  -0.58632  -0.58174  -0.57571  -0.57190
 Alpha  occ. eigenvalues --   -0.55866  -0.54671  -0.54490  -0.53653  -0.53072
 Alpha  occ. eigenvalues --   -0.52012  -0.51854  -0.50963  -0.49890  -0.49793
 Alpha  occ. eigenvalues --   -0.48950  -0.48819  -0.48388  -0.47493  -0.47333
 Alpha  occ. eigenvalues --   -0.46848  -0.46078  -0.45917  -0.45451  -0.45161
 Alpha  occ. eigenvalues --   -0.45005  -0.44553  -0.44317  -0.44138  -0.43995
 Alpha  occ. eigenvalues --   -0.43390  -0.43235  -0.42967  -0.42539  -0.42285
 Alpha  occ. eigenvalues --   -0.41898  -0.41737  -0.41581  -0.41191  -0.40860
 Alpha  occ. eigenvalues --   -0.40743  -0.40381  -0.40067  -0.39943  -0.39875
 Alpha  occ. eigenvalues --   -0.39514  -0.39398  -0.39094  -0.38772  -0.37901
 Alpha  occ. eigenvalues --   -0.37799  -0.37454  -0.37239  -0.36989  -0.36525
 Alpha  occ. eigenvalues --   -0.35970  -0.35614  -0.35057  -0.33770  -0.33659
 Alpha  occ. eigenvalues --   -0.33598  -0.33389  -0.32821  -0.32795  -0.32026
 Alpha  occ. eigenvalues --   -0.30431  -0.29971  -0.29713  -0.28636  -0.28325
 Alpha  occ. eigenvalues --   -0.27872  -0.25839  -0.25203  -0.25080  -0.24375
 Alpha  occ. eigenvalues --   -0.24300  -0.24211  -0.23200  -0.22702  -0.17837
 Alpha virt. eigenvalues --   -0.10684  -0.06767  -0.06501  -0.01795  -0.01538
 Alpha virt. eigenvalues --    0.00091   0.00364   0.00749   0.02655   0.02852
 Alpha virt. eigenvalues --    0.03822   0.03857   0.04359   0.04506   0.05048

 Mulliken charges:
               1
     1  O   -0.127695
     2  O   -0.199028
     3  O   -0.260686
     4  O   -0.281116
     5  O   -0.185596
     6  O   -0.244934
     7  N   -0.009903
     8  N   -0.204300
     9  N   -0.128487
    10  N   -0.198494
    11  C    0.057309
    12  C    0.212384
    13  C   -0.058146
    14  C   -0.096457
    15  C   -0.039747
    16  C    0.100039
    17  C   -0.209215
    18  C    0.113840
    19  C   -0.025550
    20  C   -0.107109
    21  C    0.027853
    22  C    0.098296
    23  C   -0.051972
    24  C   -0.019369
    25  C    0.130162
    26  C   -0.070825
    27  C   -0.022608
    28  C    0.126618
    29  C    0.060432
    30  C   -0.039190
    31  C   -0.084060
    32  C   -0.018725
    33  C    0.013277
    34  C    0.101733
    35  C    0.059921
    36  C   -0.026313
    37  C    0.186228
    38  C   -0.020714
    39  C   -0.158513
    40  C    0.129883
    41  C    0.001763
    42  C    0.055223
    43  C   -0.110609
    44  H    0.060718
    45  H    0.004377
    46  H    0.007118
    47  H    0.060865
    48  H    0.099352
    49  H   -0.001122
    50  H    0.023959
    51  H    0.011933
    52  H   -0.000773
    53  H    0.022873
    54  H    0.048591
    55  H    0.000456
    56  H    0.033198
    57  H    0.020859
    58  H    0.082656
    59  H   -0.021531
    60  H    0.182218
    61  H    0.027365
    62  H    0.024415
    63  H    0.039040
    64  H    0.058050
    65  H    0.076954
    66  H    0.000534
    67  H    0.072113
    68  H    0.028151
    69  H   -0.178073
    70  H    0.029705
    71  H   -0.000207
    72  H    0.242971
    73  H    0.044738
    74  H    0.034981
    75  H    0.011512
    76  H    0.043029
    77  H    0.205118
    78  H    0.054927
    79  H    0.073329
 Sum of Mulliken charges =   0.00000

 Dipole moment (field-independent basis, Debye):
    X=              1.8538    Y=              1.7082    Z=              3.3694  Tot=              4.2080
 Quadrupole moment (field-independent basis, Debye-Ang):
   XX=           -217.3838   YY=           -246.6253   ZZ=           -253.8712
   XY=              0.0826   XZ=             24.9586   YZ=             -6.2791

 Normal termination of Gaussian 09 at Wed Jul 10 08:58:04 2019.
