 Gaussian 09, Revision D.01,
 Gaussian 09:  ES64L-G09RevD.01 24-Apr-2013

 --------------------------
 # td=(NStates=1) B3LYP/SVP
 --------------------------

 --
 TD
 --
 Symbolic Z-matrix:
 Charge =  0 Multiplicity = 1

                         Standard orientation:
 ---------------------------------------------------------------------
 Center     Atomic      Atomic             Coordinates (Angstroms)
 Number     Number       Type             X           Y           Z
 ---------------------------------------------------------------------
      1          8           0        5.479181    0.039229   -3.297883
      2          8           0       -2.928822   -3.095256    3.368211
      3          8           0       -3.288087   -0.938819    2.968692
      4          8           0       -1.683043    7.107276    1.650681
      5          8           0       -0.715878    7.028925   -0.351540
      6          8           0       -1.946899   -3.986902   -0.064748
      7          7           0        2.389593    0.909048    0.617220
      8          7           0        4.441390   -0.751800   -1.257602
      9          7           0       -1.820422    0.683389   -0.408566
     10          7           0       -2.774031   -1.847566   -0.493475
     11          6           0        4.898904   -1.258335   -0.037146
     12          6           0        4.488754   -0.417560    1.271715
     13          6           0        3.047773   -0.024232    1.324255
     14          6           0        2.039242   -0.659805    2.167220
     15          6           0        0.769863   -0.061848    1.773756
     16          6           0        1.053712    0.897000    0.784573
     17          6           0        6.421157   -1.422145   -0.190020
     18          6           0       -0.440782   -0.274567    2.549197
     19          6           0        6.764269   -0.972376   -1.420752
     20          6           0        0.205668    1.831386    0.029840
     21          6           0       -1.049341    1.823336   -0.359392
     22          6           0        5.502929   -0.558436   -2.099200
     23          6           0       -1.843381    2.866029   -0.924684
     24          6           0        2.087911   -1.718393    3.200262
     25          6           0        7.290834   -1.832083    0.923247
     26          6           0       -3.017391    2.363999   -1.286614
     27          6           0       -0.967289   -1.705203    2.582993
     28          6           0       -3.070179    0.955305   -0.903218
     29          6           0       -1.346879    4.275917   -0.882333
     30          6           0        8.003073   -0.774457   -2.117260
     31          6           0       -1.810441    5.031409    0.461260
     32          6           0       -4.206386    3.048389   -1.947230
     33          6           0       -4.034644    0.062684   -1.279280
     34          6           0       -2.453904   -1.876875    3.008168
     35          6           0       -3.976034   -1.363425   -0.939413
     36          6           0        9.307651   -0.695092   -1.612769
     37          6           0       -1.358217    6.537805    0.487246
     38          6           0       -4.828347   -2.543244   -1.402631
     39          6           0       -4.133908   -3.647079   -1.152181
     40          6           0       -2.807391   -3.228534   -0.559101
     41          6           0       -6.150541   -2.163462   -2.011352
     42          6           0       -4.558216   -5.111787   -1.336883
     43          6           0       -7.035245   -3.027813   -2.616860
     44          1           0        4.378888   -2.231260    0.074832
     45          1           0        5.102162    0.511712    1.041542
     46          1           0        4.656936   -1.065551    2.147256
     47          1           0        2.705620    1.528935   -0.142966
     48          1           0        3.507860   -0.474378   -1.454523
     49          1           0       -0.298847    0.153802    3.460163
     50          1           0       -1.202844    0.284446    1.985050
     51          1           0        0.792253    2.708763   -0.204420
     52          1           0        3.241848   -1.943038    3.601190
     53          1           0        1.739063   -1.574861    4.153081
     54          1           0        1.834096   -2.790115    2.597485
     55          1           0        6.692798   -2.302937    1.782589
     56          1           0        7.687943   -0.922928    1.361231
     57          1           0        8.086394   -2.628919    0.487720
     58          1           0       -1.055467   -2.128740    1.555113
     59          1           0       -0.625610   -2.383209    3.429229
     60          1           0       -1.681567   -0.254053   -0.200550
     61          1           0       -1.709423    4.732625   -1.847003
     62          1           0       -0.306682    4.387085   -0.681950
     63          1           0        7.912020   -0.652826   -3.184255
     64          1           0       -1.275799    4.690096    1.289204
     65          1           0       -2.987683    5.052324    0.495215
     66          1           0       -3.931439    3.990656   -2.264067
     67          1           0       -5.116983    3.043440   -1.290414
     68          1           0       -4.397564    2.515680   -2.765718
     69          1           0       -4.956327    0.448393   -1.815317
     70          1           0        9.408408   -0.842970   -0.563615
     71          1           0       10.208411   -0.488033   -2.334283
     72          1           0       -3.859648   -2.941841    3.384202
     73          1           0       -6.370389   -1.147755   -2.069691
     74          1           0       -4.745149   -5.565797   -2.397350
     75          1           0       -3.813101   -5.801777   -0.825672
     76          1           0       -5.519965   -5.249955   -0.765159
     77          1           0       -1.099257    7.956072    1.514455
     78          1           0       -7.888362   -2.825350   -3.111625
     79          1           0       -6.859267   -4.113889   -2.743793
 ---------------------------------------------------------------------

 SCF Done:  E(RB3LYP) =  -1947.89654606     A.U. after   18 cycles

 Excitation energies and oscillator strengths:

 Excited State   1:      Singlet-A      2.0971 eV  591.23 nm  f=0.4401  <S**2>=0.000
     155 ->156         0.69730
     155 <-156        -0.10427
 This state for optimization and/or second-order correction.
 Total Energy, E(TD-HF/TD-KS) =  -1947.81948025
 Copying the excited state density for this state as the 1-particle RhoCI density.

 The electronic state is 1-A.
 Alpha  occ. eigenvalues --  -19.19987 -19.16894 -19.14186 -19.10600 -19.10121
 Alpha  occ. eigenvalues --  -19.08781 -14.39845 -14.36717 -14.36131 -14.29390
 Alpha  occ. eigenvalues --  -10.32627 -10.30543 -10.28736 -10.26789 -10.25249
 Alpha  occ. eigenvalues --  -10.24539 -10.24490 -10.24196 -10.23822 -10.23252
 Alpha  occ. eigenvalues --  -10.23168 -10.22399 -10.22381 -10.22242 -10.21655
 Alpha  occ. eigenvalues --  -10.21625 -10.21524 -10.21055 -10.20760 -10.20709
 Alpha  occ. eigenvalues --  -10.20627 -10.20565 -10.20537 -10.20340 -10.20101
 Alpha  occ. eigenvalues --  -10.20075 -10.20058 -10.20045 -10.19726 -10.19620
 Alpha  occ. eigenvalues --  -10.19291 -10.18887 -10.18264  -1.12459  -1.08291
 Alpha  occ. eigenvalues --   -1.03382  -1.00720  -1.00082  -0.99598  -0.99296
 Alpha  occ. eigenvalues --   -0.96419  -0.92075  -0.91437  -0.83685  -0.83091
 Alpha  occ. eigenvalues --   -0.82681  -0.81959  -0.80162  -0.79680  -0.77762
 Alpha  occ. eigenvalues --   -0.77003  -0.76299  -0.75522  -0.74609  -0.73241
 Alpha  occ. eigenvalues --   -0.72072  -0.71809  -0.70340  -0.69046  -0.68871
 Alpha  occ. eigenvalues --   -0.67900  -0.66444  -0.64773  -0.62235  -0.61255
 Alpha  occ. eigenvalues --   -0.60187  -0.59003  -0.58927  -0.58540  -0.58038
 Alpha  occ. eigenvalues --   -0.57073  -0.55990  -0.55463  -0.54337  -0.53548
 Alpha  occ. eigenvalues --   -0.52297  -0.52044  -0.51520  -0.51067  -0.50396
 Alpha  occ. eigenvalues --   -0.50120  -0.49489  -0.48757  -0.48302  -0.48055
 Alpha  occ. eigenvalues --   -0.47455  -0.47220  -0.46669  -0.46340  -0.46096
 Alpha  occ. eigenvalues --   -0.45770  -0.45295  -0.44682  -0.44525  -0.44426
 Alpha  occ. eigenvalues --   -0.44158  -0.43597  -0.43372  -0.43007  -0.42840
 Alpha  occ. eigenvalues --   -0.42603  -0.42537  -0.42167  -0.42023  -0.41777
 Alpha  occ. eigenvalues --   -0.41252  -0.40690  -0.40354  -0.40220  -0.39897
 Alpha  occ. eigenvalues --   -0.39462  -0.39308  -0.39093  -0.38663  -0.38603
 Alpha  occ. eigenvalues --   -0.38327  -0.37414  -0.37024  -0.36701  -0.36599
 Alpha  occ. eigenvalues --   -0.36453  -0.36161  -0.35845  -0.35475  -0.35278
 Alpha  occ. eigenvalues --   -0.34653  -0.34448  -0.34040  -0.31789  -0.31319
 Alpha  occ. eigenvalues --   -0.31089  -0.29797  -0.29313  -0.28728  -0.27281
 Alpha  occ. eigenvalues --   -0.26681  -0.25457  -0.25192  -0.24878  -0.24443
 Alpha  occ. eigenvalues --   -0.24233  -0.23878  -0.23679  -0.22791  -0.19390
 Alpha virt. eigenvalues --   -0.11112  -0.06508  -0.06116  -0.01486  -0.00061
 Alpha virt. eigenvalues --    0.00491   0.00789   0.01458   0.02355   0.02674
 Alpha virt. eigenvalues --    0.03038   0.03780   0.04141   0.05084   0.05440

 Mulliken charges:
               1
     1  O   -0.347409
     2  O   -0.160604
     3  O   -0.296286
     4  O   -0.195764
     5  O   -0.183992
     6  O   -0.231874
     7  N   -0.005680
     8  N   -0.126162
     9  N   -0.034989
    10  N   -0.299752
    11  C    0.064089
    12  C    0.225020
    13  C   -0.123816
    14  C   -0.120154
    15  C   -0.140366
    16  C    0.003785
    17  C   -0.188158
    18  C    0.179587
    19  C    0.023460
    20  C   -0.095364
    21  C    0.146637
    22  C    0.169444
    23  C   -0.041899
    24  C    0.028683
    25  C    0.048764
    26  C   -0.200740
    27  C   -0.001607
    28  C    0.121972
    29  C    0.111062
    30  C   -0.038285
    31  C   -0.018431
    32  C    0.222469
    33  C   -0.131390
    34  C    0.112328
    35  C    0.082824
    36  C   -0.035781
    37  C    0.102204
    38  C    0.061488
    39  C   -0.188523
    40  C    0.166197
    41  C    0.021826
    42  C    0.021893
    43  C    0.004985
    44  H    0.013846
    45  H   -0.003292
    46  H    0.001901
    47  H    0.121553
    48  H    0.119455
    49  H   -0.014783
    50  H   -0.005021
    51  H   -0.031875
    52  H   -0.005161
    53  H    0.015465
    54  H    0.077690
    55  H    0.025051
    56  H    0.044964
    57  H    0.074569
    58  H    0.078977
    59  H    0.036569
    60  H    0.095691
    61  H    0.036179
    62  H   -0.008555
    63  H    0.009298
    64  H    0.026777
    65  H    0.061666
    66  H   -0.022819
    67  H    0.037854
    68  H   -0.011496
    69  H    0.003020
    70  H    0.000136
    71  H    0.057707
    72  H    0.162556
    73  H   -0.033025
    74  H    0.050460
    75  H    0.035862
    76  H    0.029805
    77  H    0.196412
    78  H   -0.007898
    79  H    0.018775
 Sum of Mulliken charges =   0.00000

 Dipole moment (field-independent basis, Debye):
    X=             -0.2257    Y=              2.9577    Z=              3.1603  Tot=              4.3343
 Quadrupole moment (field-independent basis, Debye-Ang):
   XX=           -225.0344   YY=           -246.4200   ZZ=           -264.7090
   XY=             -8.0517   XZ=             42.7359   YZ=              5.1074

 Normal termination of Gaussian 09 at Wed Jul 10 14:52:52 2019.
