 Gaussian 09, Revision D.01,
 Gaussian 09:  ES64L-G09RevD.01 24-Apr-2013

 --------------------------
 # td=(NStates=1) B3LYP/SVP
 --------------------------

 --
 TD
 --
 Symbolic Z-matrix:
 Charge =  0 Multiplicity = 1

                         Standard orientation:
 ---------------------------------------------------------------------
 Center     Atomic      Atomic             Coordinates (Angstroms)
 Number     Number       Type             X           Y           Z
 ---------------------------------------------------------------------
      1          8           0        5.154655   -0.349875   -3.297500
      2          8           0       -3.204469   -2.928438    3.177588
      3          8           0       -3.411624   -0.684705    2.894481
      4          8           0       -1.351739    7.108183    1.585838
      5          8           0       -0.419017    7.008027   -0.448750
      6          8           0       -1.966308   -3.969457    0.068226
      7          7           0        2.407491    0.896356    0.688883
      8          7           0        4.385477   -0.592795   -1.189144
      9          7           0       -1.780813    0.671116   -0.556522
     10          7           0       -2.655732   -1.889657   -0.557024
     11          6           0        4.820081   -1.158513    0.099689
     12          6           0        4.529718   -0.341107    1.370355
     13          6           0        2.994647    0.039664    1.481673
     14          6           0        2.015227   -0.673267    2.147569
     15          6           0        0.678284   -0.098601    1.792743
     16          6           0        1.048581    0.902917    0.832379
     17          6           0        6.322934   -1.402015   -0.186689
     18          6           0       -0.635253   -0.291570    2.471791
     19          6           0        6.657354   -1.003004   -1.411029
     20          6           0        0.197710    1.922405    0.293192
     21          6           0       -1.014628    1.815095   -0.333434
     22          6           0        5.397808   -0.558975   -2.157910
     23          6           0       -1.754460    2.929495   -0.935260
     24          6           0        2.272828   -1.640485    3.192117
     25          6           0        7.207016   -1.961918    0.907682
     26          6           0       -2.985513    2.362168   -1.325568
     27          6           0       -1.227059   -1.707190    2.586076
     28          6           0       -2.988625    0.989662   -1.190565
     29          6           0       -1.416920    4.393036   -0.923718
     30          6           0        7.888083   -1.070259   -2.232865
     31          6           0       -1.537617    5.122974    0.428057
     32          6           0       -4.149708    3.147698   -1.913994
     33          6           0       -3.902269    0.046137   -1.467211
     34          6           0       -2.719202   -1.706401    2.917709
     35          6           0       -3.727632   -1.414038   -1.233679
     36          6           0        9.075422   -1.103474   -1.615055
     37          6           0       -1.042523    6.503517    0.329971
     38          6           0       -4.658258   -2.504093   -1.506828
     39          6           0       -4.082992   -3.636946   -1.056036
     40          6           0       -2.800118   -3.223222   -0.445386
     41          6           0       -6.038431   -2.176601   -1.940376
     42          6           0       -4.642282   -5.075198   -0.990610
     43          6           0       -7.030613   -3.054794   -2.372688
     44          1           0        4.367879   -2.218999    0.194236
     45          1           0        4.945032    0.692503    1.057198
     46          1           0        5.144524   -0.696304    2.084624
     47          1           0        2.911447    1.285501   -0.015972
     48          1           0        3.350478   -0.618423   -1.242390
     49          1           0       -0.623018    0.101992    3.455058
     50          1           0       -1.320757    0.450109    1.935439
     51          1           0        0.653893    2.958964    0.331799
     52          1           0        3.310326   -2.006540    3.357494
     53          1           0        2.111251   -1.425842    4.107941
     54          1           0        1.694323   -2.515231    3.045404
     55          1           0        6.789367   -2.782542    1.489239
     56          1           0        7.619860   -1.131877    1.551346
     57          1           0        8.131853   -2.474434    0.543522
     58          1           0       -1.191488   -2.254595    1.563221
     59          1           0       -0.769898   -2.256002    3.330790
     60          1           0       -1.644346   -0.240943   -0.310971
     61          1           0       -2.092988    5.046313   -1.733266
     62          1           0       -0.312327    4.584861   -1.092796
     63          1           0        7.631835   -1.261181   -3.356369
     64          1           0       -0.865165    4.612658    1.201013
     65          1           0       -2.468430    5.051667    0.763700
     66          1           0       -3.766021    4.145294   -1.947058
     67          1           0       -5.033872    2.782450   -1.422377
     68          1           0       -4.211743    2.642652   -2.992540
     69          1           0       -4.657191    0.381403   -2.066134
     70          1           0        9.191483   -1.061127   -0.663917
     71          1           0       10.116191   -1.322265   -2.067122
     72          1           0       -4.072371   -2.738998    3.404779
     73          1           0       -6.247622   -1.116997   -2.212678
     74          1           0       -5.097067   -5.694105   -2.021107
     75          1           0       -3.762044   -5.775122   -0.479019
     76          1           0       -5.677053   -5.505915   -0.492393
     77          1           0       -0.632836    7.879644    1.680141
     78          1           0       -8.031613   -2.822913   -2.878757
     79          1           0       -6.908387   -3.999243   -2.317110
 ---------------------------------------------------------------------

 SCF Done:  E(RB3LYP) =  -1947.82010348     A.U. after   16 cycles

 Excitation energies and oscillator strengths:

 Excited State   1:      Singlet-A      1.9965 eV  621.02 nm  f=0.4032  <S**2>=0.000
     155 ->156         0.69760
     155 <-156        -0.11256
 This state for optimization and/or second-order correction.
 Total Energy, E(TD-HF/TD-KS) =  -1947.74673455
 Copying the excited state density for this state as the 1-particle RhoCI density.

 The electronic state is 1-A.
 Alpha  occ. eigenvalues --  -19.17507 -19.16830 -19.15255 -19.11122 -19.10592
 Alpha  occ. eigenvalues --  -19.10590 -14.38311 -14.35414 -14.34755 -14.29275
 Alpha  occ. eigenvalues --  -10.32171 -10.30784 -10.28861 -10.26428 -10.24945
 Alpha  occ. eigenvalues --  -10.24755 -10.24657 -10.23845 -10.23065 -10.23034
 Alpha  occ. eigenvalues --  -10.22815 -10.22670 -10.22304 -10.22210 -10.22169
 Alpha  occ. eigenvalues --  -10.21995 -10.21387 -10.21376 -10.21304 -10.20888
 Alpha  occ. eigenvalues --  -10.20798 -10.20687 -10.20664 -10.20584 -10.20532
 Alpha  occ. eigenvalues --  -10.19872 -10.19584 -10.19294 -10.19167 -10.18856
 Alpha  occ. eigenvalues --  -10.18610 -10.18287 -10.16750  -1.12861  -1.09822
 Alpha  occ. eigenvalues --   -1.04327  -1.01524  -1.01004  -1.00404  -0.98810
 Alpha  occ. eigenvalues --   -0.97970  -0.93212  -0.93119  -0.83237  -0.82489
 Alpha  occ. eigenvalues --   -0.82134  -0.80977  -0.80069  -0.79901  -0.78965
 Alpha  occ. eigenvalues --   -0.77413  -0.76686  -0.75501  -0.74414  -0.73124
 Alpha  occ. eigenvalues --   -0.71892  -0.71663  -0.69980  -0.69128  -0.68581
 Alpha  occ. eigenvalues --   -0.67989  -0.65256  -0.64201  -0.61724  -0.61245
 Alpha  occ. eigenvalues --   -0.60219  -0.59868  -0.58550  -0.57912  -0.57666
 Alpha  occ. eigenvalues --   -0.56133  -0.55938  -0.55497  -0.54552  -0.54021
 Alpha  occ. eigenvalues --   -0.53197  -0.52447  -0.52221  -0.50954  -0.50305
 Alpha  occ. eigenvalues --   -0.49361  -0.49310  -0.48617  -0.48303  -0.47818
 Alpha  occ. eigenvalues --   -0.47539  -0.47449  -0.47173  -0.46897  -0.45929
 Alpha  occ. eigenvalues --   -0.45621  -0.45132  -0.44724  -0.44420  -0.43933
 Alpha  occ. eigenvalues --   -0.43689  -0.43621  -0.43597  -0.43319  -0.43015
 Alpha  occ. eigenvalues --   -0.42602  -0.42233  -0.42098  -0.41618  -0.41436
 Alpha  occ. eigenvalues --   -0.40987  -0.40652  -0.40105  -0.40038  -0.39896
 Alpha  occ. eigenvalues --   -0.39729  -0.39440  -0.38856  -0.38624  -0.38395
 Alpha  occ. eigenvalues --   -0.38290  -0.38012  -0.37444  -0.37383  -0.37034
 Alpha  occ. eigenvalues --   -0.36615  -0.35531  -0.35253  -0.34638  -0.34482
 Alpha  occ. eigenvalues --   -0.34074  -0.33911  -0.32744  -0.32062  -0.31853
 Alpha  occ. eigenvalues --   -0.31101  -0.31089  -0.30323  -0.28522  -0.27569
 Alpha  occ. eigenvalues --   -0.26655  -0.26500  -0.25834  -0.25366  -0.25097
 Alpha  occ. eigenvalues --   -0.24810  -0.24475  -0.23506  -0.22645  -0.19532
 Alpha virt. eigenvalues --   -0.11736  -0.07074  -0.05203  -0.01684  -0.00250
 Alpha virt. eigenvalues --    0.00952   0.01311   0.01883   0.03039   0.03553
 Alpha virt. eigenvalues --    0.04011   0.04430   0.04690   0.04947   0.05515

 Mulliken charges:
               1
     1  O   -0.173611
     2  O   -0.122833
     3  O   -0.262095
     4  O   -0.306511
     5  O   -0.101732
     6  O   -0.209024
     7  N    0.051811
     8  N   -0.245052
     9  N   -0.052519
    10  N   -0.240385
    11  C    0.060815
    12  C    0.217019
    13  C   -0.127572
    14  C   -0.134486
    15  C   -0.060779
    16  C    0.017445
    17  C   -0.184550
    18  C    0.100245
    19  C   -0.085871
    20  C   -0.153928
    21  C    0.147892
    22  C    0.164030
    23  C   -0.031166
    24  C    0.182809
    25  C    0.056160
    26  C   -0.191440
    27  C    0.023990
    28  C    0.143692
    29  C   -0.008119
    30  C   -0.000874
    31  C    0.041102
    32  C    0.143454
    33  C   -0.051714
    34  C    0.106755
    35  C    0.061088
    36  C    0.023183
    37  C    0.120110
    38  C    0.070364
    39  C   -0.095973
    40  C    0.126275
    41  C   -0.040329
    42  C   -0.112144
    43  C    0.029740
    44  H    0.035340
    45  H   -0.004597
    46  H   -0.028315
    47  H    0.075164
    48  H    0.137723
    49  H   -0.006522
    50  H    0.016453
    51  H    0.002976
    52  H   -0.025748
    53  H   -0.049544
    54  H    0.002421
    55  H    0.021376
    56  H    0.049055
    57  H    0.024214
    58  H    0.093256
    59  H    0.000223
    60  H    0.085268
    61  H    0.055753
    62  H    0.023467
    63  H    0.052960
    64  H    0.054898
    65  H   -0.006577
    66  H    0.005423
    67  H    0.032190
    68  H    0.039951
    69  H   -0.072958
    70  H   -0.045982
    71  H    0.033971
    72  H    0.141645
    73  H    0.008004
    74  H    0.042477
    75  H    0.068670
    76  H    0.050193
    77  H    0.204981
    78  H    0.042286
    79  H   -0.055367
 Sum of Mulliken charges =   0.00000

 Dipole moment (field-independent basis, Debye):
    X=              1.2844    Y=              2.0350    Z=              3.1001  Tot=              3.9245
 Quadrupole moment (field-independent basis, Debye-Ang):
   XX=           -212.9999   YY=           -250.2906   ZZ=           -260.9512
   XY=             -2.8165   XZ=             35.2029   YZ=              0.3565

 Normal termination of Gaussian 09 at Tue Jul  9 08:38:25 2019.
