 Gaussian 09, Revision D.01,
 Gaussian 09:  ES64L-G09RevD.01 24-Apr-2013

 --------------------------
 # td=(NStates=1) B3LYP/SVP
 --------------------------

 --
 TD
 --
 Symbolic Z-matrix:
 Charge =  0 Multiplicity = 1

                         Standard orientation:
 ---------------------------------------------------------------------
 Center     Atomic      Atomic             Coordinates (Angstroms)
 Number     Number       Type             X           Y           Z
 ---------------------------------------------------------------------
      1          8           0        5.297870   -0.327850   -3.334504
      2          8           0       -2.701277   -3.158370    3.249323
      3          8           0       -3.075812   -0.968815    3.062934
      4          8           0       -1.753905    7.236789    1.633705
      5          8           0       -0.647903    7.081128   -0.351118
      6          8           0       -1.910741   -3.968490   -0.098166
      7          7           0        2.334895    0.996625    0.531444
      8          7           0        4.390342   -0.672906   -1.313434
      9          7           0       -1.949854    0.702909   -0.327292
     10          7           0       -2.687724   -1.826120   -0.485782
     11          6           0        4.884552   -1.246521   -0.008909
     12          6           0        4.494865   -0.260990    1.152397
     13          6           0        3.066555    0.088772    1.289800
     14          6           0        2.125845   -0.546569    2.082782
     15          6           0        0.796502   -0.135816    1.672330
     16          6           0        0.976131    0.909516    0.768715
     17          6           0        6.393527   -1.302247   -0.203006
     18          6           0       -0.442487   -0.377215    2.489548
     19          6           0        6.707981   -0.857778   -1.426692
     20          6           0        0.130149    1.993586    0.172201
     21          6           0       -1.130695    1.820556   -0.401534
     22          6           0        5.420947   -0.586330   -2.144273
     23          6           0       -1.989632    2.849681   -0.982976
     24          6           0        2.463896   -1.715799    3.037154
     25          6           0        7.254743   -1.894380    0.933493
     26          6           0       -3.132567    2.354570   -1.330146
     27          6           0       -0.906110   -1.813838    2.423598
     28          6           0       -3.130310    0.917060   -0.945517
     29          6           0       -1.504367    4.386013   -0.896980
     30          6           0        7.957823   -0.622986   -2.074036
     31          6           0       -1.782696    4.999976    0.450122
     32          6           0       -4.284711    3.141078   -1.912661
     33          6           0       -4.181609   -0.095003   -1.245411
     34          6           0       -2.306762   -1.903282    2.957711
     35          6           0       -3.887316   -1.446002   -1.022963
     36          6           0        9.249949   -0.555501   -1.534129
     37          6           0       -1.285194    6.537391    0.525721
     38          6           0       -4.812595   -2.543583   -1.335922
     39          6           0       -4.149011   -3.676566   -1.011111
     40          6           0       -2.820642   -3.240585   -0.477953
     41          6           0       -6.137946   -2.379757   -1.834946
     42          6           0       -4.479683   -5.099220   -1.135244
     43          6           0       -6.907319   -3.261362   -2.424255
     44          1           0        4.432018   -2.221673    0.262526
     45          1           0        4.853510    0.664123    0.861690
     46          1           0        4.736821   -0.539929    2.234593
     47          1           0        2.667710    1.482720   -0.243147
     48          1           0        3.359549   -0.851077   -1.706053
     49          1           0       -0.127165   -0.136488    3.491890
     50          1           0       -1.302380    0.379662    2.119324
     51          1           0        0.598865    3.003584    0.089270
     52          1           0        3.371474   -1.668633    3.195068
     53          1           0        1.842515   -1.485863    3.959689
     54          1           0        2.238374   -2.713147    2.581556
     55          1           0        6.698142   -2.608490    1.709343
     56          1           0        7.764020   -1.283255    1.679491
     57          1           0        8.094745   -2.467995    0.462276
     58          1           0       -1.134959   -2.203309    1.330645
     59          1           0       -0.368030   -2.600244    3.111692
     60          1           0       -1.881345   -0.390185   -0.109268
     61          1           0       -1.909951    4.814370   -1.687015
     62          1           0       -0.397988    4.679660   -1.269064
     63          1           0        7.712979   -0.942771   -3.175318
     64          1           0       -1.398922    4.358971    1.283373
     65          1           0       -3.012034    5.236593    0.664279
     66          1           0       -4.061694    4.344259   -1.640378
     67          1           0       -5.318239    2.831666   -1.420117
     68          1           0       -4.371943    2.953003   -3.102261
     69          1           0       -4.955771    0.382431   -1.539671
     70          1           0        9.233519   -0.666042   -0.547173
     71          1           0       10.207250   -0.545706   -2.182114
     72          1           0       -3.659414   -2.892243    3.296337
     73          1           0       -6.446747   -1.189785   -1.786303
     74          1           0       -4.665539   -5.356588   -2.150739
     75          1           0       -3.714558   -5.730397   -0.824742
     76          1           0       -5.512018   -5.428706   -0.602950
     77          1           0       -1.303662    7.995179    1.487698
     78          1           0       -7.947849   -3.110648   -2.811672
     79          1           0       -6.511624   -4.272953   -2.796143
 ---------------------------------------------------------------------

 SCF Done:  E(RB3LYP) =  -1947.83537244     A.U. after   16 cycles

 Excitation energies and oscillator strengths:

 Excited State   1:      Singlet-A      2.1928 eV  565.42 nm  f=0.4283  <S**2>=0.000
     155 ->156         0.69430
 This state for optimization and/or second-order correction.
 Total Energy, E(TD-HF/TD-KS) =  -1947.75478867
 Copying the excited state density for this state as the 1-particle RhoCI density.

 The electronic state is 1-A.
 Alpha  occ. eigenvalues --  -19.18995 -19.16794 -19.14993 -19.10891 -19.10146
 Alpha  occ. eigenvalues --  -19.09262 -14.37395 -14.36929 -14.36674 -14.29877
 Alpha  occ. eigenvalues --  -10.34169 -10.29814 -10.28018 -10.26539 -10.25902
 Alpha  occ. eigenvalues --  -10.25674 -10.24799 -10.24362 -10.23730 -10.23674
 Alpha  occ. eigenvalues --  -10.23346 -10.22953 -10.22913 -10.22438 -10.22354
 Alpha  occ. eigenvalues --  -10.21708 -10.21535 -10.21277 -10.21219 -10.21047
 Alpha  occ. eigenvalues --  -10.20917 -10.20551 -10.20428 -10.20292 -10.19998
 Alpha  occ. eigenvalues --  -10.19939 -10.19533 -10.19246 -10.18922 -10.18842
 Alpha  occ. eigenvalues --  -10.18735 -10.18475 -10.18352  -1.11528  -1.08956
 Alpha  occ. eigenvalues --   -1.02643  -1.02590  -1.01115  -0.98898  -0.98561
 Alpha  occ. eigenvalues --   -0.98018  -0.93726  -0.91902  -0.82968  -0.82633
 Alpha  occ. eigenvalues --   -0.81552  -0.81347  -0.80983  -0.79602  -0.77830
 Alpha  occ. eigenvalues --   -0.76985  -0.76419  -0.75577  -0.74759  -0.72520
 Alpha  occ. eigenvalues --   -0.71592  -0.71214  -0.70142  -0.69091  -0.67886
 Alpha  occ. eigenvalues --   -0.66628  -0.66244  -0.64160  -0.62041  -0.61115
 Alpha  occ. eigenvalues --   -0.60226  -0.59064  -0.58231  -0.57042  -0.56716
 Alpha  occ. eigenvalues --   -0.55842  -0.55604  -0.54143  -0.53660  -0.53237
 Alpha  occ. eigenvalues --   -0.52417  -0.51664  -0.50361  -0.50234  -0.50060
 Alpha  occ. eigenvalues --   -0.49157  -0.48266  -0.48100  -0.47961  -0.47608
 Alpha  occ. eigenvalues --   -0.47331  -0.46730  -0.46207  -0.45884  -0.45384
 Alpha  occ. eigenvalues --   -0.45290  -0.45242  -0.44932  -0.44583  -0.44204
 Alpha  occ. eigenvalues --   -0.43500  -0.43309  -0.43070  -0.42479  -0.42298
 Alpha  occ. eigenvalues --   -0.42132  -0.41889  -0.41575  -0.41507  -0.41012
 Alpha  occ. eigenvalues --   -0.40926  -0.40657  -0.40550  -0.40535  -0.40129
 Alpha  occ. eigenvalues --   -0.39998  -0.39315  -0.39072  -0.38841  -0.38713
 Alpha  occ. eigenvalues --   -0.38380  -0.38295  -0.37470  -0.37409  -0.37048
 Alpha  occ. eigenvalues --   -0.36255  -0.35721  -0.35393  -0.35022  -0.34348
 Alpha  occ. eigenvalues --   -0.34163  -0.34042  -0.33833  -0.32770  -0.31336
 Alpha  occ. eigenvalues --   -0.30681  -0.30655  -0.29907  -0.29386  -0.28608
 Alpha  occ. eigenvalues --   -0.27448  -0.26913  -0.26498  -0.25368  -0.24520
 Alpha  occ. eigenvalues --   -0.24402  -0.24113  -0.23683  -0.22647  -0.19819
 Alpha virt. eigenvalues --   -0.10964  -0.06663  -0.06403  -0.01753  -0.00607
 Alpha virt. eigenvalues --    0.00194   0.01474   0.02233   0.02308   0.02740
 Alpha virt. eigenvalues --    0.04007   0.04330   0.04736   0.04795   0.05179

 Mulliken charges:
               1
     1  O   -0.233815
     2  O   -0.181085
     3  O   -0.258976
     4  O   -0.148835
     5  O   -0.221221
     6  O   -0.212522
     7  N   -0.072489
     8  N   -0.203894
     9  N   -0.102438
    10  N   -0.337013
    11  C    0.073549
    12  C    0.245135
    13  C   -0.112758
    14  C   -0.220505
    15  C   -0.065477
    16  C    0.049742
    17  C   -0.114896
    18  C    0.046436
    19  C   -0.043709
    20  C   -0.098509
    21  C    0.109708
    22  C    0.112798
    23  C   -0.065179
    24  C    0.238943
    25  C    0.021203
    26  C   -0.090469
    27  C   -0.047784
    28  C   -0.016224
    29  C    0.101966
    30  C   -0.067646
    31  C   -0.062084
    32  C   -0.044071
    33  C    0.013201
    34  C    0.104586
    35  C    0.191689
    36  C    0.018212
    37  C    0.158226
    38  C    0.054981
    39  C   -0.188299
    40  C    0.153733
    41  C   -0.015573
    42  C    0.112336
    43  C   -0.082003
    44  H    0.025623
    45  H   -0.045452
    46  H    0.034835
    47  H    0.090324
    48  H    0.182088
    49  H    0.004802
    50  H    0.054290
    51  H    0.019138
    52  H   -0.110073
    53  H    0.022201
    54  H    0.042602
    55  H    0.029847
    56  H    0.038227
    57  H    0.042324
    58  H    0.109871
    59  H    0.047049
    60  H    0.208527
    61  H   -0.037736
    62  H    0.043042
    63  H    0.047080
    64  H    0.065185
    65  H    0.069616
    66  H    0.053926
    67  H    0.056284
    68  H    0.064784
    69  H   -0.148243
    70  H   -0.027185
    71  H    0.061794
    72  H    0.169933
    73  H    0.030036
    74  H    0.014744
    75  H    0.003876
    76  H    0.037505
    77  H    0.130647
    78  H    0.035007
    79  H    0.034511
 Sum of Mulliken charges =   0.00000

 Dipole moment (field-independent basis, Debye):
    X=              0.3616    Y=              1.9023    Z=              2.1644  Tot=              2.9041
 Quadrupole moment (field-independent basis, Debye-Ang):
   XX=           -219.0287   YY=           -249.0702   ZZ=           -266.4901
   XY=            -10.6382   XZ=             38.3963   YZ=              5.4406

 Normal termination of Gaussian 09 at Mon Jul  8 06:20:49 2019.
