 Gaussian 09, Revision D.01,
 Gaussian 09:  ES64L-G09RevD.01 24-Apr-2013

 --------------------------
 # td=(NStates=1) B3LYP/SVP
 --------------------------

 --
 TD
 --
 Symbolic Z-matrix:
 Charge =  0 Multiplicity = 1

                         Standard orientation:
 ---------------------------------------------------------------------
 Center     Atomic      Atomic             Coordinates (Angstroms)
 Number     Number       Type             X           Y           Z
 ---------------------------------------------------------------------
      1          8           0        5.266755   -0.049279   -3.361641
      2          8           0       -2.820032   -3.358134    3.365290
      3          8           0       -3.243616   -1.168130    3.325833
      4          8           0       -1.364250    7.100991    1.780437
      5          8           0       -0.708359    7.290074   -0.385093
      6          8           0       -2.076637   -3.993458   -0.205366
      7          7           0        2.416535    0.731666    0.634448
      8          7           0        4.433258   -0.585665   -1.345341
      9          7           0       -1.853053    0.722491   -0.306942
     10          7           0       -2.641636   -1.803283   -0.498194
     11          6           0        4.764349   -1.327398   -0.062396
     12          6           0        4.463614   -0.524234    1.212870
     13          6           0        3.001266   -0.221058    1.419293
     14          6           0        2.002028   -0.822115    2.175372
     15          6           0        0.725441   -0.148916    1.820962
     16          6           0        0.991001    0.785806    0.877966
     17          6           0        6.242751   -1.422498   -0.268929
     18          6           0       -0.557260   -0.419054    2.580859
     19          6           0        6.670305   -0.952782   -1.493461
     20          6           0        0.265877    1.954278    0.234573
     21          6           0       -0.963950    1.849170   -0.270693
     22          6           0        5.415963   -0.503683   -2.244344
     23          6           0       -1.732490    2.855151   -0.764425
     24          6           0        2.182198   -1.915767    3.128767
     25          6           0        7.133754   -2.037378    0.683989
     26          6           0       -3.020258    2.421531   -1.176719
     27          6           0       -1.115757   -1.875592    2.403567
     28          6           0       -2.988525    1.026017   -1.021975
     29          6           0       -1.306589    4.331781   -0.797260
     30          6           0        8.051257   -0.752065   -2.066787
     31          6           0       -1.562439    5.140717    0.580600
     32          6           0       -4.224488    3.278276   -1.733988
     33          6           0       -3.998798    0.043295   -1.366739
     34          6           0       -2.455501   -2.057274    3.128438
     35          6           0       -3.800259   -1.276660   -1.145346
     36          6           0        9.204769   -0.523634   -1.460048
     37          6           0       -1.124598    6.580942    0.493922
     38          6           0       -4.796374   -2.283632   -1.531441
     39          6           0       -4.218770   -3.464615   -1.282500
     40          6           0       -2.918232   -3.223597   -0.556843
     41          6           0       -6.029697   -1.999092   -2.176063
     42          6           0       -4.745705   -4.856379   -1.406554
     43          6           0       -6.991983   -2.949573   -2.739591
     44          1           0        4.064753   -2.251662    0.069243
     45          1           0        5.226035    0.225412    1.256436
     46          1           0        4.774415   -1.208547    2.038697
     47          1           0        2.772484    1.336136   -0.217411
     48          1           0        3.476808   -0.721393   -1.490848
     49          1           0       -0.249299   -0.298068    3.617022
     50          1           0       -1.378766    0.271297    2.362082
     51          1           0        0.926408    2.751768    0.067886
     52          1           0        3.204784   -2.032005    3.568083
     53          1           0        1.733220   -1.705887    4.156577
     54          1           0        1.782981   -2.858384    2.616481
     55          1           0        6.670164   -2.845319    1.005995
     56          1           0        7.660968   -1.188267    1.460487
     57          1           0        8.008118   -2.371404    0.198200
     58          1           0       -1.281844   -2.126473    1.460339
     59          1           0       -0.284625   -2.491330    2.679102
     60          1           0       -1.951465   -0.342243   -0.318778
     61          1           0       -1.884250    4.742726   -1.647473
     62          1           0       -0.319788    4.358670   -1.259344
     63          1           0        7.819257   -0.976829   -3.118753
     64          1           0       -0.954469    4.579955    1.542634
     65          1           0       -2.621192    5.145002    0.931484
     66          1           0       -3.931153    4.239359   -1.931042
     67          1           0       -5.028364    3.295449   -0.943307
     68          1           0       -4.633952    2.872228   -2.658147
     69          1           0       -4.917316    0.470687   -1.876906
     70          1           0        9.633447   -0.352034   -0.518577
     71          1           0        9.989128   -0.318350   -2.134267
     72          1           0       -3.763650   -3.241132    3.643108
     73          1           0       -6.404175   -0.942377   -2.092637
     74          1           0       -4.612128   -5.271426   -2.456853
     75          1           0       -3.968938   -5.544640   -0.913280
     76          1           0       -5.770990   -5.093501   -1.326195
     77          1           0       -1.468710    8.153882    1.600605
     78          1           0       -7.766881   -2.532197   -3.172279
     79          1           0       -6.845027   -4.021896   -2.792306
 ---------------------------------------------------------------------

 SCF Done:  E(RB3LYP) =  -1947.85986123     A.U. after   16 cycles

 Excitation energies and oscillator strengths:

 Excited State   1:      Singlet-A      2.0651 eV  600.39 nm  f=0.2911  <S**2>=0.000
     154 ->156         0.22616
     155 ->156         0.66185
 This state for optimization and/or second-order correction.
 Total Energy, E(TD-HF/TD-KS) =  -1947.78397179
 Copying the excited state density for this state as the 1-particle RhoCI density.

 The electronic state is 1-A.
 Alpha  occ. eigenvalues --  -19.17903 -19.16428 -19.14716 -19.11362 -19.10069
 Alpha  occ. eigenvalues --  -19.09555 -14.38293 -14.35188 -14.34836 -14.29250
 Alpha  occ. eigenvalues --  -10.33272 -10.30563 -10.28376 -10.26364 -10.25559
 Alpha  occ. eigenvalues --  -10.24549 -10.24536 -10.24484 -10.23689 -10.23396
 Alpha  occ. eigenvalues --  -10.23160 -10.22777 -10.22031 -10.21785 -10.21665
 Alpha  occ. eigenvalues --  -10.21633 -10.21340 -10.21325 -10.21275 -10.20770
 Alpha  occ. eigenvalues --  -10.20521 -10.20462 -10.20006 -10.19919 -10.19906
 Alpha  occ. eigenvalues --  -10.19715 -10.19557 -10.19545 -10.19537 -10.19384
 Alpha  occ. eigenvalues --  -10.19068 -10.18768 -10.17456  -1.08665  -1.07903
 Alpha  occ. eigenvalues --   -1.02628  -1.02357  -0.99860  -0.98664  -0.97935
 Alpha  occ. eigenvalues --   -0.96975  -0.93956  -0.90221  -0.83409  -0.82792
 Alpha  occ. eigenvalues --   -0.81288  -0.80664  -0.80001  -0.79795  -0.77636
 Alpha  occ. eigenvalues --   -0.77140  -0.76470  -0.76024  -0.74229  -0.73004
 Alpha  occ. eigenvalues --   -0.72167  -0.71703  -0.70153  -0.69276  -0.68791
 Alpha  occ. eigenvalues --   -0.66472  -0.66090  -0.64002  -0.63258  -0.62066
 Alpha  occ. eigenvalues --   -0.59106  -0.58178  -0.57701  -0.57246  -0.56630
 Alpha  occ. eigenvalues --   -0.56136  -0.55502  -0.54477  -0.54275  -0.53697
 Alpha  occ. eigenvalues --   -0.51695  -0.51384  -0.51021  -0.50119  -0.49484
 Alpha  occ. eigenvalues --   -0.49287  -0.48714  -0.48356  -0.48059  -0.47518
 Alpha  occ. eigenvalues --   -0.47188  -0.46879  -0.46572  -0.46144  -0.45499
 Alpha  occ. eigenvalues --   -0.45134  -0.45077  -0.44931  -0.44854  -0.44312
 Alpha  occ. eigenvalues --   -0.43710  -0.43680  -0.43044  -0.42726  -0.42239
 Alpha  occ. eigenvalues --   -0.42061  -0.41891  -0.41769  -0.41344  -0.41176
 Alpha  occ. eigenvalues --   -0.40882  -0.40563  -0.40327  -0.40130  -0.39744
 Alpha  occ. eigenvalues --   -0.39594  -0.39073  -0.38678  -0.38457  -0.38299
 Alpha  occ. eigenvalues --   -0.37990  -0.37722  -0.37622  -0.37572  -0.36907
 Alpha  occ. eigenvalues --   -0.36746  -0.36500  -0.35603  -0.35309  -0.35144
 Alpha  occ. eigenvalues --   -0.34865  -0.34316  -0.32964  -0.32680  -0.31701
 Alpha  occ. eigenvalues --   -0.30766  -0.30763  -0.29623  -0.28627  -0.28167
 Alpha  occ. eigenvalues --   -0.26929  -0.26684  -0.25619  -0.25423  -0.24752
 Alpha  occ. eigenvalues --   -0.24481  -0.24201  -0.23467  -0.22079  -0.20068
 Alpha virt. eigenvalues --   -0.11573  -0.07131  -0.06036  -0.02133  -0.01652
 Alpha virt. eigenvalues --    0.00739   0.01378   0.01839   0.02525   0.02630
 Alpha virt. eigenvalues --    0.03124   0.03826   0.04393   0.04880   0.05376

 Mulliken charges:
               1
     1  O   -0.216903
     2  O   -0.199823
     3  O   -0.235134
     4  O   -0.289805
     5  O   -0.196471
     6  O   -0.179646
     7  N   -0.177187
     8  N   -0.148430
     9  N   -0.134694
    10  N   -0.367630
    11  C    0.010796
    12  C    0.197131
    13  C   -0.024984
    14  C   -0.141313
    15  C   -0.070348
    16  C    0.028933
    17  C   -0.210725
    18  C    0.100695
    19  C   -0.104987
    20  C   -0.113378
    21  C    0.264527
    22  C    0.136515
    23  C   -0.143050
    24  C    0.041567
    25  C    0.157669
    26  C   -0.135077
    27  C    0.103146
    28  C    0.035063
    29  C    0.122613
    30  C    0.053897
    31  C   -0.057368
    32  C    0.150444
    33  C   -0.144734
    34  C    0.139407
    35  C    0.163081
    36  C   -0.003698
    37  C    0.177035
    38  C    0.080762
    39  C   -0.189319
    40  C    0.162874
    41  C   -0.098347
    42  C    0.088118
    43  C    0.043183
    44  H    0.042630
    45  H   -0.015139
    46  H   -0.001893
    47  H    0.160728
    48  H    0.103948
    49  H   -0.000654
    50  H    0.013357
    51  H   -0.012345
    52  H    0.006291
    53  H    0.022140
    54  H    0.073428
    55  H   -0.015309
    56  H    0.052702
    57  H   -0.002188
    58  H    0.008116
    59  H   -0.018551
    60  H    0.165634
    61  H    0.010107
    62  H    0.011158
    63  H    0.034082
    64  H    0.087243
    65  H    0.062401
    66  H   -0.019285
    67  H    0.038141
    68  H    0.029321
    69  H   -0.008977
    70  H    0.003479
    71  H    0.014285
    72  H    0.177526
    73  H    0.012952
    74  H    0.013358
    75  H    0.035381
    76  H    0.018670
    77  H    0.218502
    78  H   -0.015361
    79  H    0.019719
 Sum of Mulliken charges =   0.00000

 Dipole moment (field-independent basis, Debye):
    X=              0.4774    Y=              2.2902    Z=              2.3192  Tot=              3.2942
 Quadrupole moment (field-independent basis, Debye-Ang):
   XX=           -210.8727   YY=           -248.7952   ZZ=           -266.8405
   XY=            -17.0217   XZ=             34.6327   YZ=              4.5552

 Normal termination of Gaussian 09 at Tue Jul  9 02:19:14 2019.
