 Gaussian 09, Revision D.01,
 Gaussian 09:  ES64L-G09RevD.01 24-Apr-2013

 --------------------------
 # td=(NStates=1) B3LYP/SVP
 --------------------------

 --
 TD
 --
 Symbolic Z-matrix:
 Charge =  0 Multiplicity = 1

                         Standard orientation:
 ---------------------------------------------------------------------
 Center     Atomic      Atomic             Coordinates (Angstroms)
 Number     Number       Type             X           Y           Z
 ---------------------------------------------------------------------
      1          8           0        5.504279   -0.103980   -3.279984
      2          8           0       -3.093841   -3.053396    3.213282
      3          8           0       -3.368638   -0.890631    3.452830
      4          8           0       -1.093775    7.195807    1.618774
      5          8           0       -0.295455    7.123508   -0.440386
      6          8           0       -2.089805   -3.982708   -0.225237
      7          7           0        2.311188    0.729865    0.615750
      8          7           0        4.383149   -0.669168   -1.270951
      9          7           0       -1.907598    0.677095   -0.388310
     10          7           0       -2.742209   -1.847499   -0.640660
     11          6           0        4.780394   -1.400831   -0.163157
     12          6           0        4.351904   -0.667232    1.143240
     13          6           0        2.961894   -0.273102    1.325802
     14          6           0        1.988093   -0.914811    2.077235
     15          6           0        0.734891   -0.293674    1.794585
     16          6           0        0.991418    0.695437    0.894113
     17          6           0        6.271129   -1.541325   -0.296268
     18          6           0       -0.563861   -0.396234    2.627021
     19          6           0        6.703425   -0.970304   -1.470883
     20          6           0        0.210515    1.811920    0.296657
     21          6           0       -1.055299    1.811953   -0.192895
     22          6           0        5.503072   -0.519368   -2.136916
     23          6           0       -1.818804    2.946455   -0.747970
     24          6           0        2.087462   -1.887092    3.251480
     25          6           0        7.053877   -2.148376    0.828412
     26          6           0       -2.928296    2.415644   -1.268320
     27          6           0       -1.322700   -1.771249    2.417817
     28          6           0       -3.072453    1.061425   -1.052334
     29          6           0       -1.299703    4.327738   -0.758264
     30          6           0        8.023897   -0.803890   -1.989263
     31          6           0       -1.461553    5.139968    0.536900
     32          6           0       -4.020383    3.300897   -1.855756
     33          6           0       -4.082530    0.143891   -1.420970
     34          6           0       -2.649488   -1.856026    3.016704
     35          6           0       -3.839787   -1.247371   -1.121016
     36          6           0        9.210490   -0.677182   -1.381542
     37          6           0       -0.929984    6.609052    0.506454
     38          6           0       -4.865955   -2.289668   -1.451889
     39          6           0       -4.193742   -3.523847   -1.134079
     40          6           0       -2.879356   -3.196894   -0.560265
     41          6           0       -6.097281   -2.010147   -2.097819
     42          6           0       -4.664371   -4.889375   -1.412746
     43          6           0       -6.961402   -2.774951   -2.807900
     44          1           0        4.172027   -2.506619   -0.057992
     45          1           0        5.045683    0.213189    1.312645
     46          1           0        4.644457   -1.060511    2.101013
     47          1           0        2.544212    0.968100   -0.440137
     48          1           0        3.381718   -0.430738   -1.560474
     49          1           0       -0.262436   -0.392990    3.620746
     50          1           0       -1.203548    0.580312    2.540616
     51          1           0        0.669795    2.929952    0.163223
     52          1           0        3.211384   -2.176181    3.351651
     53          1           0        1.609527   -1.532191    4.148473
     54          1           0        1.778709   -2.823760    2.978588
     55          1           0        6.451757   -2.813402    1.488784
     56          1           0        7.558560   -1.201256    1.228883
     57          1           0        8.004305   -2.733730    0.536029
     58          1           0       -1.258532   -2.032193    1.325799
     59          1           0       -0.585940   -2.478110    2.830545
     60          1           0       -1.925486   -0.401410   -0.011140
     61          1           0       -1.816039    4.940198   -1.618908
     62          1           0       -0.331160    4.091171   -1.214236
     63          1           0        8.060843   -0.704215   -3.176904
     64          1           0       -0.757174    4.484632    1.273440
     65          1           0       -2.490436    5.127793    0.960933
     66          1           0       -3.306243    4.269757   -2.645617
     67          1           0       -4.594436    4.025837   -0.738361
     68          1           0       -4.805207    2.384447   -2.470762
     69          1           0       -5.060849    0.496362   -1.488071
     70          1           0        9.421559   -0.738357   -0.290428
     71          1           0       10.087390   -0.551358   -2.109253
     72          1           0       -3.885647   -3.055624    3.773477
     73          1           0       -6.639573   -0.973037   -1.939793
     74          1           0       -4.412628   -5.151095   -2.394803
     75          1           0       -3.994384   -5.515095   -0.688670
     76          1           0       -5.783651   -4.906168   -1.330345
     77          1           0       -0.827389    8.139594    1.678978
     78          1           0       -7.879365   -2.452544   -3.297293
     79          1           0       -6.628697   -3.830185   -3.142689
 ---------------------------------------------------------------------

 SCF Done:  E(RB3LYP) =  -1947.78549309     A.U. after   16 cycles

 Excitation energies and oscillator strengths:

 Excited State   1:      Singlet-A      2.1165 eV  585.81 nm  f=0.1794  <S**2>=0.000
     154 ->156         0.47366
     155 ->156         0.51118
 This state for optimization and/or second-order correction.
 Total Energy, E(TD-HF/TD-KS) =  -1947.70771415
 Copying the excited state density for this state as the 1-particle RhoCI density.

 The electronic state is 1-A.
 Alpha  occ. eigenvalues --  -19.20608 -19.17924 -19.12262 -19.10924 -19.10166
 Alpha  occ. eigenvalues --  -19.10119 -14.38430 -14.36285 -14.35969 -14.29039
 Alpha  occ. eigenvalues --  -10.33344 -10.31188 -10.28688 -10.26770 -10.26353
 Alpha  occ. eigenvalues --  -10.26169 -10.24725 -10.24589 -10.24216 -10.23686
 Alpha  occ. eigenvalues --  -10.23390 -10.22946 -10.22902 -10.22787 -10.22355
 Alpha  occ. eigenvalues --  -10.21959 -10.21175 -10.21161 -10.20954 -10.20784
 Alpha  occ. eigenvalues --  -10.20519 -10.20306 -10.20038 -10.19985 -10.19974
 Alpha  occ. eigenvalues --  -10.19831 -10.19807 -10.19792 -10.19590 -10.19571
 Alpha  occ. eigenvalues --  -10.19393 -10.19281 -10.18577  -1.13067  -1.10278
 Alpha  occ. eigenvalues --   -1.05128  -1.02778  -0.99368  -0.99251  -0.96927
 Alpha  occ. eigenvalues --   -0.95770  -0.95402  -0.92683  -0.83163  -0.82836
 Alpha  occ. eigenvalues --   -0.81605  -0.81356  -0.79879  -0.79718  -0.77694
 Alpha  occ. eigenvalues --   -0.77311  -0.76649  -0.75952  -0.74719  -0.72907
 Alpha  occ. eigenvalues --   -0.72092  -0.71504  -0.69859  -0.69035  -0.67942
 Alpha  occ. eigenvalues --   -0.66976  -0.65420  -0.64772  -0.63234  -0.61896
 Alpha  occ. eigenvalues --   -0.60865  -0.60137  -0.58963  -0.57573  -0.56408
 Alpha  occ. eigenvalues --   -0.56351  -0.55411  -0.54583  -0.53199  -0.52985
 Alpha  occ. eigenvalues --   -0.51906  -0.51289  -0.51024  -0.50690  -0.50165
 Alpha  occ. eigenvalues --   -0.49504  -0.48778  -0.48523  -0.48209  -0.47800
 Alpha  occ. eigenvalues --   -0.47615  -0.47213  -0.46686  -0.46533  -0.45887
 Alpha  occ. eigenvalues --   -0.45622  -0.44967  -0.44651  -0.44623  -0.44159
 Alpha  occ. eigenvalues --   -0.43820  -0.43702  -0.43385  -0.42809  -0.42691
 Alpha  occ. eigenvalues --   -0.42377  -0.42278  -0.41703  -0.41305  -0.41015
 Alpha  occ. eigenvalues --   -0.40914  -0.40710  -0.40134  -0.39622  -0.39384
 Alpha  occ. eigenvalues --   -0.39237  -0.39074  -0.38727  -0.38268  -0.37905
 Alpha  occ. eigenvalues --   -0.37409  -0.36893  -0.36789  -0.36584  -0.35982
 Alpha  occ. eigenvalues --   -0.35845  -0.35530  -0.35145  -0.35018  -0.34208
 Alpha  occ. eigenvalues --   -0.33412  -0.33290  -0.32996  -0.32315  -0.31522
 Alpha  occ. eigenvalues --   -0.30717  -0.29599  -0.29091  -0.27995  -0.27761
 Alpha  occ. eigenvalues --   -0.26440  -0.26144  -0.25858  -0.25731  -0.25593
 Alpha  occ. eigenvalues --   -0.24565  -0.24126  -0.23833  -0.21631  -0.20346
 Alpha virt. eigenvalues --   -0.11390  -0.07001  -0.06209  -0.01427  -0.01232
 Alpha virt. eigenvalues --   -0.00832  -0.00409  -0.00031   0.00585   0.01420
 Alpha virt. eigenvalues --    0.02213   0.02989   0.03138   0.04034   0.04208

 Mulliken charges:
               1
     1  O   -0.211576
     2  O   -0.120310
     3  O   -0.313337
     4  O   -0.110729
     5  O   -0.269074
     6  O   -0.143301
     7  N   -0.101320
     8  N   -0.228427
     9  N   -0.212062
    10  N   -0.295490
    11  C    0.078681
    12  C    0.179470
    13  C   -0.113713
    14  C   -0.143944
    15  C   -0.087443
    16  C    0.035875
    17  C   -0.167627
    18  C    0.094425
    19  C    0.017209
    20  C   -0.151983
    21  C    0.110730
    22  C    0.144295
    23  C   -0.037236
    24  C    0.152244
    25  C    0.044727
    26  C   -0.081297
    27  C   -0.035069
    28  C    0.150903
    29  C    0.058097
    30  C   -0.055641
    31  C   -0.036147
    32  C   -0.154897
    33  C   -0.084229
    34  C    0.147722
    35  C    0.070513
    36  C   -0.064021
    37  C    0.128649
    38  C    0.084406
    39  C   -0.240791
    40  C    0.132906
    41  C   -0.072299
    42  C    0.088777
    43  C   -0.085769
    44  H    0.039836
    45  H   -0.017789
    46  H   -0.022108
    47  H    0.153081
    48  H    0.150360
    49  H   -0.026388
    50  H    0.042225
    51  H    0.043797
    52  H   -0.009025
    53  H    0.034774
    54  H    0.001701
    55  H    0.042773
    56  H    0.055351
    57  H    0.044062
    58  H    0.087250
    59  H    0.018784
    60  H    0.220745
    61  H    0.017296
    62  H    0.036842
    63  H    0.046275
    64  H    0.062484
    65  H    0.050489
    66  H    0.069515
    67  H    0.065096
    68  H    0.076346
    69  H   -0.013261
    70  H    0.018860
    71  H    0.043915
    72  H    0.186165
    73  H    0.020427
    74  H    0.021780
    75  H    0.045369
    76  H    0.035735
    77  H    0.203418
    78  H    0.027516
    79  H    0.024405
 Sum of Mulliken charges =   0.00000

 Dipole moment (field-independent basis, Debye):
    X=              1.0605    Y=              1.6401    Z=              4.6537  Tot=              5.0470
 Quadrupole moment (field-independent basis, Debye-Ang):
   XX=           -230.0757   YY=           -241.2313   ZZ=           -263.0477
   XY=            -14.8822   XZ=             28.6481   YZ=              8.2060

 Normal termination of Gaussian 09 at Tue Jul  9 02:37:44 2019.
