 Gaussian 09, Revision D.01,
 Gaussian 09:  ES64L-G09RevD.01 24-Apr-2013

 --------------------------
 # td=(NStates=1) B3LYP/SVP
 --------------------------

 --
 TD
 --
 Symbolic Z-matrix:
 Charge =  0 Multiplicity = 1

                         Standard orientation:
 ---------------------------------------------------------------------
 Center     Atomic      Atomic             Coordinates (Angstroms)
 Number     Number       Type             X           Y           Z
 ---------------------------------------------------------------------
      1          8           0        5.280554   -0.290189   -3.368908
      2          8           0       -2.786771   -2.983635    3.204210
      3          8           0       -3.170679   -0.701339    3.317878
      4          8           0       -2.219190    7.242333    1.167331
      5          8           0       -0.937692    7.005983   -0.731337
      6          8           0       -1.617034   -4.108161   -0.047334
      7          7           0        2.356041    1.030143    0.483973
      8          7           0        4.423487   -0.658509   -1.299647
      9          7           0       -1.945308    0.634285   -0.282031
     10          7           0       -2.548291   -1.972287   -0.428094
     11          6           0        4.822253   -1.136575    0.065760
     12          6           0        4.429826   -0.152094    1.253199
     13          6           0        3.064066    0.250668    1.340427
     14          6           0        2.038343   -0.376341    2.238257
     15          6           0        0.838019    0.114266    1.898100
     16          6           0        1.004705    1.072931    0.859056
     17          6           0        6.311118   -1.229948   -0.065214
     18          6           0       -0.461797   -0.067567    2.626628
     19          6           0        6.649616   -0.921266   -1.435552
     20          6           0        0.170572    1.975438    0.039744
     21          6           0       -1.169984    1.758499   -0.294527
     22          6           0        5.402727   -0.637092   -2.215731
     23          6           0       -2.107403    2.796042   -0.814028
     24          6           0        2.316866   -1.320696    3.427716
     25          6           0        7.266776   -1.452471    1.096575
     26          6           0       -3.333320    2.260623   -1.103704
     27          6           0       -1.007978   -1.587047    2.484505
     28          6           0       -3.084774    0.780426   -0.932904
     29          6           0       -1.619201    4.258324   -1.074623
     30          6           0        7.972093   -0.691546   -2.066222
     31          6           0       -1.976022    5.004648    0.268439
     32          6           0       -4.439098    2.843580   -1.843302
     33          6           0       -3.999659   -0.261334   -1.233867
     34          6           0       -2.449190   -1.708067    3.111109
     35          6           0       -3.722100   -1.640935   -0.980213
     36          6           0        9.294102   -0.519129   -1.629911
     37          6           0       -1.675193    6.487486    0.204916
     38          6           0       -4.506792   -2.835669   -1.453163
     39          6           0       -3.795416   -3.953958   -1.077726
     40          6           0       -2.554665   -3.386937   -0.454592
     41          6           0       -5.854232   -2.700777   -1.986636
     42          6           0       -4.120017   -5.320766   -1.076878
     43          6           0       -6.606108   -3.558024   -2.697610
     44          1           0        4.269723   -2.080735    0.365990
     45          1           0        5.122039    0.735953    1.118483
     46          1           0        4.752098   -0.725907    2.149060
     47          1           0        2.891059    1.282498   -0.359184
     48          1           0        3.529332   -0.821583   -1.754343
     49          1           0       -0.235317    0.209322    3.740585
     50          1           0       -1.357773    0.566668    2.264042
     51          1           0        0.673335    2.864053   -0.269352
     52          1           0        3.426332   -1.042733    3.817681
     53          1           0        1.372632   -1.454278    4.316946
     54          1           0        2.360602   -2.495612    3.134736
     55          1           0        6.682105   -2.323689    1.651260
     56          1           0        7.290189   -0.268108    1.319034
     57          1           0        8.118774   -1.979210    0.593928
     58          1           0       -0.925492   -1.925578    1.296409
     59          1           0       -0.369029   -2.464408    2.841113
     60          1           0       -1.453822   -0.227628   -0.138525
     61          1           0       -2.220880    4.666508   -1.974593
     62          1           0       -0.600305    4.484674   -1.194611
     63          1           0        7.757194   -0.321420   -3.252388
     64          1           0       -1.408191    4.433943    0.962586
     65          1           0       -3.109467    4.961052    0.575675
     66          1           0       -4.577548    4.011862   -1.602486
     67          1           0       -5.394263    2.532306   -1.278327
     68          1           0       -4.368980    2.555694   -2.972210
     69          1           0       -4.762627   -0.154095   -1.930716
     70          1           0        9.598257   -0.601228   -0.614560
     71          1           0       10.301669   -0.397750   -2.286923
     72          1           0       -3.786510   -3.032156    3.294847
     73          1           0       -6.223886   -1.716805   -2.038052
     74          1           0       -4.258191   -5.732204   -2.035032
     75          1           0       -3.378591   -5.740055   -0.630353
     76          1           0       -4.969345   -5.535198   -0.531391
     77          1           0       -1.861524    8.159752    0.938413
     78          1           0       -7.700045   -3.256142   -3.105382
     79          1           0       -6.167378   -4.591274   -2.934673
 ---------------------------------------------------------------------

 SCF Done:  E(RB3LYP) =  -1947.82654977     A.U. after   18 cycles

 Excitation energies and oscillator strengths:

 Excited State   1:      Singlet-A      2.0520 eV  604.22 nm  f=0.4901  <S**2>=0.000
     155 ->156         0.69750
     155 <-156        -0.10781
 This state for optimization and/or second-order correction.
 Total Energy, E(TD-HF/TD-KS) =  -1947.75114118
 Copying the excited state density for this state as the 1-particle RhoCI density.

 The electronic state is 1-A.
 Alpha  occ. eigenvalues --  -19.20581 -19.18779 -19.12860 -19.11503 -19.10438
 Alpha  occ. eigenvalues --  -19.10083 -14.39600 -14.37436 -14.36252 -14.28927
 Alpha  occ. eigenvalues --  -10.33407 -10.31544 -10.28571 -10.26867 -10.26156
 Alpha  occ. eigenvalues --  -10.25483 -10.24542 -10.24059 -10.23857 -10.23798
 Alpha  occ. eigenvalues --  -10.23700 -10.23580 -10.23097 -10.23078 -10.22509
 Alpha  occ. eigenvalues --  -10.22303 -10.22213 -10.22184 -10.21530 -10.21523
 Alpha  occ. eigenvalues --  -10.21457 -10.21175 -10.21017 -10.20949 -10.20481
 Alpha  occ. eigenvalues --  -10.20395 -10.20079 -10.19957 -10.19698 -10.19452
 Alpha  occ. eigenvalues --  -10.19313 -10.18521 -10.15982  -1.10100  -1.08749
 Alpha  occ. eigenvalues --   -1.03686  -1.00378  -0.99569  -0.99071  -0.98064
 Alpha  occ. eigenvalues --   -0.97502  -0.94604  -0.91351  -0.82810  -0.82683
 Alpha  occ. eigenvalues --   -0.81960  -0.81304  -0.80944  -0.79875  -0.77897
 Alpha  occ. eigenvalues --   -0.77406  -0.76028  -0.74722  -0.73992  -0.72103
 Alpha  occ. eigenvalues --   -0.71250  -0.70604  -0.70423  -0.68513  -0.68193
 Alpha  occ. eigenvalues --   -0.67114  -0.66591  -0.63919  -0.60915  -0.60730
 Alpha  occ. eigenvalues --   -0.59940  -0.59600  -0.57929  -0.57691  -0.57013
 Alpha  occ. eigenvalues --   -0.56513  -0.55329  -0.54912  -0.54274  -0.53389
 Alpha  occ. eigenvalues --   -0.52350  -0.51866  -0.51283  -0.50413  -0.49505
 Alpha  occ. eigenvalues --   -0.49317  -0.49016  -0.48334  -0.47509  -0.47463
 Alpha  occ. eigenvalues --   -0.47257  -0.46944  -0.46277  -0.46151  -0.46076
 Alpha  occ. eigenvalues --   -0.45341  -0.45079  -0.44702  -0.44306  -0.44201
 Alpha  occ. eigenvalues --   -0.43682  -0.43349  -0.43047  -0.42917  -0.42672
 Alpha  occ. eigenvalues --   -0.42558  -0.42112  -0.41764  -0.41436  -0.41237
 Alpha  occ. eigenvalues --   -0.40586  -0.40260  -0.40150  -0.39858  -0.39810
 Alpha  occ. eigenvalues --   -0.39238  -0.38593  -0.38481  -0.38452  -0.38163
 Alpha  occ. eigenvalues --   -0.37915  -0.37852  -0.37617  -0.37051  -0.36593
 Alpha  occ. eigenvalues --   -0.35671  -0.35132  -0.34875  -0.34731  -0.34484
 Alpha  occ. eigenvalues --   -0.33529  -0.32919  -0.32315  -0.31690  -0.31049
 Alpha  occ. eigenvalues --   -0.30891  -0.30869  -0.28652  -0.28119  -0.27579
 Alpha  occ. eigenvalues --   -0.27419  -0.26866  -0.26289  -0.26240  -0.25772
 Alpha  occ. eigenvalues --   -0.23917  -0.23578  -0.23194  -0.22152  -0.18767
 Alpha virt. eigenvalues --   -0.10696  -0.07349  -0.06560  -0.02346  -0.01222
 Alpha virt. eigenvalues --   -0.00317   0.00028   0.00199   0.01454   0.02941
 Alpha virt. eigenvalues --    0.03078   0.03390   0.03904   0.04086   0.04675

 Mulliken charges:
               1
     1  O   -0.214733
     2  O   -0.159880
     3  O   -0.277126
     4  O   -0.170483
     5  O   -0.318980
     6  O   -0.243699
     7  N   -0.072067
     8  N   -0.186595
     9  N    0.021740
    10  N   -0.281579
    11  C    0.091120
    12  C    0.128053
    13  C   -0.079140
    14  C   -0.087199
    15  C   -0.057413
    16  C    0.051082
    17  C   -0.219889
    18  C    0.022758
    19  C   -0.068157
    20  C   -0.063460
    21  C    0.077339
    22  C    0.126434
    23  C   -0.113158
    24  C   -0.077079
    25  C    0.045285
    26  C   -0.123941
    27  C   -0.135159
    28  C    0.087726
    29  C    0.115426
    30  C   -0.047402
    31  C   -0.033218
    32  C    0.020377
    33  C   -0.067222
    34  C    0.191146
    35  C    0.039095
    36  C   -0.094795
    37  C    0.182839
    38  C    0.054396
    39  C   -0.223370
    40  C    0.149094
    41  C   -0.010259
    42  C    0.280162
    43  C   -0.087387
    44  H    0.041813
    45  H    0.003325
    46  H    0.007176
    47  H    0.132968
    48  H    0.127291
    49  H    0.032517
    50  H    0.055171
    51  H   -0.010849
    52  H    0.045637
    53  H    0.064214
    54  H    0.047829
    55  H    0.057961
    56  H    0.102216
    57  H    0.063256
    58  H    0.109672
    59  H    0.028585
    60  H    0.141333
    61  H    0.033479
    62  H    0.011339
    63  H    0.062488
    64  H    0.041972
    65  H    0.056109
    66  H    0.033077
    67  H    0.034673
    68  H    0.074937
    69  H   -0.044747
    70  H    0.004425
    71  H    0.060296
    72  H    0.197607
    73  H   -0.025448
    74  H    0.008554
    75  H   -0.054162
    76  H   -0.005606
    77  H    0.205518
    78  H    0.054506
    79  H    0.030186
 Sum of Mulliken charges =   0.00000

 Dipole moment (field-independent basis, Debye):
    X=             -0.0051    Y=              1.3402    Z=              2.7532  Tot=              3.0620
 Quadrupole moment (field-independent basis, Debye-Ang):
   XX=           -221.8142   YY=           -248.8504   ZZ=           -269.9825
   XY=             -5.9362   XZ=             34.7601   YZ=              2.3677

 Normal termination of Gaussian 09 at Mon Jul  8 09:56:31 2019.
