 Gaussian 09, Revision D.01,
 Gaussian 09:  ES64L-G09RevD.01 24-Apr-2013

 --------------------------
 # td=(NStates=1) B3LYP/SVP
 --------------------------

 --
 TD
 --
 Symbolic Z-matrix:
 Charge =  0 Multiplicity = 1

                         Standard orientation:
 ---------------------------------------------------------------------
 Center     Atomic      Atomic             Coordinates (Angstroms)
 Number     Number       Type             X           Y           Z
 ---------------------------------------------------------------------
      1          8           0        5.270095    0.014841   -3.324516
      2          8           0       -2.721247   -3.314366    3.379695
      3          8           0       -3.149907   -1.043360    3.112482
      4          8           0       -1.436185    7.157681    1.700010
      5          8           0       -0.448820    6.965638   -0.329706
      6          8           0       -1.998191   -4.018263   -0.236997
      7          7           0        2.260015    0.902721    0.523917
      8          7           0        4.368167   -0.729494   -1.357779
      9          7           0       -1.884423    0.769580   -0.291582
     10          7           0       -2.719432   -1.792500   -0.617750
     11          6           0        4.839238   -1.321762   -0.055423
     12          6           0        4.395681   -0.463353    1.188722
     13          6           0        2.958103   -0.018650    1.298187
     14          6           0        2.021171   -0.734354    2.067208
     15          6           0        0.739874   -0.187412    1.641627
     16          6           0        0.965425    0.910313    0.744698
     17          6           0        6.287067   -1.365082   -0.224370
     18          6           0       -0.520043   -0.453470    2.495326
     19          6           0        6.651681   -0.842729   -1.432171
     20          6           0        0.241479    1.935103    0.221038
     21          6           0       -1.041832    1.821355   -0.240604
     22          6           0        5.451359   -0.442967   -2.183879
     23          6           0       -1.842691    2.936347   -0.729305
     24          6           0        2.227144   -1.927468    2.990951
     25          6           0        7.283182   -1.968596    0.837366
     26          6           0       -3.060622    2.460386   -1.218761
     27          6           0       -1.056727   -1.944462    2.526774
     28          6           0       -3.094846    1.095031   -0.947656
     29          6           0       -1.464184    4.347540   -0.754108
     30          6           0        8.007156   -0.828724   -2.106347
     31          6           0       -1.624488    5.114263    0.574230
     32          6           0       -4.196219    3.223380   -1.781782
     33          6           0       -4.002048    0.029425   -1.307173
     34          6           0       -2.375877   -1.973836    3.029219
     35          6           0       -3.876070   -1.286308   -1.060249
     36          6           0        9.134961   -0.756798   -1.484401
     37          6           0       -1.082128    6.454657    0.574865
     38          6           0       -4.829064   -2.335419   -1.436781
     39          6           0       -4.199439   -3.481318   -1.176412
     40          6           0       -2.871239   -3.206669   -0.545883
     41          6           0       -6.188615   -2.063535   -2.073774
     42          6           0       -4.633582   -4.964986   -1.285478
     43          6           0       -7.061871   -2.990120   -2.616612
     44          1           0        4.375350   -2.255210   -0.046448
     45          1           0        5.005592    0.378058    1.052528
     46          1           0        4.754424   -0.896457    2.191019
     47          1           0        2.797972    1.495137   -0.257226
     48          1           0        3.512095   -0.685694   -1.798843
     49          1           0       -0.159997   -0.007379    3.475835
     50          1           0       -1.241595    0.197454    2.270661
     51          1           0        0.687890    2.856020   -0.002343
     52          1           0        3.398995   -2.244245    2.748919
     53          1           0        2.159209   -1.249518    4.178519
     54          1           0        1.585186   -2.926407    2.858958
     55          1           0        6.663291   -2.643042    1.358471
     56          1           0        7.613226   -1.397100    1.555955
     57          1           0        8.110734   -2.488597    0.330625
     58          1           0       -1.085841   -2.529923    1.708286
     59          1           0       -0.343177   -2.468613    3.045458
     60          1           0       -1.748709   -0.247466   -0.218946
     61          1           0       -2.107688    4.821173   -1.340162
     62          1           0       -0.318678    4.386905   -1.054944
     63          1           0        7.831256   -0.704362   -3.101058
     64          1           0       -1.043835    4.249111    1.243000
     65          1           0       -2.720236    5.142010    0.876823
     66          1           0       -3.956605    4.299393   -2.251863
     67          1           0       -5.113569    3.415366   -1.143217
     68          1           0       -4.541966    2.428311   -2.571205
     69          1           0       -5.007850    0.507215   -1.633826
     70          1           0        9.250676   -0.882059   -0.378489
     71          1           0       10.004752   -0.390370   -2.197729
     72          1           0       -3.487031   -3.302851    3.932268
     73          1           0       -6.438895   -0.956744   -2.100041
     74          1           0       -4.608715   -5.182522   -2.326557
     75          1           0       -3.958501   -5.445238   -0.666188
     76          1           0       -5.716456   -5.090171   -0.977388
     77          1           0       -0.939767    7.937280    1.582151
     78          1           0       -7.721973   -2.698328   -3.090451
     79          1           0       -6.877409   -4.189349   -2.632194
 ---------------------------------------------------------------------

 SCF Done:  E(RB3LYP) =  -1947.77421899     A.U. after   18 cycles

 Excitation energies and oscillator strengths:

 Excited State   1:      Singlet-A      2.0005 eV  619.76 nm  f=0.4007  <S**2>=0.000
     154 ->156         0.21112
     155 ->156         0.67127
     155 <-156        -0.12548
 This state for optimization and/or second-order correction.
 Total Energy, E(TD-HF/TD-KS) =  -1947.70070134
 Copying the excited state density for this state as the 1-particle RhoCI density.

 The electronic state is 1-A.
 Alpha  occ. eigenvalues --  -19.18706 -19.15294 -19.14053 -19.12031 -19.10250
 Alpha  occ. eigenvalues --  -19.09969 -14.39793 -14.35841 -14.35006 -14.28017
 Alpha  occ. eigenvalues --  -10.33119 -10.30709 -10.28520 -10.25928 -10.25651
 Alpha  occ. eigenvalues --  -10.24862 -10.24681 -10.24132 -10.24029 -10.23079
 Alpha  occ. eigenvalues --  -10.22914 -10.22825 -10.22740 -10.22118 -10.21992
 Alpha  occ. eigenvalues --  -10.21590 -10.21299 -10.21078 -10.20944 -10.20641
 Alpha  occ. eigenvalues --  -10.20592 -10.20564 -10.20510 -10.20183 -10.20151
 Alpha  occ. eigenvalues --  -10.19653 -10.19434 -10.19212 -10.18995 -10.18640
 Alpha  occ. eigenvalues --  -10.18561 -10.17626 -10.17514  -1.10911  -1.06274
 Alpha  occ. eigenvalues --   -1.01734  -1.01650  -1.00277  -1.00157  -0.98879
 Alpha  occ. eigenvalues --   -0.98277  -0.93578  -0.91581  -0.83791  -0.83181
 Alpha  occ. eigenvalues --   -0.82802  -0.81304  -0.80319  -0.79139  -0.78780
 Alpha  occ. eigenvalues --   -0.78006  -0.77164  -0.76318  -0.74479  -0.73528
 Alpha  occ. eigenvalues --   -0.73072  -0.71679  -0.69924  -0.69353  -0.69075
 Alpha  occ. eigenvalues --   -0.67635  -0.67388  -0.64721  -0.61135  -0.60911
 Alpha  occ. eigenvalues --   -0.60288  -0.59547  -0.58966  -0.58179  -0.57272
 Alpha  occ. eigenvalues --   -0.56364  -0.55583  -0.55055  -0.54440  -0.53372
 Alpha  occ. eigenvalues --   -0.52564  -0.51726  -0.51686  -0.51178  -0.50866
 Alpha  occ. eigenvalues --   -0.50571  -0.49470  -0.49056  -0.48303  -0.47848
 Alpha  occ. eigenvalues --   -0.47530  -0.47272  -0.46411  -0.46058  -0.45812
 Alpha  occ. eigenvalues --   -0.45548  -0.44895  -0.44765  -0.44514  -0.44043
 Alpha  occ. eigenvalues --   -0.43665  -0.43574  -0.43364  -0.43074  -0.42704
 Alpha  occ. eigenvalues --   -0.42126  -0.42057  -0.41851  -0.41746  -0.41178
 Alpha  occ. eigenvalues --   -0.41061  -0.40835  -0.40621  -0.40501  -0.39737
 Alpha  occ. eigenvalues --   -0.39247  -0.39168  -0.39091  -0.38984  -0.38764
 Alpha  occ. eigenvalues --   -0.38314  -0.38137  -0.37798  -0.37448  -0.37337
 Alpha  occ. eigenvalues --   -0.36566  -0.35412  -0.35137  -0.34931  -0.34780
 Alpha  occ. eigenvalues --   -0.34372  -0.33975  -0.33468  -0.32715  -0.32236
 Alpha  occ. eigenvalues --   -0.30925  -0.30762  -0.29616  -0.28623  -0.27366
 Alpha  occ. eigenvalues --   -0.27148  -0.26406  -0.25769  -0.25597  -0.25297
 Alpha  occ. eigenvalues --   -0.24562  -0.24128  -0.23486  -0.22001  -0.19130
 Alpha virt. eigenvalues --   -0.11431  -0.06245  -0.05953  -0.02454  -0.00576
 Alpha virt. eigenvalues --    0.00561   0.00759   0.01187   0.01281   0.01950
 Alpha virt. eigenvalues --    0.02656   0.03012   0.04238   0.04627   0.05222

 Mulliken charges:
               1
     1  O   -0.252170
     2  O   -0.239292
     3  O   -0.217019
     4  O   -0.164644
     5  O   -0.225747
     6  O   -0.227481
     7  N   -0.087992
     8  N   -0.221762
     9  N   -0.076105
    10  N   -0.315824
    11  C    0.185541
    12  C    0.177676
    13  C   -0.070089
    14  C   -0.106262
    15  C   -0.124825
    16  C    0.156883
    17  C   -0.212283
    18  C    0.120880
    19  C   -0.088075
    20  C   -0.132597
    21  C    0.109030
    22  C    0.137330
    23  C   -0.119464
    24  C   -0.066091
    25  C    0.176654
    26  C   -0.055536
    27  C    0.164245
    28  C    0.038005
    29  C    0.160259
    30  C    0.075219
    31  C   -0.088771
    32  C   -0.025528
    33  C   -0.124315
    34  C    0.133459
    35  C    0.135341
    36  C   -0.044096
    37  C    0.162740
    38  C    0.052584
    39  C   -0.272179
    40  C    0.182022
    41  C   -0.033353
    42  C    0.147162
    43  C    0.102385
    44  H    0.001011
    45  H   -0.041421
    46  H    0.028176
    47  H    0.164649
    48  H    0.103246
    49  H    0.016545
    50  H   -0.037845
    51  H   -0.041845
    52  H    0.030659
    53  H    0.062089
    54  H    0.098496
    55  H   -0.011332
    56  H   -0.005717
    57  H    0.045514
    58  H    0.005970
    59  H   -0.023490
    60  H    0.139055
    61  H   -0.056195
    62  H    0.044726
    63  H   -0.026868
    64  H    0.075632
    65  H    0.057208
    66  H    0.048538
    67  H    0.050748
    68  H    0.046839
    69  H    0.000157
    70  H    0.032666
    71  H    0.050127
    72  H    0.162036
    73  H    0.004785
    74  H    0.020003
    75  H    0.012833
    76  H    0.025859
    77  H    0.153971
    78  H   -0.106740
    79  H    0.043997
 Sum of Mulliken charges =   0.00000

 Dipole moment (field-independent basis, Debye):
    X=              2.5325    Y=              2.5709    Z=              4.1268  Tot=              5.4821
 Quadrupole moment (field-independent basis, Debye-Ang):
   XX=           -219.8212   YY=           -252.7558   ZZ=           -262.6370
   XY=            -15.2732   XZ=             31.6772   YZ=              1.4140

 Normal termination of Gaussian 09 at Wed Jul 10 15:51:29 2019.
