 Gaussian 09, Revision D.01,
 Gaussian 09:  ES64L-G09RevD.01 24-Apr-2013

 --------------------------
 # td=(NStates=1) B3LYP/SVP
 --------------------------

 --
 TD
 --
 Symbolic Z-matrix:
 Charge =  0 Multiplicity = 1

                         Standard orientation:
 ---------------------------------------------------------------------
 Center     Atomic      Atomic             Coordinates (Angstroms)
 Number     Number       Type             X           Y           Z
 ---------------------------------------------------------------------
      1          8           0        5.361221   -0.128222   -3.322000
      2          8           0       -2.738742   -2.983324    3.390256
      3          8           0       -3.303059   -0.823289    3.172449
      4          8           0       -1.912097    7.135648    1.242599
      5          8           0       -0.618912    6.876973   -0.598467
      6          8           0       -1.700602   -4.041951   -0.063036
      7          7           0        2.384675    1.053464    0.592666
      8          7           0        4.428540   -0.540061   -1.324253
      9          7           0       -1.972394    0.668092   -0.158381
     10          7           0       -2.617084   -1.940434   -0.388959
     11          6           0        4.802038   -1.045568   -0.015836
     12          6           0        4.400658   -0.176135    1.217682
     13          6           0        2.931387    0.164910    1.361804
     14          6           0        2.001777   -0.526370    2.184895
     15          6           0        0.797087    0.152982    1.833684
     16          6           0        1.047083    1.115227    0.924850
     17          6           0        6.336203   -1.279918   -0.202215
     18          6           0       -0.571060   -0.168514    2.535899
     19          6           0        6.660395   -0.817714   -1.502505
     20          6           0        0.105578    1.996676    0.245811
     21          6           0       -1.216606    1.795738   -0.203196
     22          6           0        5.419063   -0.421576   -2.167362
     23          6           0       -2.044154    2.809811   -0.811924
     24          6           0        2.297394   -1.550133    3.158922
     25          6           0        7.229992   -1.719184    0.898909
     26          6           0       -3.219035    2.132342   -1.285732
     27          6           0       -1.040190   -1.642924    2.557277
     28          6           0       -3.166803    0.810551   -0.830929
     29          6           0       -1.628903    4.282089   -0.965316
     30          6           0        8.039846   -0.778361   -2.036436
     31          6           0       -2.004627    5.020560    0.215006
     32          6           0       -4.386636    2.818421   -2.037248
     33          6           0       -4.065670   -0.158541   -1.148567
     34          6           0       -2.503874   -1.668238    3.045249
     35          6           0       -3.710609   -1.541270   -0.967896
     36          6           0        9.213306   -0.941377   -1.405278
     37          6           0       -1.383692    6.418991    0.296216
     38          6           0       -4.627038   -2.604114   -1.422517
     39          6           0       -4.001732   -3.815141   -1.065998
     40          6           0       -2.605037   -3.250827   -0.488602
     41          6           0       -5.834720   -2.425020   -2.109171
     42          6           0       -4.349233   -5.316175   -1.216446
     43          6           0       -6.514234   -3.404790   -2.787338
     44          1           0        4.379671   -2.129931    0.073800
     45          1           0        4.904157    0.886855    0.921222
     46          1           0        4.892848   -0.549165    2.123310
     47          1           0        2.855266    1.469427   -0.295777
     48          1           0        3.357260   -0.596070   -1.404658
     49          1           0       -0.448521    0.118360    3.468825
     50          1           0       -1.311718    0.351156    2.115648
     51          1           0        0.552062    3.070930    0.234275
     52          1           0        3.264241   -1.695098    3.399031
     53          1           0        1.725823   -1.353155    4.201012
     54          1           0        2.098734   -2.612688    2.945312
     55          1           0        6.893126   -2.496784    1.599593
     56          1           0        7.795590   -0.711264    1.295944
     57          1           0        7.965080   -2.455815    0.455720
     58          1           0       -1.167447   -2.036172    1.569141
     59          1           0       -0.249369   -2.352009    3.163319
     60          1           0       -1.765207   -0.314118    0.046697
     61          1           0       -1.990840    4.539765   -2.036682
     62          1           0       -0.454377    4.406217   -0.987696
     63          1           0        7.962461   -0.443446   -3.106805
     64          1           0       -1.438558    4.513399    1.068758
     65          1           0       -3.106845    5.175424    0.580422
     66          1           0       -4.087467    3.716114   -2.414058
     67          1           0       -5.223359    3.166128   -1.179806
     68          1           0       -4.803243    2.239678   -2.763054
     69          1           0       -4.920958    0.181863   -1.608668
     70          1           0        9.468595   -0.946628   -0.518140
     71          1           0       10.122987   -0.764499   -2.132822
     72          1           0       -3.613087   -3.206902    3.783757
     73          1           0       -6.219036   -1.353804   -2.120817
     74          1           0       -4.060813   -5.506647   -2.383315
     75          1           0       -3.590012   -5.879094   -0.677486
     76          1           0       -5.427736   -5.386992   -1.045709
     77          1           0       -1.506362    7.975004    1.233724
     78          1           0       -7.526326   -3.139703   -3.253784
     79          1           0       -6.042994   -4.452894   -2.806314
 ---------------------------------------------------------------------

 SCF Done:  E(RB3LYP) =  -1947.83934413     A.U. after   17 cycles

 Excitation energies and oscillator strengths:

 Excited State   1:      Singlet-A      2.1707 eV  571.16 nm  f=0.4974  <S**2>=0.000
     152 ->156         0.11348
     154 ->156         0.11548
     155 ->156         0.68676
     155 <-156        -0.11264
 This state for optimization and/or second-order correction.
 Total Energy, E(TD-HF/TD-KS) =  -1947.75957065
 Copying the excited state density for this state as the 1-particle RhoCI density.

 The electronic state is 1-A.
 Alpha  occ. eigenvalues --  -19.20621 -19.15132 -19.12863 -19.12072 -19.09589
 Alpha  occ. eigenvalues --  -19.08659 -14.39550 -14.36350 -14.36241 -14.29897
 Alpha  occ. eigenvalues --  -10.33105 -10.30592 -10.27813 -10.26628 -10.25610
 Alpha  occ. eigenvalues --  -10.24877 -10.24057 -10.23938 -10.23142 -10.23091
 Alpha  occ. eigenvalues --  -10.23051 -10.22656 -10.22532 -10.22357 -10.22348
 Alpha  occ. eigenvalues --  -10.22195 -10.21832 -10.21075 -10.20878 -10.20758
 Alpha  occ. eigenvalues --  -10.20598 -10.20548 -10.20231 -10.20189 -10.20157
 Alpha  occ. eigenvalues --  -10.19528 -10.19343 -10.19218 -10.18933 -10.18900
 Alpha  occ. eigenvalues --  -10.18694 -10.18652 -10.16969  -1.13107  -1.07904
 Alpha  occ. eigenvalues --   -1.03763  -1.01110  -0.99715  -0.99630  -0.99430
 Alpha  occ. eigenvalues --   -0.98767  -0.95158  -0.93353  -0.83157  -0.82204
 Alpha  occ. eigenvalues --   -0.81690  -0.81252  -0.80867  -0.79955  -0.78474
 Alpha  occ. eigenvalues --   -0.77032  -0.76488  -0.75212  -0.73935  -0.73058
 Alpha  occ. eigenvalues --   -0.71837  -0.71831  -0.70227  -0.69833  -0.69142
 Alpha  occ. eigenvalues --   -0.67145  -0.66554  -0.64189  -0.62758  -0.61966
 Alpha  occ. eigenvalues --   -0.60510  -0.59578  -0.58684  -0.58155  -0.56994
 Alpha  occ. eigenvalues --   -0.56193  -0.55836  -0.55619  -0.55387  -0.54032
 Alpha  occ. eigenvalues --   -0.52193  -0.51541  -0.50834  -0.50507  -0.50221
 Alpha  occ. eigenvalues --   -0.49779  -0.49221  -0.48361  -0.47853  -0.47669
 Alpha  occ. eigenvalues --   -0.47378  -0.46988  -0.46491  -0.46205  -0.45721
 Alpha  occ. eigenvalues --   -0.45507  -0.45210  -0.44693  -0.44364  -0.43965
 Alpha  occ. eigenvalues --   -0.43665  -0.43437  -0.43206  -0.42797  -0.42645
 Alpha  occ. eigenvalues --   -0.42374  -0.42011  -0.41983  -0.41656  -0.41167
 Alpha  occ. eigenvalues --   -0.40993  -0.40639  -0.40306  -0.40218  -0.39837
 Alpha  occ. eigenvalues --   -0.39687  -0.39503  -0.39109  -0.39052  -0.38808
 Alpha  occ. eigenvalues --   -0.38029  -0.37634  -0.37337  -0.36821  -0.36717
 Alpha  occ. eigenvalues --   -0.36333  -0.35526  -0.34944  -0.34485  -0.33882
 Alpha  occ. eigenvalues --   -0.33445  -0.33290  -0.32636  -0.32031  -0.31370
 Alpha  occ. eigenvalues --   -0.31294  -0.31020  -0.28785  -0.28300  -0.28091
 Alpha  occ. eigenvalues --   -0.27291  -0.26788  -0.25698  -0.25526  -0.25085
 Alpha  occ. eigenvalues --   -0.23802  -0.23477  -0.23428  -0.21976  -0.19492
 Alpha virt. eigenvalues --   -0.11213  -0.06419  -0.06022  -0.01234  -0.00962
 Alpha virt. eigenvalues --    0.00974   0.01531   0.02191   0.02575   0.02863
 Alpha virt. eigenvalues --    0.03257   0.04290   0.04419   0.04627   0.05364

 Mulliken charges:
               1
     1  O   -0.202770
     2  O   -0.236148
     3  O   -0.173070
     4  O   -0.096297
     5  O   -0.282198
     6  O   -0.268141
     7  N   -0.034860
     8  N   -0.163521
     9  N   -0.058438
    10  N   -0.175571
    11  C    0.053737
    12  C    0.128519
    13  C   -0.122673
    14  C   -0.080495
    15  C   -0.126619
    16  C    0.027527
    17  C   -0.191555
    18  C    0.245316
    19  C   -0.078787
    20  C   -0.141539
    21  C    0.137712
    22  C    0.116635
    23  C   -0.107678
    24  C    0.106567
    25  C    0.031058
    26  C   -0.180431
    27  C   -0.069808
    28  C    0.125077
    29  C    0.067601
    30  C    0.010917
    31  C   -0.018073
    32  C    0.157890
    33  C   -0.099778
    34  C    0.135087
    35  C    0.116145
    36  C    0.039717
    37  C    0.112747
    38  C    0.032948
    39  C   -0.232555
    40  C    0.131707
    41  C   -0.054579
    42  C    0.079341
    43  C   -0.057737
    44  H    0.034481
    45  H    0.007573
    46  H    0.017695
    47  H    0.159217
    48  H    0.156886
    49  H   -0.041676
    50  H   -0.048899
    51  H    0.026239
    52  H   -0.054374
    53  H    0.029819
    54  H    0.026295
    55  H    0.018933
    56  H    0.082116
    57  H    0.038078
    58  H    0.054713
    59  H    0.056774
    60  H    0.142876
    61  H    0.048044
    62  H    0.040502
    63  H    0.021855
    64  H    0.044444
    65  H    0.062345
    66  H   -0.022130
    67  H    0.043917
    68  H    0.008562
    69  H   -0.072885
    70  H   -0.077141
    71  H    0.036236
    72  H    0.178033
    73  H    0.000451
    74  H    0.057169
    75  H    0.039280
    76  H    0.050215
    77  H    0.163943
    78  H    0.038686
    79  H    0.028802
 Sum of Mulliken charges =   0.00000

 Dipole moment (field-independent basis, Debye):
    X=             -0.2899    Y=              2.8529    Z=              4.0555  Tot=              4.9669
 Quadrupole moment (field-independent basis, Debye-Ang):
   XX=           -226.8573   YY=           -243.0650   ZZ=           -263.5739
   XY=            -11.6030   XZ=             35.4321   YZ=              4.8715

 Normal termination of Gaussian 09 at Sun Jul  7 21:11:28 2019.
