 Gaussian 09, Revision D.01,
 Gaussian 09:  ES64L-G09RevD.01 24-Apr-2013

 --------------------------
 # td=(NStates=1) B3LYP/SVP
 --------------------------

 --
 TD
 --
 Symbolic Z-matrix:
 Charge =  0 Multiplicity = 1

                         Standard orientation:
 ---------------------------------------------------------------------
 Center     Atomic      Atomic             Coordinates (Angstroms)
 Number     Number       Type             X           Y           Z
 ---------------------------------------------------------------------
      1          8           0        5.154663   -0.326621   -3.369670
      2          8           0       -3.015596   -3.063471    3.020774
      3          8           0       -3.156518   -0.753160    3.374315
      4          8           0       -1.181129    7.171521    1.488793
      5          8           0       -0.572221    7.017205   -0.697758
      6          8           0       -1.985436   -3.895855   -0.049962
      7          7           0        2.373382    0.725192    0.440311
      8          7           0        4.260456   -0.805615   -1.261299
      9          7           0       -1.972267    0.673081   -0.197800
     10          7           0       -2.693621   -1.785710   -0.348314
     11          6           0        4.810416   -1.333724   -0.069599
     12          6           0        4.524401   -0.429217    1.122608
     13          6           0        3.056783   -0.123222    1.413354
     14          6           0        2.046691   -0.654900    2.230297
     15          6           0        0.844405   -0.094883    1.900919
     16          6           0        1.044408    0.784746    0.805541
     17          6           0        6.310875   -1.439676   -0.241371
     18          6           0       -0.507238   -0.333315    2.581129
     19          6           0        6.561314   -0.966423   -1.522374
     20          6           0        0.162641    1.721373    0.179093
     21          6           0       -1.151223    1.823271   -0.122486
     22          6           0        5.281640   -0.682115   -2.166099
     23          6           0       -1.909595    2.868832   -0.809939
     24          6           0        2.257482   -1.643291    3.156050
     25          6           0        7.276308   -1.710890    0.960639
     26          6           0       -3.080891    2.381025   -1.191736
     27          6           0       -1.062205   -1.780566    2.475929
     28          6           0       -3.077354    0.958959   -0.904386
     29          6           0       -1.507681    4.327564   -0.841856
     30          6           0        7.841148   -0.759188   -2.194719
     31          6           0       -1.625725    5.093388    0.471932
     32          6           0       -4.210867    3.118926   -1.782916
     33          6           0       -4.027264    0.021826   -1.231715
     34          6           0       -2.543453   -1.710867    3.040752
     35          6           0       -3.819100   -1.323036   -1.081504
     36          6           0        9.075346   -0.715167   -1.637814
     37          6           0       -1.012496    6.561033    0.400407
     38          6           0       -4.715226   -2.426813   -1.485501
     39          6           0       -4.060515   -3.616982   -1.240511
     40          6           0       -2.816529   -3.162567   -0.473516
     41          6           0       -5.971960   -2.137311   -2.143655
     42          6           0       -4.545749   -5.026940   -1.273927
     43          6           0       -6.763013   -3.073508   -2.643799
     44          1           0        4.708620   -2.233607    0.372063
     45          1           0        5.030067    0.538525    0.880958
     46          1           0        4.935270   -0.888615    1.955749
     47          1           0        2.633954    1.479972   -0.254086
     48          1           0        3.263434   -0.934974   -1.510059
     49          1           0       -0.443596   -0.227540    3.774682
     50          1           0       -1.222764    0.287966    2.226869
     51          1           0        0.839219    2.670339    0.068124
     52          1           0        3.347669   -1.871578    3.550238
     53          1           0        2.074637   -1.422952    4.402763
     54          1           0        1.756220   -2.583575    2.960310
     55          1           0        6.498512   -2.166485    1.959564
     56          1           0        7.570657   -0.777735    1.132372
     57          1           0        7.989778   -2.635891    0.667852
     58          1           0       -1.112140   -2.223514    1.545171
     59          1           0       -0.504347   -2.749612    2.998268
     60          1           0       -1.500206   -0.273600   -0.129517
     61          1           0       -2.025255    4.841027   -1.745220
     62          1           0       -0.382440    4.251145   -0.836538
     63          1           0        7.805629   -0.659070   -3.287424
     64          1           0       -0.992386    4.517132    1.106231
     65          1           0       -2.674232    5.125306    0.678925
     66          1           0       -4.090069    4.192868   -1.890073
     67          1           0       -5.244025    2.852398   -1.334111
     68          1           0       -4.483858    2.622855   -2.814199
     69          1           0       -5.036365    0.265719   -1.807395
     70          1           0        9.207515   -0.699656   -0.507057
     71          1           0        9.823209   -0.426839   -2.079629
     72          1           0       -4.025215   -3.007024    3.524504
     73          1           0       -6.404077   -1.083916   -2.024946
     74          1           0       -4.208713   -5.259517   -2.404977
     75          1           0       -4.065868   -5.565947   -0.308025
     76          1           0       -5.664021   -5.151924   -1.051225
     77          1           0       -0.854076    8.079335    1.300033
     78          1           0       -7.688357   -2.729138   -2.981037
     79          1           0       -6.702765   -4.095500   -2.776717
 ---------------------------------------------------------------------

 SCF Done:  E(RB3LYP) =  -1947.76661316     A.U. after   18 cycles

 Excitation energies and oscillator strengths:

 Excited State   1:      Singlet-A      2.1877 eV  566.73 nm  f=0.3772  <S**2>=0.000
     154 ->156         0.14582
     155 ->156         0.68363
 This state for optimization and/or second-order correction.
 Total Energy, E(TD-HF/TD-KS) =  -1947.68621640
 Copying the excited state density for this state as the 1-particle RhoCI density.

 The electronic state is 1-A.
 Alpha  occ. eigenvalues --  -19.22377 -19.16298 -19.13016 -19.12773 -19.08979
 Alpha  occ. eigenvalues --  -19.08969 -14.38589 -14.36637 -14.36424 -14.28073
 Alpha  occ. eigenvalues --  -10.33587 -10.30678 -10.28261 -10.24952 -10.24789
 Alpha  occ. eigenvalues --  -10.24466 -10.24218 -10.23873 -10.23655 -10.23026
 Alpha  occ. eigenvalues --  -10.22866 -10.22682 -10.22448 -10.21459 -10.21130
 Alpha  occ. eigenvalues --  -10.21130 -10.21073 -10.21053 -10.20977 -10.20624
 Alpha  occ. eigenvalues --  -10.20508 -10.20455 -10.20279 -10.20178 -10.19645
 Alpha  occ. eigenvalues --  -10.19520 -10.19265 -10.19071 -10.19034 -10.18944
 Alpha  occ. eigenvalues --  -10.18827 -10.18206 -10.18109  -1.15017  -1.06216
 Alpha  occ. eigenvalues --   -1.02028  -1.00918  -0.99619  -0.98941  -0.97297
 Alpha  occ. eigenvalues --   -0.97131  -0.94279  -0.89843  -0.83466  -0.82865
 Alpha  occ. eigenvalues --   -0.82377  -0.81799  -0.80262  -0.80023  -0.78350
 Alpha  occ. eigenvalues --   -0.77449  -0.75852  -0.75404  -0.74731  -0.72536
 Alpha  occ. eigenvalues --   -0.72037  -0.71354  -0.69961  -0.69213  -0.68957
 Alpha  occ. eigenvalues --   -0.66363  -0.65159  -0.63594  -0.62369  -0.61904
 Alpha  occ. eigenvalues --   -0.60276  -0.59057  -0.57442  -0.57394  -0.56827
 Alpha  occ. eigenvalues --   -0.56140  -0.54789  -0.54658  -0.54013  -0.53137
 Alpha  occ. eigenvalues --   -0.52877  -0.51838  -0.51536  -0.51430  -0.50570
 Alpha  occ. eigenvalues --   -0.49576  -0.48931  -0.48640  -0.48149  -0.47599
 Alpha  occ. eigenvalues --   -0.47147  -0.47030  -0.46478  -0.46376  -0.45764
 Alpha  occ. eigenvalues --   -0.45644  -0.45244  -0.44989  -0.44542  -0.44263
 Alpha  occ. eigenvalues --   -0.43760  -0.43388  -0.43227  -0.42928  -0.42565
 Alpha  occ. eigenvalues --   -0.42154  -0.41721  -0.41538  -0.41342  -0.40566
 Alpha  occ. eigenvalues --   -0.40362  -0.40187  -0.39949  -0.39438  -0.39421
 Alpha  occ. eigenvalues --   -0.39141  -0.38861  -0.38567  -0.38346  -0.38045
 Alpha  occ. eigenvalues --   -0.37792  -0.37092  -0.36914  -0.36581  -0.36409
 Alpha  occ. eigenvalues --   -0.35782  -0.35662  -0.35084  -0.34467  -0.33653
 Alpha  occ. eigenvalues --   -0.33558  -0.32896  -0.32713  -0.31935  -0.31581
 Alpha  occ. eigenvalues --   -0.31393  -0.30382  -0.28409  -0.28210  -0.27451
 Alpha  occ. eigenvalues --   -0.26885  -0.26723  -0.26491  -0.25123  -0.24562
 Alpha  occ. eigenvalues --   -0.24078  -0.23405  -0.23110  -0.21642  -0.19299
 Alpha virt. eigenvalues --   -0.10427  -0.06175  -0.05725  -0.01209  -0.00818
 Alpha virt. eigenvalues --    0.00273   0.00534   0.01257   0.01672   0.02663
 Alpha virt. eigenvalues --    0.02710   0.03081   0.03666   0.04203   0.04718

 Mulliken charges:
               1
     1  O   -0.269896
     2  O   -0.309673
     3  O   -0.190665
     4  O   -0.071481
     5  O   -0.287641
     6  O   -0.177054
     7  N   -0.148861
     8  N   -0.137860
     9  N   -0.088715
    10  N   -0.325210
    11  C    0.170990
    12  C    0.219358
    13  C   -0.052852
    14  C   -0.002811
    15  C   -0.061263
    16  C   -0.000674
    17  C   -0.216059
    18  C    0.150424
    19  C   -0.027957
    20  C   -0.092666
    21  C    0.085528
    22  C    0.140306
    23  C   -0.093531
    24  C   -0.064517
    25  C    0.034686
    26  C   -0.076276
    27  C   -0.054666
    28  C    0.153153
    29  C    0.044881
    30  C   -0.021123
    31  C    0.036031
    32  C    0.075738
    33  C   -0.174171
    34  C    0.184754
    35  C    0.071353
    36  C    0.059567
    37  C    0.114523
    38  C    0.067589
    39  C   -0.192835
    40  C    0.124127
    41  C   -0.039490
    42  C   -0.007753
    43  C    0.015979
    44  H   -0.041065
    45  H   -0.014723
    46  H   -0.047763
    47  H    0.141785
    48  H    0.151133
    49  H    0.024082
    50  H   -0.019842
    51  H    0.017062
    52  H    0.008052
    53  H    0.019465
    54  H    0.042064
    55  H    0.044243
    56  H    0.041035
    57  H    0.090858
    58  H    0.021039
    59  H    0.045882
    60  H    0.179919
    61  H    0.045407
    62  H    0.001997
    63  H    0.013298
    64  H    0.022812
    65  H    0.030393
    66  H    0.023712
    67  H    0.029918
    68  H    0.028924
    69  H   -0.000633
    70  H    0.007290
    71  H   -0.061370
    72  H    0.218758
    73  H    0.018300
    74  H    0.070041
    75  H    0.065091
    76  H    0.044097
    77  H    0.188186
    78  H   -0.005294
    79  H   -0.007440
 Sum of Mulliken charges =   0.00000

 Dipole moment (field-independent basis, Debye):
    X=             -0.2747    Y=              3.1602    Z=              3.9149  Tot=              5.0388
 Quadrupole moment (field-independent basis, Debye-Ang):
   XX=           -215.7990   YY=           -238.2374   ZZ=           -268.6581
   XY=             -8.5134   XZ=             34.3083   YZ=              7.8779

 Normal termination of Gaussian 09 at Tue Jul  9 02:11:16 2019.
