 Gaussian 09, Revision D.01,
 Gaussian 09:  ES64L-G09RevD.01 24-Apr-2013

 --------------------------
 # td=(NStates=1) B3LYP/SVP
 --------------------------

 --
 TD
 --
 Symbolic Z-matrix:
 Charge =  0 Multiplicity = 1

                         Standard orientation:
 ---------------------------------------------------------------------
 Center     Atomic      Atomic             Coordinates (Angstroms)
 Number     Number       Type             X           Y           Z
 ---------------------------------------------------------------------
      1          8           0        5.344534   -0.174547   -3.347960
      2          8           0       -2.931504   -3.074455    3.338580
      3          8           0       -3.261796   -0.868834    3.231374
      4          8           0       -1.309164    7.014118    1.648068
      5          8           0       -0.199627    6.877728   -0.326069
      6          8           0       -1.946613   -3.931425   -0.141283
      7          7           0        2.247759    0.846912    0.516810
      8          7           0        4.385671   -0.652949   -1.223732
      9          7           0       -2.014721    0.778897   -0.230164
     10          7           0       -2.732011   -1.708243   -0.465726
     11          6           0        4.834316   -1.245201   -0.077717
     12          6           0        4.353806   -0.341802    1.142975
     13          6           0        2.962009   -0.126199    1.200804
     14          6           0        1.962992   -0.809761    1.960519
     15          6           0        0.703576   -0.157638    1.764052
     16          6           0        0.932599    0.805445    0.781165
     17          6           0        6.251338   -1.401757   -0.156073
     18          6           0       -0.522175   -0.380877    2.495162
     19          6           0        6.672942   -0.932048   -1.331895
     20          6           0        0.183906    1.855574    0.074612
     21          6           0       -1.135142    1.804757   -0.344815
     22          6           0        5.374236   -0.533387   -2.231962
     23          6           0       -1.945937    3.036821   -0.879484
     24          6           0        2.252802   -1.878805    3.080675
     25          6           0        7.085361   -1.933585    0.902821
     26          6           0       -3.116178    2.459172   -1.127575
     27          6           0       -1.050084   -1.833214    2.548015
     28          6           0       -3.144053    1.101064   -0.849691
     29          6           0       -1.404428    4.443605   -0.929850
     30          6           0        7.924612   -0.867717   -2.047977
     31          6           0       -1.615242    5.018747    0.433812
     32          6           0       -4.216242    3.215288   -1.972459
     33          6           0       -4.071326    0.101095   -1.224983
     34          6           0       -2.459628   -1.799912    3.102782
     35          6           0       -3.860549   -1.296749   -1.059787
     36          6           0        9.110362   -0.877061   -1.426254
     37          6           0       -0.870037    6.400688    0.531474
     38          6           0       -4.726865   -2.411292   -1.462281
     39          6           0       -4.055209   -3.527751   -1.145274
     40          6           0       -2.778883   -3.111863   -0.533611
     41          6           0       -6.050713   -2.166496   -2.053136
     42          6           0       -4.512859   -5.004866   -1.253629
     43          6           0       -6.716844   -3.194263   -2.758446
     44          1           0        4.398361   -2.101450    0.270350
     45          1           0        4.765992    0.752346    0.905838
     46          1           0        4.730170   -0.695752    2.063588
     47          1           0        2.525407    1.375029   -0.357852
     48          1           0        3.449998   -0.614535   -1.550699
     49          1           0       -0.233197    0.160457    3.431382
     50          1           0       -1.326217    0.220607    2.109063
     51          1           0        0.732399    2.740209   -0.298670
     52          1           0        3.160411   -1.471138    3.714364
     53          1           0        0.914930   -1.936519    3.740911
     54          1           0        2.227677   -2.900834    2.291026
     55          1           0        6.460329   -2.686029    1.476807
     56          1           0        7.525162   -1.233437    1.779127
     57          1           0        7.951499   -2.340189    0.692692
     58          1           0       -1.205861   -2.423029    1.612342
     59          1           0       -0.520759   -2.340126    3.095747
     60          1           0       -1.861812   -0.239178   -0.058419
     61          1           0       -2.205630    5.058514   -1.320993
     62          1           0       -0.404868    4.515289   -1.472542
     63          1           0        7.930638   -0.716793   -3.189682
     64          1           0       -1.144214    4.384564    1.143832
     65          1           0       -2.693204    5.097662    0.842153
     66          1           0       -3.985092    4.120713   -2.244657
     67          1           0       -5.057639    3.515104   -1.264369
     68          1           0       -4.346019    2.497856   -2.813318
     69          1           0       -4.964764    0.478103   -1.636038
     70          1           0        9.223556   -0.883845   -0.435979
     71          1           0       10.029010   -0.795654   -1.941330
     72          1           0       -3.869962   -3.120374    3.555570
     73          1           0       -6.460387   -1.144199   -1.827354
     74          1           0       -4.448537   -5.351922   -2.351797
     75          1           0       -3.834558   -5.767067   -0.743099
     76          1           0       -5.524997   -5.148103   -0.700285
     77          1           0       -0.795344    7.914495    1.665927
     78          1           0       -7.636498   -2.840770   -3.384991
     79          1           0       -6.394281   -4.133093   -3.112457
 ---------------------------------------------------------------------

 SCF Done:  E(RB3LYP) =  -1947.78129749     A.U. after   16 cycles

 Excitation energies and oscillator strengths:

 Excited State   1:      Singlet-A      2.0811 eV  595.77 nm  f=0.4685  <S**2>=0.000
     155 ->156         0.70032
     155 <-156        -0.10433
 This state for optimization and/or second-order correction.
 Total Energy, E(TD-HF/TD-KS) =  -1947.70481965
 Copying the excited state density for this state as the 1-particle RhoCI density.

 The electronic state is 1-A.
 Alpha  occ. eigenvalues --  -19.19967 -19.15596 -19.14525 -19.12194 -19.11109
 Alpha  occ. eigenvalues --  -19.10147 -14.38139 -14.36166 -14.35607 -14.29073
 Alpha  occ. eigenvalues --  -10.33135 -10.30863 -10.29364 -10.26157 -10.24785
 Alpha  occ. eigenvalues --  -10.24238 -10.24093 -10.23495 -10.23212 -10.22375
 Alpha  occ. eigenvalues --  -10.22242 -10.22021 -10.21798 -10.21767 -10.21732
 Alpha  occ. eigenvalues --  -10.21660 -10.21171 -10.20672 -10.20628 -10.20479
 Alpha  occ. eigenvalues --  -10.20162 -10.20090 -10.20038 -10.19741 -10.19592
 Alpha  occ. eigenvalues --  -10.19547 -10.19274 -10.19231 -10.18842 -10.18741
 Alpha  occ. eigenvalues --  -10.18652 -10.18269 -10.17880  -1.10928  -1.06478
 Alpha  occ. eigenvalues --   -1.05589  -1.02723  -1.00679  -1.00094  -0.98925
 Alpha  occ. eigenvalues --   -0.97242  -0.96798  -0.92402  -0.83906  -0.83080
 Alpha  occ. eigenvalues --   -0.81982  -0.81649  -0.80192  -0.79945  -0.78434
 Alpha  occ. eigenvalues --   -0.77424  -0.76600  -0.75478  -0.73487  -0.71986
 Alpha  occ. eigenvalues --   -0.71756  -0.70946  -0.69262  -0.68730  -0.68600
 Alpha  occ. eigenvalues --   -0.66984  -0.66305  -0.63987  -0.61623  -0.60540
 Alpha  occ. eigenvalues --   -0.60185  -0.59547  -0.58688  -0.58422  -0.57244
 Alpha  occ. eigenvalues --   -0.56831  -0.56363  -0.55394  -0.54518  -0.53437
 Alpha  occ. eigenvalues --   -0.52406  -0.52159  -0.51471  -0.50921  -0.50747
 Alpha  occ. eigenvalues --   -0.50514  -0.49764  -0.48443  -0.47833  -0.47416
 Alpha  occ. eigenvalues --   -0.46843  -0.46657  -0.46612  -0.46146  -0.45935
 Alpha  occ. eigenvalues --   -0.45502  -0.45199  -0.44770  -0.44238  -0.44060
 Alpha  occ. eigenvalues --   -0.43866  -0.43639  -0.43478  -0.42941  -0.42816
 Alpha  occ. eigenvalues --   -0.42518  -0.41976  -0.41748  -0.41523  -0.41467
 Alpha  occ. eigenvalues --   -0.41162  -0.40662  -0.40522  -0.40164  -0.40038
 Alpha  occ. eigenvalues --   -0.39561  -0.39443  -0.39162  -0.38818  -0.38504
 Alpha  occ. eigenvalues --   -0.37711  -0.37661  -0.37094  -0.36742  -0.36186
 Alpha  occ. eigenvalues --   -0.35614  -0.35347  -0.35106  -0.34282  -0.34017
 Alpha  occ. eigenvalues --   -0.33907  -0.33717  -0.33561  -0.32116  -0.31965
 Alpha  occ. eigenvalues --   -0.30738  -0.30153  -0.29996  -0.28676  -0.28186
 Alpha  occ. eigenvalues --   -0.27383  -0.26570  -0.26315  -0.26194  -0.24127
 Alpha  occ. eigenvalues --   -0.24100  -0.23869  -0.23233  -0.22192  -0.18872
 Alpha virt. eigenvalues --   -0.10657  -0.06142  -0.05132  -0.01339  -0.00529
 Alpha virt. eigenvalues --    0.00405   0.00974   0.01299   0.02105   0.02638
 Alpha virt. eigenvalues --    0.03077   0.03849   0.04123   0.04639   0.05181

 Mulliken charges:
               1
     1  O   -0.152477
     2  O   -0.213710
     3  O   -0.252962
     4  O   -0.207052
     5  O   -0.194898
     6  O   -0.224389
     7  N   -0.073973
     8  N   -0.174772
     9  N   -0.006115
    10  N   -0.308182
    11  C    0.174632
    12  C    0.158532
    13  C   -0.080378
    14  C   -0.135560
    15  C   -0.076355
    16  C    0.057770
    17  C   -0.097735
    18  C    0.067641
    19  C   -0.098587
    20  C   -0.113790
    21  C    0.038294
    22  C    0.144803
    23  C   -0.098186
    24  C   -0.110842
    25  C    0.098553
    26  C   -0.172885
    27  C    0.181895
    28  C    0.078721
    29  C    0.146062
    30  C   -0.037349
    31  C   -0.051051
    32  C    0.165350
    33  C   -0.094220
    34  C    0.122868
    35  C    0.096976
    36  C    0.030978
    37  C    0.141298
    38  C    0.057622
    39  C   -0.185137
    40  C    0.161789
    41  C   -0.029317
    42  C    0.023801
    43  C   -0.032047
    44  H   -0.035778
    45  H    0.002229
    46  H   -0.026025
    47  H    0.130839
    48  H    0.112962
    49  H    0.025594
    50  H   -0.005106
    51  H   -0.009975
    52  H    0.077929
    53  H    0.060731
    54  H    0.088026
    55  H    0.012476
    56  H    0.037676
    57  H   -0.025208
    58  H    0.078236
    59  H   -0.103660
    60  H    0.157747
    61  H   -0.003968
    62  H    0.064359
    63  H    0.033315
    64  H    0.019286
    65  H    0.063547
    66  H   -0.051630
    67  H    0.019539
    68  H    0.050130
    69  H   -0.057724
    70  H   -0.031053
    71  H    0.006580
    72  H    0.177336
    73  H    0.026809
    74  H    0.043484
    75  H    0.030485
    76  H    0.046459
    77  H    0.204023
    78  H    0.032153
    79  H    0.022559
 Sum of Mulliken charges =   0.00000

 Dipole moment (field-independent basis, Debye):
    X=              0.5143    Y=              3.5190    Z=              1.9625  Tot=              4.0620
 Quadrupole moment (field-independent basis, Debye-Ang):
   XX=           -229.2770   YY=           -240.7577   ZZ=           -262.1714
   XY=             -9.8259   XZ=             30.2046   YZ=              5.6511

 Normal termination of Gaussian 09 at Wed Jul 10 13:16:04 2019.
