 Gaussian 09, Revision D.01,
 Gaussian 09:  ES64L-G09RevD.01 24-Apr-2013

 --------------------------
 # td=(NStates=1) B3LYP/SVP
 --------------------------

 --
 TD
 --
 Symbolic Z-matrix:
 Charge =  0 Multiplicity = 1

                         Standard orientation:
 ---------------------------------------------------------------------
 Center     Atomic      Atomic             Coordinates (Angstroms)
 Number     Number       Type             X           Y           Z
 ---------------------------------------------------------------------
      1          8           0        5.365163   -0.458972   -3.354895
      2          8           0       -2.835857   -2.991996    3.363867
      3          8           0       -3.069934   -0.724177    2.841541
      4          8           0       -1.850584    7.305852    1.383359
      5          8           0       -0.438884    6.873133   -0.365328
      6          8           0       -2.186847   -4.060815    0.083618
      7          7           0        2.412529    0.864442    0.481861
      8          7           0        4.376481   -0.697207   -1.252819
      9          7           0       -1.924785    0.642492   -0.431558
     10          7           0       -2.764186   -1.923273   -0.436210
     11          6           0        4.957728   -1.102265    0.083848
     12          6           0        4.538640   -0.266998    1.246330
     13          6           0        3.071333    0.020799    1.315627
     14          6           0        2.134312   -0.667390    2.083663
     15          6           0        0.885248   -0.107502    1.777715
     16          6           0        0.990942    0.837083    0.707634
     17          6           0        6.471247   -1.308286   -0.226148
     18          6           0       -0.419755   -0.312871    2.484746
     19          6           0        6.719150   -0.846728   -1.466766
     20          6           0        0.236151    1.856185   -0.001570
     21          6           0       -1.025107    1.739733   -0.392155
     22          6           0        5.413130   -0.581679   -2.177130
     23          6           0       -1.872945    2.833305   -0.909348
     24          6           0        2.398831   -1.636292    3.217535
     25          6           0        7.348940   -1.718444    0.944165
     26          6           0       -3.148521    2.413381   -1.193691
     27          6           0       -0.983797   -1.742103    2.470247
     28          6           0       -3.073535    0.961842   -0.926349
     29          6           0       -1.307530    4.283784   -0.869217
     30          6           0        7.949033   -0.801916   -2.123894
     31          6           0       -1.805152    4.977591    0.484797
     32          6           0       -4.234045    3.075096   -1.750617
     33          6           0       -4.018604   -0.000957   -1.221346
     34          6           0       -2.414922   -1.765645    2.956254
     35          6           0       -3.857736   -1.396123   -1.021883
     36          6           0        9.221235   -0.849503   -1.660112
     37          6           0       -1.297201    6.535569    0.418554
     38          6           0       -4.908179   -2.505088   -1.386181
     39          6           0       -4.288932   -3.630253   -1.065172
     40          6           0       -2.880719   -3.228683   -0.400895
     41          6           0       -6.131439   -2.199943   -1.988615
     42          6           0       -4.852664   -4.998301   -1.119798
     43          6           0       -7.012171   -3.090800   -2.631573
     44          1           0        4.487333   -2.276488    0.461861
     45          1           0        5.237523    0.532230    1.175541
     46          1           0        4.755755   -0.790533    2.135784
     47          1           0        2.785422    1.586434   -0.191407
     48          1           0        3.421485   -0.691678   -1.659524
     49          1           0       -0.370503    0.107523    3.547639
     50          1           0       -1.183101    0.322933    2.288012
     51          1           0        0.868933    2.948082   -0.045878
     52          1           0        3.380261   -1.721354    3.473937
     53          1           0        1.759374   -1.244126    4.225519
     54          1           0        2.205830   -2.673449    2.788125
     55          1           0        6.784218   -2.598762    1.478370
     56          1           0        7.753309   -1.013291    1.572363
     57          1           0        8.055121   -2.305302    0.479563
     58          1           0       -0.936997   -2.120568    1.347550
     59          1           0       -0.199522   -2.297919    3.140470
     60          1           0       -1.674788   -0.351348   -0.279867
     61          1           0       -1.623223    4.710681   -1.726480
     62          1           0       -0.195498    4.284567   -1.016797
     63          1           0        7.883527   -0.722091   -3.098961
     64          1           0       -1.222739    4.401771    1.396033
     65          1           0       -2.836302    4.876345    0.683009
     66          1           0       -4.142978    4.122157   -1.843552
     67          1           0       -5.178470    2.776820   -1.115353
     68          1           0       -4.484735    2.698484   -2.685795
     69          1           0       -5.092256    0.248918   -1.621270
     70          1           0        9.519385   -0.952618   -0.483235
     71          1           0       10.132921   -0.917693   -2.270192
     72          1           0       -3.842819   -3.143531    3.450237
     73          1           0       -6.509499   -1.343512   -1.739581
     74          1           0       -4.819802   -5.289838   -2.240050
     75          1           0       -4.400795   -5.798943   -0.552232
     76          1           0       -5.789548   -4.975495   -0.537500
     77          1           0       -1.703271    8.198121    1.179880
     78          1           0       -7.778815   -2.823132   -3.361533
     79          1           0       -6.427267   -4.172368   -2.452837
 ---------------------------------------------------------------------

 SCF Done:  E(RB3LYP) =  -1947.81639848     A.U. after   16 cycles

 Excitation energies and oscillator strengths:

 Excited State   1:      Singlet-A      2.4124 eV  513.95 nm  f=0.4899  <S**2>=0.000
     154 ->156         0.12605
     155 ->156         0.68441
 This state for optimization and/or second-order correction.
 Total Energy, E(TD-HF/TD-KS) =  -1947.72774589
 Copying the excited state density for this state as the 1-particle RhoCI density.

 The electronic state is 1-A.
 Alpha  occ. eigenvalues --  -19.19685 -19.17645 -19.14345 -19.11149 -19.10338
 Alpha  occ. eigenvalues --  -19.09219 -14.38187 -14.36822 -14.35637 -14.28853
 Alpha  occ. eigenvalues --  -10.33934 -10.31079 -10.28282 -10.26518 -10.25488
 Alpha  occ. eigenvalues --  -10.24770 -10.24168 -10.23916 -10.23290 -10.23283
 Alpha  occ. eigenvalues --  -10.23068 -10.22705 -10.22144 -10.21228 -10.20747
 Alpha  occ. eigenvalues --  -10.20730 -10.20717 -10.20691 -10.20520 -10.20338
 Alpha  occ. eigenvalues --  -10.20206 -10.19798 -10.19711 -10.19248 -10.19174
 Alpha  occ. eigenvalues --  -10.19080 -10.18808 -10.18712 -10.18703 -10.18601
 Alpha  occ. eigenvalues --  -10.18564 -10.18348 -10.17233  -1.11187  -1.06349
 Alpha  occ. eigenvalues --   -1.04123  -1.02649  -1.02292  -0.99840  -0.98498
 Alpha  occ. eigenvalues --   -0.97299  -0.92702  -0.92416  -0.83249  -0.82741
 Alpha  occ. eigenvalues --   -0.82367  -0.81021  -0.80830  -0.80227  -0.77449
 Alpha  occ. eigenvalues --   -0.76809  -0.75769  -0.75409  -0.74194  -0.72670
 Alpha  occ. eigenvalues --   -0.71901  -0.71116  -0.69479  -0.68752  -0.68379
 Alpha  occ. eigenvalues --   -0.66267  -0.65473  -0.63676  -0.62058  -0.60738
 Alpha  occ. eigenvalues --   -0.60054  -0.59428  -0.58480  -0.57959  -0.57494
 Alpha  occ. eigenvalues --   -0.56869  -0.55993  -0.55118  -0.53802  -0.53135
 Alpha  occ. eigenvalues --   -0.52093  -0.51036  -0.50243  -0.50067  -0.49648
 Alpha  occ. eigenvalues --   -0.49423  -0.48762  -0.48509  -0.47978  -0.47322
 Alpha  occ. eigenvalues --   -0.47023  -0.46814  -0.46281  -0.45926  -0.45699
 Alpha  occ. eigenvalues --   -0.45641  -0.45020  -0.44561  -0.44437  -0.44076
 Alpha  occ. eigenvalues --   -0.43811  -0.43395  -0.43256  -0.43120  -0.42647
 Alpha  occ. eigenvalues --   -0.42485  -0.42186  -0.41698  -0.41177  -0.41104
 Alpha  occ. eigenvalues --   -0.40836  -0.40321  -0.40304  -0.40216  -0.39814
 Alpha  occ. eigenvalues --   -0.39532  -0.39117  -0.39083  -0.38123  -0.38089
 Alpha  occ. eigenvalues --   -0.37960  -0.37402  -0.36822  -0.36640  -0.35901
 Alpha  occ. eigenvalues --   -0.35583  -0.35307  -0.35023  -0.34851  -0.34169
 Alpha  occ. eigenvalues --   -0.33829  -0.33390  -0.32781  -0.32408  -0.31156
 Alpha  occ. eigenvalues --   -0.30936  -0.30492  -0.29454  -0.28470  -0.27269
 Alpha  occ. eigenvalues --   -0.26323  -0.26306  -0.25896  -0.25838  -0.24498
 Alpha  occ. eigenvalues --   -0.24027  -0.23355  -0.22912  -0.21855  -0.19522
 Alpha virt. eigenvalues --   -0.09818  -0.06117  -0.05442  -0.01649  -0.01398
 Alpha virt. eigenvalues --    0.00327   0.00758   0.01177   0.02794   0.03057
 Alpha virt. eigenvalues --    0.03999   0.04218   0.04968   0.05190   0.05456

 Mulliken charges:
               1
     1  O   -0.184348
     2  O   -0.217542
     3  O   -0.255837
     4  O   -0.149710
     5  O   -0.215907
     6  O   -0.175727
     7  N   -0.120409
     8  N   -0.234938
     9  N   -0.022351
    10  N   -0.220625
    11  C   -0.009742
    12  C    0.312493
    13  C   -0.071985
    14  C   -0.138237
    15  C   -0.074100
    16  C    0.048546
    17  C   -0.160793
    18  C    0.084904
    19  C   -0.024443
    20  C   -0.196734
    21  C    0.194382
    22  C    0.140768
    23  C   -0.160890
    24  C    0.103685
    25  C    0.149467
    26  C   -0.112876
    27  C   -0.059819
    28  C    0.119678
    29  C    0.157137
    30  C    0.043454
    31  C   -0.037202
    32  C    0.148024
    33  C   -0.159670
    34  C    0.191454
    35  C    0.031884
    36  C   -0.080679
    37  C    0.156972
    38  C    0.115348
    39  C   -0.267272
    40  C    0.098310
    41  C   -0.024458
    42  C    0.076432
    43  C   -0.062568
    44  H    0.020791
    45  H   -0.033973
    46  H   -0.033191
    47  H    0.129362
    48  H    0.146326
    49  H   -0.010560
    50  H   -0.041424
    51  H    0.066015
    52  H   -0.038414
    53  H    0.060957
    54  H    0.044528
    55  H    0.014646
    56  H    0.036463
    57  H    0.004930
    58  H    0.098335
    59  H    0.032440
    60  H    0.151742
    61  H   -0.024389
    62  H    0.014580
    63  H   -0.057008
    64  H    0.069805
    65  H    0.026646
    66  H    0.001992
    67  H    0.030266
    68  H    0.009599
    69  H   -0.003226
    70  H    0.027739
    71  H    0.033526
    72  H    0.212961
    73  H   -0.056378
    74  H    0.063100
    75  H    0.003654
    76  H    0.030505
    77  H    0.160865
    78  H    0.039824
    79  H    0.032891
 Sum of Mulliken charges =   0.00000

 Dipole moment (field-independent basis, Debye):
    X=              0.0482    Y=              4.4034    Z=              2.9854  Tot=              5.3202
 Quadrupole moment (field-independent basis, Debye-Ang):
   XX=           -220.2923   YY=           -239.7898   ZZ=           -262.0522
   XY=            -15.7649   XZ=             27.7251   YZ=             -2.9560

 Normal termination of Gaussian 09 at Tue Jul  9 18:34:02 2019.
