 Gaussian 09, Revision D.01,
 Gaussian 09:  ES64L-G09RevD.01 24-Apr-2013

 --------------------------
 # td=(NStates=1) B3LYP/SVP
 --------------------------

 --
 TD
 --
 Symbolic Z-matrix:
 Charge =  0 Multiplicity = 1

                         Standard orientation:
 ---------------------------------------------------------------------
 Center     Atomic      Atomic             Coordinates (Angstroms)
 Number     Number       Type             X           Y           Z
 ---------------------------------------------------------------------
      1          8           0        5.376945   -0.198910   -3.379850
      2          8           0       -2.673822   -3.176489    3.127673
      3          8           0       -3.090637   -0.978725    3.282012
      4          8           0       -1.609570    7.242588    1.494419
      5          8           0       -0.777718    7.036949   -0.512533
      6          8           0       -2.011032   -3.933348   -0.044185
      7          7           0        2.461288    1.001366    0.639921
      8          7           0        4.379636   -0.645521   -1.317826
      9          7           0       -1.921691    0.655840   -0.367922
     10          7           0       -2.778173   -1.915582   -0.506220
     11          6           0        4.851200   -1.124856   -0.025156
     12          6           0        4.423675   -0.231476    1.224084
     13          6           0        3.050842    0.130252    1.289320
     14          6           0        2.067582   -0.509548    2.212649
     15          6           0        0.823912   -0.015712    1.822059
     16          6           0        1.068771    0.876074    0.740657
     17          6           0        6.336370   -1.244712   -0.208941
     18          6           0       -0.474514   -0.210641    2.549316
     19          6           0        6.709361   -0.964904   -1.483464
     20          6           0        0.181325    1.878799    0.168995
     21          6           0       -1.142145    1.765412   -0.227809
     22          6           0        5.403648   -0.541634   -2.192460
     23          6           0       -1.911198    2.882005   -0.777618
     24          6           0        2.351120   -1.566641    3.219832
     25          6           0        7.200681   -1.741242    0.946185
     26          6           0       -3.063156    2.323079   -1.218867
     27          6           0       -0.926335   -1.735843    2.444715
     28          6           0       -3.173843    0.941384   -0.931910
     29          6           0       -1.471280    4.376734   -0.892544
     30          6           0        7.955070   -1.000319   -2.154988
     31          6           0       -1.779626    5.081580    0.385026
     32          6           0       -4.325689    3.078841   -1.826873
     33          6           0       -4.141016   -0.035771   -1.270660
     34          6           0       -2.317967   -1.911024    2.987926
     35          6           0       -3.855505   -1.430773   -1.040304
     36          6           0        9.187606   -0.996351   -1.622006
     37          6           0       -1.260678    6.444815    0.332556
     38          6           0       -4.792670   -2.436690   -1.493567
     39          6           0       -4.150185   -3.688705   -1.058248
     40          6           0       -2.901345   -3.280561   -0.515959
     41          6           0       -6.080867   -2.296443   -2.151503
     42          6           0       -4.536838   -5.087024   -1.099743
     43          6           0       -6.931508   -3.281165   -2.381425
     44          1           0        4.361852   -2.238108    0.386169
     45          1           0        5.191881    0.632701    0.978129
     46          1           0        4.946937   -0.697554    1.974703
     47          1           0        2.970267    1.655629   -0.129348
     48          1           0        3.303836   -0.358278   -1.576520
     49          1           0       -0.397005   -0.109899    3.586552
     50          1           0       -1.225352    0.469190    2.372984
     51          1           0        0.623494    2.866634   -0.268501
     52          1           0        3.439413   -1.718150    3.724909
     53          1           0        1.655690   -1.167632    4.002218
     54          1           0        2.046155   -2.520305    2.956430
     55          1           0        6.518062   -2.325932    1.770105
     56          1           0        7.748139   -0.857216    1.315961
     57          1           0        7.892389   -2.481077    0.465720
     58          1           0       -0.966210   -2.072006    1.483310
     59          1           0       -0.201020   -2.342227    2.915761
     60          1           0       -1.610857   -0.174362    0.014695
     61          1           0       -1.884897    4.932723   -1.741359
     62          1           0       -0.388357    4.274118   -1.224780
     63          1           0        7.792342   -1.005614   -3.316228
     64          1           0       -1.214231    4.645670    1.163899
     65          1           0       -2.661423    4.873893    0.804067
     66          1           0       -3.907704    3.983394   -2.426293
     67          1           0       -5.235934    3.341554   -1.132537
     68          1           0       -4.685723    2.253680   -2.632983
     69          1           0       -5.055270    0.208507   -1.764944
     70          1           0        9.401911   -1.041709   -0.629800
     71          1           0       10.141424   -0.910607   -2.238669
     72          1           0       -3.594183   -3.230109    3.444295
     73          1           0       -6.422426   -1.163878   -2.739958
     74          1           0       -4.485423   -5.551346   -2.258073
     75          1           0       -3.732381   -5.554887   -0.571953
     76          1           0       -5.424059   -5.417205   -0.740249
     77          1           0       -1.108346    7.974259    1.408854
     78          1           0       -7.939999   -3.042923   -2.659548
     79          1           0       -6.842505   -4.421795   -2.088624
 ---------------------------------------------------------------------

 SCF Done:  E(RB3LYP) =  -1947.81826819     A.U. after   20 cycles

 Excitation energies and oscillator strengths:

 Excited State   1:      Singlet-A      1.9108 eV  648.86 nm  f=0.4361  <S**2>=0.000
     154 ->156         0.23312
     155 ->156         0.66727
     155 <-156        -0.12157
 This state for optimization and/or second-order correction.
 Total Energy, E(TD-HF/TD-KS) =  -1947.74804785
 Copying the excited state density for this state as the 1-particle RhoCI density.

 The electronic state is 1-A.
 Alpha  occ. eigenvalues --  -19.17565 -19.14651 -19.14568 -19.10755 -19.10136
 Alpha  occ. eigenvalues --  -19.09570 -14.41692 -14.38011 -14.36358 -14.27100
 Alpha  occ. eigenvalues --  -10.32359 -10.30874 -10.29187 -10.27308 -10.24640
 Alpha  occ. eigenvalues --  -10.24637 -10.24304 -10.24090 -10.24028 -10.23072
 Alpha  occ. eigenvalues --  -10.22889 -10.22584 -10.22477 -10.22214 -10.22174
 Alpha  occ. eigenvalues --  -10.22101 -10.21962 -10.21109 -10.20978 -10.20763
 Alpha  occ. eigenvalues --  -10.20741 -10.20737 -10.20578 -10.20491 -10.20373
 Alpha  occ. eigenvalues --  -10.20232 -10.19895 -10.19691 -10.19394 -10.19089
 Alpha  occ. eigenvalues --  -10.18894 -10.18372 -10.18348  -1.11982  -1.08889
 Alpha  occ. eigenvalues --   -1.03211  -1.02314  -1.02040  -1.01036  -0.98560
 Alpha  occ. eigenvalues --   -0.97719  -0.94626  -0.92493  -0.83866  -0.83357
 Alpha  occ. eigenvalues --   -0.82953  -0.81745  -0.80291  -0.79969  -0.79233
 Alpha  occ. eigenvalues --   -0.77486  -0.77206  -0.76249  -0.75070  -0.72887
 Alpha  occ. eigenvalues --   -0.71478  -0.71105  -0.69495  -0.69257  -0.68701
 Alpha  occ. eigenvalues --   -0.68376  -0.66382  -0.64643  -0.62158  -0.60908
 Alpha  occ. eigenvalues --   -0.60376  -0.59329  -0.58773  -0.58141  -0.57540
 Alpha  occ. eigenvalues --   -0.57423  -0.57005  -0.56151  -0.54908  -0.53400
 Alpha  occ. eigenvalues --   -0.53333  -0.52297  -0.52072  -0.50713  -0.50561
 Alpha  occ. eigenvalues --   -0.49782  -0.49371  -0.48743  -0.48433  -0.48039
 Alpha  occ. eigenvalues --   -0.47650  -0.46885  -0.46722  -0.46535  -0.45980
 Alpha  occ. eigenvalues --   -0.45503  -0.45051  -0.44605  -0.44406  -0.44279
 Alpha  occ. eigenvalues --   -0.43882  -0.43647  -0.43319  -0.43035  -0.42791
 Alpha  occ. eigenvalues --   -0.42511  -0.42455  -0.42256  -0.42003  -0.41615
 Alpha  occ. eigenvalues --   -0.41395  -0.41258  -0.40942  -0.40342  -0.40044
 Alpha  occ. eigenvalues --   -0.39670  -0.39414  -0.39179  -0.38962  -0.38373
 Alpha  occ. eigenvalues --   -0.38024  -0.37781  -0.37401  -0.37335  -0.36583
 Alpha  occ. eigenvalues --   -0.36485  -0.35786  -0.35588  -0.35143  -0.34885
 Alpha  occ. eigenvalues --   -0.34733  -0.33923  -0.32977  -0.32557  -0.32120
 Alpha  occ. eigenvalues --   -0.31124  -0.30517  -0.29513  -0.29152  -0.26896
 Alpha  occ. eigenvalues --   -0.26635  -0.26474  -0.26175  -0.26139  -0.25598
 Alpha  occ. eigenvalues --   -0.24574  -0.23985  -0.23630  -0.21238  -0.18479
 Alpha virt. eigenvalues --   -0.11110  -0.06931  -0.06371  -0.00868  -0.00135
 Alpha virt. eigenvalues --    0.00043   0.00395   0.00643   0.01630   0.02456
 Alpha virt. eigenvalues --    0.02890   0.03113   0.03417   0.04019   0.05224

 Mulliken charges:
               1
     1  O   -0.241546
     2  O   -0.148677
     3  O   -0.278792
     4  O   -0.233020
     5  O   -0.131637
     6  O   -0.176963
     7  N    0.001928
     8  N   -0.216559
     9  N   -0.032680
    10  N   -0.198922
    11  C    0.005841
    12  C    0.133302
    13  C   -0.042757
    14  C   -0.148798
    15  C   -0.052735
    16  C    0.030885
    17  C   -0.184459
    18  C    0.142176
    19  C   -0.015261
    20  C   -0.106387
    21  C    0.030082
    22  C    0.145732
    23  C   -0.103396
    24  C    0.051627
    25  C    0.033822
    26  C   -0.136317
    27  C    0.055539
    28  C    0.177357
    29  C    0.067494
    30  C   -0.031941
    31  C    0.151661
    32  C   -0.010399
    33  C   -0.105228
    34  C    0.128964
    35  C    0.054336
    36  C   -0.023216
    37  C    0.107250
    38  C    0.015931
    39  C   -0.184772
    40  C    0.098532
    41  C   -0.055777
    42  C    0.092352
    43  C   -0.067973
    44  H    0.045963
    45  H   -0.005549
    46  H   -0.038823
    47  H    0.171588
    48  H    0.186482
    49  H   -0.016834
    50  H   -0.014021
    51  H    0.006596
    52  H    0.029955
    53  H    0.029362
    54  H    0.034761
    55  H    0.051532
    56  H    0.054413
    57  H    0.055312
    58  H    0.027572
    59  H   -0.000815
    60  H    0.109001
    61  H    0.019237
    62  H    0.023640
    63  H    0.041460
    64  H    0.006656
    65  H    0.001190
    66  H    0.034050
    67  H    0.068737
    68  H    0.039331
    69  H   -0.042669
    70  H   -0.020173
    71  H    0.041544
    72  H    0.182862
    73  H    0.046090
    74  H    0.037440
    75  H    0.009664
    76  H    0.004509
    77  H    0.125512
    78  H    0.017612
    79  H    0.040212
 Sum of Mulliken charges =   0.00000

 Dipole moment (field-independent basis, Debye):
    X=              2.4234    Y=              1.2645    Z=              3.4590  Tot=              4.4087
 Quadrupole moment (field-independent basis, Debye-Ang):
   XX=           -219.6190   YY=           -258.8298   ZZ=           -267.5095
   XY=              2.1296   XZ=             32.9539   YZ=             -5.1372

 Normal termination of Gaussian 09 at Tue Jul  9 10:24:55 2019.
