 Gaussian 09, Revision D.01,
 Gaussian 09:  ES64L-G09RevD.01 24-Apr-2013

 --------------------------
 # td=(NStates=1) B3LYP/SVP
 --------------------------

 --
 TD
 --
 Symbolic Z-matrix:
 Charge =  0 Multiplicity = 1

                         Standard orientation:
 ---------------------------------------------------------------------
 Center     Atomic      Atomic             Coordinates (Angstroms)
 Number     Number       Type             X           Y           Z
 ---------------------------------------------------------------------
      1          8           0        5.324918   -0.072552   -3.360064
      2          8           0       -2.964694   -3.141828    3.035383
      3          8           0       -3.167975   -0.919473    3.246087
      4          8           0       -1.321025    7.148463    1.839859
      5          8           0       -0.992947    7.341324   -0.631527
      6          8           0       -2.190933   -4.016769   -0.093981
      7          7           0        2.423374    0.747129    0.565530
      8          7           0        4.489321   -0.700584   -1.351810
      9          7           0       -1.872087    0.665047   -0.349966
     10          7           0       -2.801882   -1.758015   -0.528588
     11          6           0        4.882699   -1.392029   -0.155833
     12          6           0        4.357859   -0.523344    1.109255
     13          6           0        3.049266   -0.266977    1.296915
     14          6           0        1.971008   -0.840435    2.103200
     15          6           0        0.723551   -0.230239    1.797141
     16          6           0        1.035985    0.778227    0.840847
     17          6           0        6.458523   -1.370986   -0.273799
     18          6           0       -0.562601   -0.419676    2.547069
     19          6           0        6.713245   -0.782876   -1.444079
     20          6           0        0.256284    1.878033    0.179243
     21          6           0       -1.022643    1.805741   -0.221378
     22          6           0        5.474872   -0.571102   -2.188847
     23          6           0       -1.735025    2.837584   -0.781526
     24          6           0        2.228380   -1.944424    3.065936
     25          6           0        7.217183   -1.995067    0.820148
     26          6           0       -3.065208    2.427385   -1.100100
     27          6           0       -1.079821   -1.881986    2.622677
     28          6           0       -3.037915    0.985877   -0.905234
     29          6           0       -1.274552    4.317148   -0.916403
     30          6           0        8.123649   -0.582151   -1.985061
     31          6           0       -1.465465    5.076137    0.615760
     32          6           0       -4.026111    3.133711   -1.712346
     33          6           0       -4.042500    0.164658   -1.264768
     34          6           0       -2.483627   -1.831862    2.979855
     35          6           0       -3.870624   -1.341181   -1.109987
     36          6           0        9.248833   -0.713266   -1.366978
     37          6           0       -1.217541    6.538487    0.501725
     38          6           0       -4.871774   -2.376485   -1.467717
     39          6           0       -4.311401   -3.465417   -1.138980
     40          6           0       -2.887602   -3.202792   -0.569293
     41          6           0       -6.061408   -2.069140   -2.267280
     42          6           0       -4.813749   -4.944860   -1.192215
     43          6           0       -6.971882   -3.035999   -2.703906
     44          1           0        4.580463   -2.555302   -0.249937
     45          1           0        5.040685    0.511724    1.383404
     46          1           0        4.804135   -1.309959    1.722640
     47          1           0        2.736326    1.258036   -0.177044
     48          1           0        3.459531   -0.797763   -1.717182
     49          1           0       -0.312696    0.013485    3.539622
     50          1           0       -1.365266    0.241468    2.208211
     51          1           0        0.732270    2.837535   -0.012794
     52          1           0        3.302534   -1.797232    3.486379
     53          1           0        1.704794   -1.729016    4.035731
     54          1           0        2.027290   -2.855115    2.537308
     55          1           0        6.530034   -2.339015    1.556766
     56          1           0        7.851947   -1.189374    1.310636
     57          1           0        7.922376   -2.663893    0.362049
     58          1           0       -0.598939   -2.589887    1.642279
     59          1           0       -0.419214   -2.509680    3.299880
     60          1           0       -1.818336   -0.360792   -0.169474
     61          1           0       -1.858166    4.853261   -1.729462
     62          1           0       -0.218937    4.448811   -0.944562
     63          1           0        8.080097   -0.221264   -3.118057
     64          1           0       -1.066954    4.708691    1.536675
     65          1           0       -2.444947    4.967151    0.949341
     66          1           0       -3.826536    4.044121   -2.017138
     67          1           0       -4.899538    3.145985   -1.128578
     68          1           0       -4.315490    2.699281   -2.646136
     69          1           0       -5.027051    0.432902   -1.716972
     70          1           0        9.366841   -0.996096   -0.141907
     71          1           0       10.094329   -0.257350   -1.899394
     72          1           0       -3.987808   -2.982144    3.294530
     73          1           0       -6.316429   -1.000426   -2.342548
     74          1           0       -4.657514   -5.148791   -2.200312
     75          1           0       -3.938048   -5.705258   -0.852841
     76          1           0       -5.825450   -4.866772   -0.801733
     77          1           0       -1.477190    8.284397    1.658966
     78          1           0       -7.799978   -2.822553   -3.386775
     79          1           0       -6.868334   -4.101667   -2.188029
 ---------------------------------------------------------------------

 SCF Done:  E(RB3LYP) =  -1947.70878002     A.U. after   19 cycles

 Excitation energies and oscillator strengths:

 Excited State   1:      Singlet-A      2.1574 eV  574.68 nm  f=0.4737  <S**2>=0.000
     155 ->156         0.70129
 This state for optimization and/or second-order correction.
 Total Energy, E(TD-HF/TD-KS) =  -1947.62949533
 Copying the excited state density for this state as the 1-particle RhoCI density.

 The electronic state is 1-A.
 Alpha  occ. eigenvalues --  -19.19559 -19.16171 -19.13742 -19.12824 -19.12791
 Alpha  occ. eigenvalues --  -19.08177 -14.37517 -14.36143 -14.34795 -14.30026
 Alpha  occ. eigenvalues --  -10.34621 -10.30921 -10.27925 -10.27592 -10.26504
 Alpha  occ. eigenvalues --  -10.23942 -10.23301 -10.23255 -10.23143 -10.22921
 Alpha  occ. eigenvalues --  -10.22595 -10.22512 -10.22410 -10.22324 -10.21541
 Alpha  occ. eigenvalues --  -10.21527 -10.21457 -10.21305 -10.21130 -10.20660
 Alpha  occ. eigenvalues --  -10.20418 -10.20369 -10.20240 -10.20089 -10.19755
 Alpha  occ. eigenvalues --  -10.19620 -10.19477 -10.19436 -10.19398 -10.19354
 Alpha  occ. eigenvalues --  -10.19268 -10.18914 -10.17309  -1.08697  -1.05442
 Alpha  occ. eigenvalues --   -1.01913  -1.01203  -0.98938  -0.97984  -0.97183
 Alpha  occ. eigenvalues --   -0.94115  -0.93092  -0.92957  -0.83101  -0.82998
 Alpha  occ. eigenvalues --   -0.82446  -0.81513  -0.81460  -0.80606  -0.78269
 Alpha  occ. eigenvalues --   -0.77348  -0.76602  -0.75584  -0.74217  -0.73370
 Alpha  occ. eigenvalues --   -0.73101  -0.71777  -0.70450  -0.69454  -0.68556
 Alpha  occ. eigenvalues --   -0.67007  -0.65945  -0.63555  -0.60457  -0.59972
 Alpha  occ. eigenvalues --   -0.58758  -0.57868  -0.57525  -0.57262  -0.56523
 Alpha  occ. eigenvalues --   -0.56141  -0.55580  -0.55024  -0.54503  -0.53450
 Alpha  occ. eigenvalues --   -0.52106  -0.51766  -0.50340  -0.50194  -0.49614
 Alpha  occ. eigenvalues --   -0.49157  -0.48535  -0.48117  -0.47476  -0.47301
 Alpha  occ. eigenvalues --   -0.47186  -0.46890  -0.46294  -0.46051  -0.45955
 Alpha  occ. eigenvalues --   -0.45647  -0.45262  -0.45072  -0.44976  -0.44364
 Alpha  occ. eigenvalues --   -0.44201  -0.43747  -0.43276  -0.43173  -0.42949
 Alpha  occ. eigenvalues --   -0.42845  -0.42662  -0.41826  -0.41778  -0.41302
 Alpha  occ. eigenvalues --   -0.41029  -0.40923  -0.40421  -0.39901  -0.39516
 Alpha  occ. eigenvalues --   -0.39248  -0.38976  -0.38760  -0.38389  -0.38347
 Alpha  occ. eigenvalues --   -0.38084  -0.37956  -0.37192  -0.36858  -0.36566
 Alpha  occ. eigenvalues --   -0.36265  -0.35327  -0.35179  -0.34733  -0.34101
 Alpha  occ. eigenvalues --   -0.33924  -0.32829  -0.31849  -0.31447  -0.31299
 Alpha  occ. eigenvalues --   -0.31000  -0.30015  -0.29795  -0.29228  -0.28549
 Alpha  occ. eigenvalues --   -0.27375  -0.25875  -0.25089  -0.24890  -0.24784
 Alpha  occ. eigenvalues --   -0.24302  -0.24011  -0.23697  -0.22805  -0.18668
 Alpha virt. eigenvalues --   -0.10053  -0.06364  -0.05263  -0.05226  -0.01845
 Alpha virt. eigenvalues --   -0.00495  -0.00109   0.00115   0.01100   0.02625
 Alpha virt. eigenvalues --    0.03281   0.03861   0.04210   0.04656   0.04889

 Mulliken charges:
               1
     1  O   -0.303264
     2  O   -0.270374
     3  O   -0.182221
     4  O   -0.337307
     5  O   -0.358520
     6  O   -0.125517
     7  N   -0.076592
     8  N   -0.133617
     9  N   -0.079425
    10  N   -0.283366
    11  C    0.004538
    12  C    0.078627
    13  C    0.040103
    14  C   -0.184875
    15  C   -0.078139
    16  C    0.040522
    17  C   -0.227189
    18  C    0.109097
    19  C   -0.040465
    20  C   -0.120428
    21  C    0.184339
    22  C    0.120417
    23  C   -0.117003
    24  C    0.084355
    25  C    0.134855
    26  C   -0.136981
    27  C   -0.122014
    28  C    0.164209
    29  C    0.111650
    30  C   -0.010917
    31  C    0.044580
    32  C    0.238988
    33  C   -0.170723
    34  C    0.195491
    35  C    0.007306
    36  C   -0.079020
    37  C    0.245561
    38  C    0.073095
    39  C   -0.299086
    40  C    0.177141
    41  C   -0.025183
    42  C    0.112058
    43  C   -0.057129
    44  H    0.055861
    45  H    0.048801
    46  H   -0.032652
    47  H    0.082478
    48  H    0.164182
    49  H    0.017690
    50  H    0.015346
    51  H   -0.015429
    52  H    0.018316
    53  H    0.023310
    54  H    0.041579
    55  H    0.014704
    56  H    0.048568
    57  H    0.047531
    58  H    0.098453
    59  H    0.044622
    60  H    0.147157
    61  H    0.058022
    62  H    0.017612
    63  H    0.044369
    64  H    0.031783
    65  H    0.022601
    66  H   -0.059292
    67  H    0.000800
    68  H    0.004914
    69  H   -0.021562
    70  H    0.038541
    71  H    0.034274
    72  H    0.203350
    73  H    0.005506
    74  H    0.006638
    75  H    0.043092
    76  H    0.061900
    77  H    0.263155
    78  H    0.035040
    79  H    0.041164
 Sum of Mulliken charges =   0.00000

 Dipole moment (field-independent basis, Debye):
    X=             -0.7538    Y=             -0.5924    Z=              3.8507  Tot=              3.9682
 Quadrupole moment (field-independent basis, Debye-Ang):
   XX=           -219.4687   YY=           -256.2708   ZZ=           -267.6600
   XY=            -14.2069   XZ=             35.1677   YZ=              9.1122

 Normal termination of Gaussian 09 at Wed Jul 10 21:58:36 2019.
