 Gaussian 09, Revision D.01,
 Gaussian 09:  ES64L-G09RevD.01 24-Apr-2013

 --------------------------
 # td=(NStates=1) B3LYP/SVP
 --------------------------

 --
 TD
 --
 Symbolic Z-matrix:
 Charge =  0 Multiplicity = 1

                         Standard orientation:
 ---------------------------------------------------------------------
 Center     Atomic      Atomic             Coordinates (Angstroms)
 Number     Number       Type             X           Y           Z
 ---------------------------------------------------------------------
      1          8           0        5.466879   -0.043616   -3.320272
      2          8           0       -2.769177   -3.316506    3.222051
      3          8           0       -3.235295   -1.149698    3.333739
      4          8           0       -1.933714    7.351644    1.374527
      5          8           0       -0.575079    6.969962   -0.374010
      6          8           0       -2.132238   -4.083258    0.140856
      7          7           0        2.355958    0.905696    0.590375
      8          7           0        4.527576   -0.608019   -1.303114
      9          7           0       -1.919546    0.663735   -0.308327
     10          7           0       -2.701750   -1.837892   -0.501886
     11          6           0        4.941045   -1.141359   -0.002431
     12          6           0        4.478872   -0.219137    1.148886
     13          6           0        2.961418   -0.043625    1.433395
     14          6           0        2.050585   -0.731715    2.058523
     15          6           0        0.757143   -0.186342    1.858650
     16          6           0        1.012695    0.938751    0.834351
     17          6           0        6.450264   -1.226541   -0.137040
     18          6           0       -0.522841   -0.432474    2.547411
     19          6           0        6.723460   -0.694854   -1.397976
     20          6           0        0.162940    1.907356    0.234034
     21          6           0       -1.171788    1.880074   -0.122821
     22          6           0        5.567185   -0.382054   -2.131344
     23          6           0       -1.889499    2.917166   -0.740795
     24          6           0        2.362300   -1.832228    3.204256
     25          6           0        7.362558   -1.696806    0.855414
     26          6           0       -3.144549    2.459668   -1.117537
     27          6           0       -1.095119   -1.882926    2.406853
     28          6           0       -3.141223    0.953371   -0.877524
     29          6           0       -1.437008    4.372803   -0.817913
     30          6           0        8.014558   -0.632765   -2.097104
     31          6           0       -1.814961    5.050073    0.560540
     32          6           0       -4.382801    3.116903   -1.659860
     33          6           0       -4.052927   -0.010287   -1.298045
     34          6           0       -2.450846   -2.022977    3.057728
     35          6           0       -3.853489   -1.350995   -1.145154
     36          6           0        9.273164   -0.885612   -1.696892
     37          6           0       -1.341289    6.561949    0.433991
     38          6           0       -4.689551   -2.532275   -1.626544
     39          6           0       -4.088884   -3.709564   -1.240652
     40          6           0       -2.844706   -3.275715   -0.500220
     41          6           0       -6.012858   -2.258926   -2.145825
     42          6           0       -4.499248   -5.116089   -1.429922
     43          6           0       -6.800086   -3.062169   -2.928360
     44          1           0        4.486566   -2.241766    0.204169
     45          1           0        4.783920    0.797773    0.897617
     46          1           0        4.805586   -0.461815    2.240985
     47          1           0        3.014393    1.385150   -0.151916
     48          1           0        3.551141   -0.993362   -1.531730
     49          1           0       -0.519211   -0.277530    3.575785
     50          1           0       -1.302073    0.344490    2.201382
     51          1           0        0.750761    2.795457    0.052485
     52          1           0        3.361370   -1.560247    3.694815
     53          1           0        1.699782   -1.589792    3.947192
     54          1           0        2.324890   -2.912541    2.649145
     55          1           0        6.677441   -2.433688    1.498862
     56          1           0        7.796405   -0.897618    1.511454
     57          1           0        8.071287   -2.459587    0.278158
     58          1           0       -1.150801   -2.391879    1.355198
     59          1           0       -0.399379   -2.568121    2.837396
     60          1           0       -1.535344   -0.285165   -0.136776
     61          1           0       -2.055555    4.951041   -1.597153
     62          1           0       -0.444605    4.463102   -1.115543
     63          1           0        7.790034   -0.452825   -3.291665
     64          1           0       -1.315519    4.627439    1.412417
     65          1           0       -2.937035    5.041247    0.737940
     66          1           0       -4.235920    4.262829   -1.709261
     67          1           0       -5.410006    2.786571   -1.239982
     68          1           0       -4.542677    2.695154   -2.767847
     69          1           0       -4.825927    0.375522   -1.941187
     70          1           0        9.570248   -1.068780   -0.653008
     71          1           0       10.130793   -1.002167   -2.442637
     72          1           0       -3.516020   -3.368905    3.801346
     73          1           0       -6.552885   -1.202544   -1.743862
     74          1           0       -4.199106   -5.445753   -2.434819
     75          1           0       -3.894336   -5.778044   -0.772962
     76          1           0       -5.754117   -5.279714   -1.173592
     77          1           0       -1.739942    8.412989    1.043048
     78          1           0       -7.944801   -2.932606   -3.200391
     79          1           0       -6.253127   -4.011265   -3.509994
 ---------------------------------------------------------------------

 SCF Done:  E(RB3LYP) =  -1947.88426633     A.U. after   17 cycles

 Excitation energies and oscillator strengths:

 Excited State   1:      Singlet-A      2.0648 eV  600.46 nm  f=0.3923  <S**2>=0.000
     154 ->156         0.16023
     155 ->156         0.68057
     155 <-156        -0.10868
 This state for optimization and/or second-order correction.
 Total Energy, E(TD-HF/TD-KS) =  -1947.80838559
 Copying the excited state density for this state as the 1-particle RhoCI density.

 The electronic state is 1-A.
 Alpha  occ. eigenvalues --  -19.19286 -19.15473 -19.13828 -19.10440 -19.09976
 Alpha  occ. eigenvalues --  -19.09954 -14.39079 -14.36613 -14.36570 -14.28705
 Alpha  occ. eigenvalues --  -10.32593 -10.29739 -10.28444 -10.26738 -10.26250
 Alpha  occ. eigenvalues --  -10.24982 -10.24233 -10.24189 -10.23164 -10.23158
 Alpha  occ. eigenvalues --  -10.23077 -10.22844 -10.22602 -10.22446 -10.22276
 Alpha  occ. eigenvalues --  -10.22137 -10.21644 -10.21417 -10.21413 -10.21386
 Alpha  occ. eigenvalues --  -10.21365 -10.21172 -10.21007 -10.20741 -10.20627
 Alpha  occ. eigenvalues --  -10.20299 -10.20166 -10.19869 -10.19710 -10.19261
 Alpha  occ. eigenvalues --  -10.19054 -10.18443 -10.18193  -1.09510  -1.08082
 Alpha  occ. eigenvalues --   -1.02476  -1.00738  -0.98895  -0.98514  -0.98164
 Alpha  occ. eigenvalues --   -0.96599  -0.94902  -0.89010  -0.83006  -0.82631
 Alpha  occ. eigenvalues --   -0.81420  -0.80905  -0.79538  -0.78845  -0.77508
 Alpha  occ. eigenvalues --   -0.76760  -0.75995  -0.75554  -0.73840  -0.72643
 Alpha  occ. eigenvalues --   -0.71983  -0.70390  -0.69120  -0.68096  -0.67537
 Alpha  occ. eigenvalues --   -0.67074  -0.65923  -0.63427  -0.61842  -0.60397
 Alpha  occ. eigenvalues --   -0.58840  -0.58155  -0.57842  -0.57093  -0.56308
 Alpha  occ. eigenvalues --   -0.56135  -0.55407  -0.54564  -0.53476  -0.52473
 Alpha  occ. eigenvalues --   -0.51770  -0.50880  -0.50190  -0.49620  -0.49321
 Alpha  occ. eigenvalues --   -0.48601  -0.48455  -0.48375  -0.48099  -0.47471
 Alpha  occ. eigenvalues --   -0.46927  -0.46512  -0.46000  -0.45852  -0.45132
 Alpha  occ. eigenvalues --   -0.44829  -0.44132  -0.43918  -0.43667  -0.43367
 Alpha  occ. eigenvalues --   -0.43065  -0.43024  -0.42736  -0.42317  -0.41959
 Alpha  occ. eigenvalues --   -0.41858  -0.41583  -0.41454  -0.41310  -0.40784
 Alpha  occ. eigenvalues --   -0.40586  -0.40118  -0.39931  -0.39772  -0.39181
 Alpha  occ. eigenvalues --   -0.38991  -0.38845  -0.38703  -0.38409  -0.38250
 Alpha  occ. eigenvalues --   -0.37888  -0.37693  -0.37498  -0.36770  -0.36495
 Alpha  occ. eigenvalues --   -0.36346  -0.35903  -0.35572  -0.34649  -0.33498
 Alpha  occ. eigenvalues --   -0.33105  -0.32909  -0.32696  -0.31824  -0.31771
 Alpha  occ. eigenvalues --   -0.30783  -0.30234  -0.29229  -0.28208  -0.27296
 Alpha  occ. eigenvalues --   -0.26638  -0.26312  -0.26032  -0.25720  -0.25401
 Alpha  occ. eigenvalues --   -0.24561  -0.23652  -0.23052  -0.21657  -0.18851
 Alpha virt. eigenvalues --   -0.10626  -0.07316  -0.06557  -0.01023  -0.00606
 Alpha virt. eigenvalues --    0.00278   0.01122   0.01417   0.01827   0.02405
 Alpha virt. eigenvalues --    0.02731   0.03307   0.03993   0.04138   0.04655

 Mulliken charges:
               1
     1  O   -0.241671
     2  O   -0.155753
     3  O   -0.231612
     4  O   -0.267231
     5  O   -0.200103
     6  O   -0.252174
     7  N   -0.135066
     8  N   -0.195048
     9  N   -0.119302
    10  N   -0.357817
    11  C    0.044520
    12  C    0.166193
    13  C   -0.089699
    14  C   -0.151644
    15  C   -0.061271
    16  C    0.052189
    17  C   -0.146111
    18  C    0.091200
    19  C   -0.053599
    20  C   -0.095317
    21  C    0.140316
    22  C    0.151528
    23  C   -0.110921
    24  C    0.072980
    25  C    0.023292
    26  C   -0.094978
    27  C   -0.028768
    28  C    0.120825
    29  C    0.109855
    30  C   -0.037045
    31  C   -0.012283
    32  C    0.018462
    33  C   -0.110439
    34  C    0.117425
    35  C    0.119205
    36  C   -0.071233
    37  C    0.140146
    38  C    0.069979
    39  C   -0.149721
    40  C    0.190672
    41  C   -0.079700
    42  C    0.037174
    43  C   -0.119581
    44  H    0.046908
    45  H   -0.015281
    46  H    0.024655
    47  H    0.164912
    48  H    0.161858
    49  H   -0.015814
    50  H    0.029603
    51  H   -0.011136
    52  H    0.014807
    53  H    0.006415
    54  H    0.072599
    55  H    0.025798
    56  H    0.073131
    57  H    0.070687
    58  H    0.088037
    59  H   -0.007324
    60  H    0.165038
    61  H    0.021204
    62  H    0.008714
    63  H    0.058934
    64  H    0.041804
    65  H    0.051361
    66  H    0.035501
    67  H    0.051358
    68  H    0.042962
    69  H   -0.036074
    70  H    0.018637
    71  H    0.044422
    72  H    0.157961
    73  H    0.044163
    74  H    0.035316
    75  H    0.027885
    76  H    0.055571
    77  H    0.239767
    78  H    0.054817
    79  H    0.052933
 Sum of Mulliken charges =   0.00000

 Dipole moment (field-independent basis, Debye):
    X=              1.8759    Y=              2.6910    Z=              2.9323  Tot=              4.3999
 Quadrupole moment (field-independent basis, Debye-Ang):
   XX=           -224.5434   YY=           -240.3065   ZZ=           -264.0992
   XY=            -21.7864   XZ=             36.4090   YZ=              2.1739

 Normal termination of Gaussian 09 at Wed Jul 10 00:10:23 2019.
