 Gaussian 09, Revision D.01,
 Gaussian 09:  ES64L-G09RevD.01 24-Apr-2013

 --------------------------
 # td=(NStates=1) B3LYP/SVP
 --------------------------

 --
 TD
 --
 Symbolic Z-matrix:
 Charge =  0 Multiplicity = 1

                         Standard orientation:
 ---------------------------------------------------------------------
 Center     Atomic      Atomic             Coordinates (Angstroms)
 Number     Number       Type             X           Y           Z
 ---------------------------------------------------------------------
      1          8           0        5.356942   -0.299345   -3.351961
      2          8           0       -3.003457   -3.055247    3.195000
      3          8           0       -3.217226   -0.800542    3.487345
      4          8           0       -1.109105    7.080435    1.563918
      5          8           0       -0.246946    6.999245   -0.541767
      6          8           0       -2.057082   -3.938666   -0.199350
      7          7           0        2.413119    0.796919    0.501416
      8          7           0        4.366941   -0.920841   -1.246922
      9          7           0       -1.876929    0.674893   -0.358029
     10          7           0       -2.769187   -1.727349   -0.732996
     11          6           0        4.826280   -1.461458   -0.007749
     12          6           0        4.457312   -0.545935    1.163901
     13          6           0        2.968588   -0.187220    1.330426
     14          6           0        1.957893   -0.674482    2.138753
     15          6           0        0.827425   -0.083554    1.829937
     16          6           0        1.094606    0.958277    0.760564
     17          6           0        6.346950   -1.559867   -0.228709
     18          6           0       -0.512521   -0.209903    2.622688
     19          6           0        6.656965   -1.084120   -1.438305
     20          6           0        0.228485    1.918921    0.250480
     21          6           0       -1.053576    1.825974   -0.210298
     22          6           0        5.428309   -0.675709   -2.165765
     23          6           0       -1.804682    2.969387   -0.689030
     24          6           0        2.193828   -1.772074    3.151246
     25          6           0        7.210926   -2.124847    0.867050
     26          6           0       -2.987892    2.452858   -1.185905
     27          6           0       -1.076738   -1.575630    2.557673
     28          6           0       -3.028833    1.076374   -0.904230
     29          6           0       -1.229512    4.326237   -0.903849
     30          6           0        7.893564   -0.827519   -2.115124
     31          6           0       -1.711830    5.225082    0.263693
     32          6           0       -4.150041    3.199776   -1.787560
     33          6           0       -4.006896    0.055936   -1.200339
     34          6           0       -2.505480   -1.786027    3.139630
     35          6           0       -3.875187   -1.289514   -1.190048
     36          6           0        9.048464   -0.770726   -1.575837
     37          6           0       -0.952622    6.498717    0.365492
     38          6           0       -4.846028   -2.423327   -1.548490
     39          6           0       -4.336102   -3.561326   -1.134183
     40          6           0       -2.908051   -3.116359   -0.668957
     41          6           0       -6.216805   -2.152950   -2.149226
     42          6           0       -4.695706   -5.010910   -1.165363
     43          6           0       -7.179495   -3.063718   -2.498021
     44          1           0        4.370398   -2.454068    0.252127
     45          1           0        5.120765    0.482897    1.000112
     46          1           0        4.828389   -1.019015    1.907302
     47          1           0        2.984596    1.484685   -0.146355
     48          1           0        3.442051   -0.798743   -1.520694
     49          1           0       -0.200902    0.208777    3.722125
     50          1           0       -1.331863    0.322144    2.437411
     51          1           0        0.732103    2.812622    0.037499
     52          1           0        3.307168   -1.675742    3.662347
     53          1           0        1.530986   -1.634691    4.096556
     54          1           0        1.878487   -2.801115    2.830830
     55          1           0        6.683518   -2.730508    1.612329
     56          1           0        7.467179   -1.431529    1.672078
     57          1           0        8.018310   -2.512642    0.506416
     58          1           0       -1.348054   -1.936783    1.685277
     59          1           0       -0.469474   -2.437667    3.039228
     60          1           0       -1.653377   -0.478358   -0.441748
     61          1           0       -1.800749    4.766387   -2.016718
     62          1           0       -0.079130    4.351816   -1.164171
     63          1           0        7.854830   -0.809766   -3.073704
     64          1           0       -1.673045    4.644647    1.275540
     65          1           0       -2.870470    5.456692    0.200401
     66          1           0       -3.781628    4.395370   -1.888174
     67          1           0       -5.081629    3.220811   -1.145314
     68          1           0       -4.585438    2.893355   -2.679879
     69          1           0       -5.005064    0.403146   -1.566974
     70          1           0        9.403506   -0.594846   -0.608819
     71          1           0        9.963765   -0.563361   -2.112796
     72          1           0       -3.935213   -2.898980    3.710248
     73          1           0       -6.338894   -0.932534   -2.222338
     74          1           0       -4.952316   -5.316934   -2.276890
     75          1           0       -3.931128   -5.589111   -0.714621
     76          1           0       -5.838472   -4.888964   -0.800467
     77          1           0       -0.692635    7.992318    1.763162
     78          1           0       -8.214286   -2.740164   -2.786553
     79          1           0       -6.894489   -4.144721   -2.661804
 ---------------------------------------------------------------------

 SCF Done:  E(RB3LYP) =  -1947.78905468     A.U. after   17 cycles

 Excitation energies and oscillator strengths:

 Excited State   1:      Singlet-A      2.1587 eV  574.35 nm  f=0.5555  <S**2>=0.000
     155 ->156         0.70784
     155 <-156        -0.12516
 This state for optimization and/or second-order correction.
 Total Energy, E(TD-HF/TD-KS) =  -1947.70972374
 Copying the excited state density for this state as the 1-particle RhoCI density.

 The electronic state is 1-A.
 Alpha  occ. eigenvalues --  -19.19218 -19.18294 -19.12680 -19.11112 -19.10613
 Alpha  occ. eigenvalues --  -19.09429 -14.40615 -14.35815 -14.35123 -14.29413
 Alpha  occ. eigenvalues --  -10.33111 -10.31310 -10.28978 -10.26398 -10.25212
 Alpha  occ. eigenvalues --  -10.24137 -10.24126 -10.24119 -10.23864 -10.23739
 Alpha  occ. eigenvalues --  -10.23293 -10.22477 -10.22246 -10.22236 -10.21968
 Alpha  occ. eigenvalues --  -10.21840 -10.21588 -10.21378 -10.21108 -10.20743
 Alpha  occ. eigenvalues --  -10.20348 -10.20300 -10.20185 -10.20059 -10.20021
 Alpha  occ. eigenvalues --  -10.19844 -10.19781 -10.19446 -10.19341 -10.19311
 Alpha  occ. eigenvalues --  -10.18326 -10.18202 -10.18169  -1.08760  -1.06594
 Alpha  occ. eigenvalues --   -1.01214  -0.99335  -0.98993  -0.98764  -0.97613
 Alpha  occ. eigenvalues --   -0.96615  -0.94286  -0.93030  -0.83410  -0.83210
 Alpha  occ. eigenvalues --   -0.82683  -0.81690  -0.80371  -0.79891  -0.78437
 Alpha  occ. eigenvalues --   -0.77838  -0.77332  -0.76071  -0.74163  -0.73340
 Alpha  occ. eigenvalues --   -0.72433  -0.70772  -0.69476  -0.69246  -0.68114
 Alpha  occ. eigenvalues --   -0.67132  -0.66633  -0.64116  -0.62331  -0.61137
 Alpha  occ. eigenvalues --   -0.60330  -0.59508  -0.58911  -0.57815  -0.56908
 Alpha  occ. eigenvalues --   -0.55867  -0.55610  -0.55100  -0.54883  -0.53832
 Alpha  occ. eigenvalues --   -0.52246  -0.51651  -0.51199  -0.50880  -0.49588
 Alpha  occ. eigenvalues --   -0.49104  -0.48736  -0.48346  -0.47652  -0.47324
 Alpha  occ. eigenvalues --   -0.47251  -0.47068  -0.46667  -0.46571  -0.45958
 Alpha  occ. eigenvalues --   -0.45630  -0.44609  -0.44517  -0.44276  -0.43979
 Alpha  occ. eigenvalues --   -0.43692  -0.42928  -0.42741  -0.42540  -0.42509
 Alpha  occ. eigenvalues --   -0.41796  -0.41715  -0.41347  -0.41249  -0.40977
 Alpha  occ. eigenvalues --   -0.40904  -0.40638  -0.40409  -0.40178  -0.40090
 Alpha  occ. eigenvalues --   -0.39688  -0.39247  -0.39062  -0.38685  -0.38454
 Alpha  occ. eigenvalues --   -0.38118  -0.37744  -0.37122  -0.36880  -0.36593
 Alpha  occ. eigenvalues --   -0.36419  -0.35905  -0.35072  -0.34337  -0.33702
 Alpha  occ. eigenvalues --   -0.33351  -0.32991  -0.32533  -0.32444  -0.32132
 Alpha  occ. eigenvalues --   -0.30669  -0.30287  -0.29068  -0.28238  -0.28147
 Alpha  occ. eigenvalues --   -0.27394  -0.26294  -0.26061  -0.25807  -0.25758
 Alpha  occ. eigenvalues --   -0.25113  -0.23445  -0.23339  -0.22632  -0.18837
 Alpha virt. eigenvalues --   -0.10623  -0.05910  -0.05631  -0.01717  -0.00819
 Alpha virt. eigenvalues --    0.00356   0.00918   0.01174   0.01933   0.02414
 Alpha virt. eigenvalues --    0.02621   0.02833   0.03515   0.04580   0.05230

 Mulliken charges:
               1
     1  O   -0.245813
     2  O   -0.229375
     3  O   -0.297528
     4  O   -0.216020
     5  O   -0.262162
     6  O   -0.273412
     7  N   -0.100901
     8  N   -0.198134
     9  N   -0.154261
    10  N   -0.259272
    11  C    0.083298
    12  C    0.247463
    13  C   -0.078921
    14  C   -0.068758
    15  C   -0.093448
    16  C    0.066833
    17  C   -0.174912
    18  C    0.152686
    19  C   -0.031586
    20  C   -0.115343
    21  C    0.149666
    22  C    0.172551
    23  C   -0.058014
    24  C    0.006244
    25  C    0.194439
    26  C   -0.077085
    27  C    0.072728
    28  C    0.098106
    29  C   -0.047124
    30  C    0.124306
    31  C   -0.044879
    32  C    0.054954
    33  C   -0.129629
    34  C    0.129804
    35  C    0.081629
    36  C   -0.026928
    37  C    0.167225
    38  C    0.046710
    39  C   -0.220367
    40  C    0.164249
    41  C   -0.029632
    42  C    0.060824
    43  C   -0.067737
    44  H    0.025281
    45  H    0.014785
    46  H   -0.103137
    47  H    0.164078
    48  H    0.103926
    49  H    0.031455
    50  H   -0.036577
    51  H   -0.045556
    52  H    0.036303
    53  H    0.026776
    54  H    0.059541
    55  H   -0.003315
    56  H    0.012066
    57  H   -0.012956
    58  H   -0.011537
    59  H    0.026707
    60  H    0.234482
    61  H    0.060244
    62  H    0.069441
    63  H   -0.066958
    64  H    0.064068
    65  H    0.073882
    66  H    0.025902
    67  H    0.033572
    68  H    0.009994
    69  H   -0.043176
    70  H   -0.012733
    71  H    0.004477
    72  H    0.227957
    73  H    0.027040
    74  H    0.047035
    75  H    0.041809
    76  H    0.045193
    77  H    0.221226
    78  H    0.040332
    79  H    0.035896
 Sum of Mulliken charges =   0.00000

 Dipole moment (field-independent basis, Debye):
    X=              1.8174    Y=              2.9005    Z=              4.5496  Tot=              5.6934
 Quadrupole moment (field-independent basis, Debye-Ang):
   XX=           -218.8649   YY=           -245.3819   ZZ=           -264.5450
   XY=            -10.2230   XZ=             34.3296   YZ=              6.0870

 Normal termination of Gaussian 09 at Tue Jul  9 12:12:16 2019.
