 Gaussian 09, Revision D.01,
 Gaussian 09:  ES64L-G09RevD.01 24-Apr-2013

 --------------------------
 # td=(NStates=1) B3LYP/SVP
 --------------------------

 --
 TD
 --
 Symbolic Z-matrix:
 Charge =  0 Multiplicity = 1

                         Standard orientation:
 ---------------------------------------------------------------------
 Center     Atomic      Atomic             Coordinates (Angstroms)
 Number     Number       Type             X           Y           Z
 ---------------------------------------------------------------------
      1          8           0        5.444775    0.005936   -3.323180
      2          8           0       -3.078492   -3.102616    3.081675
      3          8           0       -3.198253   -0.931190    3.317070
      4          8           0       -1.661048    7.215814    1.597890
      5          8           0       -0.224887    6.986372   -0.216095
      6          8           0       -2.130871   -4.013092   -0.182667
      7          7           0        2.363097    0.785954    0.639158
      8          7           0        4.394532   -0.592551   -1.281491
      9          7           0       -1.835033    0.694853   -0.349311
     10          7           0       -2.707845   -1.784172   -0.565934
     11          6           0        4.800028   -1.268607   -0.042514
     12          6           0        4.440010   -0.434791    1.221326
     13          6           0        3.022679   -0.251768    1.351601
     14          6           0        1.997288   -0.907033    2.135737
     15          6           0        0.796413   -0.224577    1.729430
     16          6           0        0.959814    0.696362    0.835645
     17          6           0        6.276018   -1.366897   -0.196513
     18          6           0       -0.544906   -0.378672    2.471642
     19          6           0        6.651796   -0.921582   -1.396613
     20          6           0        0.235049    1.793547    0.233749
     21          6           0       -1.036980    1.797884   -0.242389
     22          6           0        5.441407   -0.424160   -2.181968
     23          6           0       -1.799747    2.927412   -0.822204
     24          6           0        2.160858   -2.058463    2.994607
     25          6           0        7.166183   -2.047758    0.819130
     26          6           0       -2.953516    2.498536   -1.316063
     27          6           0       -1.196009   -1.808834    2.502632
     28          6           0       -3.056169    1.063378   -1.016513
     29          6           0       -1.280152    4.394606   -0.732927
     30          6           0        8.089976   -0.792973   -2.013899
     31          6           0       -1.650555    5.125548    0.568891
     32          6           0       -4.121133    3.307513   -1.945253
     33          6           0       -3.928067    0.105518   -1.285781
     34          6           0       -2.517701   -1.869692    2.979075
     35          6           0       -3.822121   -1.290039   -1.094298
     36          6           0        9.224828   -0.881246   -1.440026
     37          6           0       -1.005028    6.521891    0.556345
     38          6           0       -4.769948   -2.412860   -1.558070
     39          6           0       -4.275402   -3.575192   -1.095192
     40          6           0       -2.977422   -3.187087   -0.547489
     41          6           0       -6.168321   -2.135661   -2.066604
     42          6           0       -4.658768   -4.912788   -1.187875
     43          6           0       -6.958418   -2.999919   -2.729755
     44          1           0        4.338534   -2.286089    0.028688
     45          1           0        5.190539    0.477521    1.038439
     46          1           0        4.622548   -1.086096    2.096301
     47          1           0        2.670382    1.271086   -0.191430
     48          1           0        3.329286   -0.331011   -1.635999
     49          1           0       -0.567891    0.064282    3.495467
     50          1           0       -1.138095    0.289986    1.882929
     51          1           0        0.838429    2.874785    0.160480
     52          1           0        3.400324   -2.016801    3.236817
     53          1           0        1.635473   -1.721102    4.043763
     54          1           0        1.806915   -2.901438    2.561146
     55          1           0        6.474306   -2.740922    1.404886
     56          1           0        7.605025   -1.233858    1.565389
     57          1           0        8.028820   -2.652862    0.265243
     58          1           0       -1.106701   -2.533700    1.515959
     59          1           0       -0.601639   -2.289111    3.286199
     60          1           0       -1.423292   -0.122676   -0.181684
     61          1           0       -1.718273    5.042909   -1.413221
     62          1           0       -0.208760    4.550985   -0.733435
     63          1           0        8.007825   -0.600451   -3.039245
     64          1           0       -1.219818    4.467016    1.233562
     65          1           0       -2.741088    5.190925    0.721761
     66          1           0       -3.652583    4.453492   -2.316109
     67          1           0       -4.929890    3.546639   -1.277095
     68          1           0       -4.643875    2.733546   -2.775960
     69          1           0       -4.716684    0.450069   -1.936049
     70          1           0        9.387166   -1.132834   -0.429223
     71          1           0       10.118273   -0.789334   -2.148634
     72          1           0       -3.925261   -3.073814    3.547267
     73          1           0       -6.576528   -1.136952   -2.150826
     74          1           0       -4.310051   -5.166345   -2.196083
     75          1           0       -4.375521   -5.478473   -0.371817
     76          1           0       -5.851992   -4.897519   -1.033184
     77          1           0       -1.124685    8.011715    1.484438
     78          1           0       -7.886669   -2.700588   -3.076215
     79          1           0       -6.699476   -4.040925   -2.884221
 ---------------------------------------------------------------------

 SCF Done:  E(RB3LYP) =  -1947.85395129     A.U. after   16 cycles

 Excitation energies and oscillator strengths:

 Excited State   1:      Singlet-A      2.1528 eV  575.91 nm  f=0.3928  <S**2>=0.000
     155 ->156         0.70143
 This state for optimization and/or second-order correction.
 Total Energy, E(TD-HF/TD-KS) =  -1947.77483592
 Copying the excited state density for this state as the 1-particle RhoCI density.

 The electronic state is 1-A.
 Alpha  occ. eigenvalues --  -19.18907 -19.16073 -19.15350 -19.11129 -19.10138
 Alpha  occ. eigenvalues --  -19.09825 -14.36696 -14.36382 -14.35736 -14.29991
 Alpha  occ. eigenvalues --  -10.33863 -10.29505 -10.28574 -10.26723 -10.25438
 Alpha  occ. eigenvalues --  -10.25088 -10.24260 -10.23963 -10.23129 -10.23113
 Alpha  occ. eigenvalues --  -10.22661 -10.22237 -10.22192 -10.22178 -10.22064
 Alpha  occ. eigenvalues --  -10.21610 -10.21374 -10.21373 -10.21106 -10.20881
 Alpha  occ. eigenvalues --  -10.20807 -10.20481 -10.19900 -10.19619 -10.19355
 Alpha  occ. eigenvalues --  -10.19307 -10.19258 -10.19220 -10.19140 -10.18900
 Alpha  occ. eigenvalues --  -10.18872 -10.18535 -10.18143  -1.10826  -1.07591
 Alpha  occ. eigenvalues --   -1.03047  -1.01853  -1.01403  -0.98365  -0.97688
 Alpha  occ. eigenvalues --   -0.96681  -0.93573  -0.92498  -0.83594  -0.82712
 Alpha  occ. eigenvalues --   -0.81817  -0.81346  -0.80973  -0.80504  -0.78901
 Alpha  occ. eigenvalues --   -0.77577  -0.77229  -0.76710  -0.75459  -0.73260
 Alpha  occ. eigenvalues --   -0.71407  -0.70817  -0.70375  -0.69053  -0.68184
 Alpha  occ. eigenvalues --   -0.67090  -0.66210  -0.64288  -0.60668  -0.59681
 Alpha  occ. eigenvalues --   -0.59204  -0.58584  -0.58001  -0.57536  -0.56703
 Alpha  occ. eigenvalues --   -0.56269  -0.55808  -0.55486  -0.54070  -0.53383
 Alpha  occ. eigenvalues --   -0.52000  -0.51735  -0.51465  -0.50875  -0.50405
 Alpha  occ. eigenvalues --   -0.50129  -0.49414  -0.48826  -0.47856  -0.47572
 Alpha  occ. eigenvalues --   -0.47118  -0.46747  -0.46664  -0.46284  -0.46001
 Alpha  occ. eigenvalues --   -0.45680  -0.45019  -0.44979  -0.44289  -0.44175
 Alpha  occ. eigenvalues --   -0.43874  -0.43586  -0.43017  -0.42786  -0.42421
 Alpha  occ. eigenvalues --   -0.42091  -0.41893  -0.41840  -0.41449  -0.41147
 Alpha  occ. eigenvalues --   -0.40722  -0.40548  -0.39998  -0.39952  -0.39657
 Alpha  occ. eigenvalues --   -0.39195  -0.39033  -0.38749  -0.38601  -0.38355
 Alpha  occ. eigenvalues --   -0.38261  -0.38230  -0.38011  -0.37302  -0.36724
 Alpha  occ. eigenvalues --   -0.36658  -0.36004  -0.35893  -0.34962  -0.34484
 Alpha  occ. eigenvalues --   -0.34251  -0.33986  -0.33512  -0.32122  -0.31606
 Alpha  occ. eigenvalues --   -0.31421  -0.30983  -0.29982  -0.29198  -0.28366
 Alpha  occ. eigenvalues --   -0.27222  -0.26467  -0.25716  -0.25549  -0.25238
 Alpha  occ. eigenvalues --   -0.24974  -0.24714  -0.23915  -0.23186  -0.19468
 Alpha virt. eigenvalues --   -0.10900  -0.06110  -0.04412  -0.01761  -0.01041
 Alpha virt. eigenvalues --    0.00030   0.01661   0.02151   0.02348   0.02481
 Alpha virt. eigenvalues --    0.03080   0.04151   0.04475   0.04873   0.05240

 Mulliken charges:
               1
     1  O   -0.221044
     2  O   -0.202770
     3  O   -0.238527
     4  O   -0.203657
     5  O   -0.188377
     6  O   -0.210155
     7  N   -0.145229
     8  N   -0.292306
     9  N   -0.057438
    10  N   -0.246071
    11  C    0.108609
    12  C    0.165680
    13  C   -0.066958
    14  C   -0.106771
    15  C   -0.106428
    16  C    0.082239
    17  C   -0.201078
    18  C    0.096928
    19  C   -0.071774
    20  C   -0.158500
    21  C    0.056166
    22  C    0.172490
    23  C   -0.050811
    24  C    0.049074
    25  C    0.011735
    26  C   -0.064384
    27  C   -0.017256
    28  C    0.139274
    29  C    0.102510
    30  C    0.052864
    31  C    0.013229
    32  C    0.019014
    33  C   -0.084606
    34  C    0.097472
    35  C    0.070830
    36  C   -0.010994
    37  C    0.158020
    38  C    0.043054
    39  C   -0.163715
    40  C    0.138367
    41  C   -0.028195
    42  C    0.113797
    43  C   -0.010332
    44  H    0.024026
    45  H    0.032801
    46  H   -0.019258
    47  H    0.104801
    48  H    0.175310
    49  H    0.019185
    50  H   -0.021549
    51  H    0.040772
    52  H    0.027264
    53  H    0.049349
    54  H    0.038035
    55  H    0.029522
    56  H    0.059600
    57  H    0.069625
    58  H    0.110131
    59  H    0.018979
    60  H    0.094757
    61  H   -0.021678
    62  H    0.013285
    63  H   -0.014539
    64  H    0.015988
    65  H    0.044540
    66  H    0.051094
    67  H    0.037535
    68  H    0.043170
    69  H   -0.048302
    70  H   -0.005111
    71  H    0.035043
    72  H    0.175834
    73  H   -0.005813
    74  H    0.059464
    75  H    0.010639
    76  H    0.030522
    77  H    0.157672
    78  H    0.006371
    79  H    0.016959
 Sum of Mulliken charges =   0.00000

 Dipole moment (field-independent basis, Debye):
    X=             -1.6041    Y=              1.2312    Z=              1.9426  Tot=              2.8040
 Quadrupole moment (field-independent basis, Debye-Ang):
   XX=           -224.1746   YY=           -244.1966   ZZ=           -264.3817
   XY=             -9.4227   XZ=             36.5645   YZ=              0.4249

 Normal termination of Gaussian 09 at Wed Jul 10 19:12:27 2019.
