 Gaussian 09, Revision D.01,
 Gaussian 09:  ES64L-G09RevD.01 24-Apr-2013

 --------------------------
 # td=(NStates=1) B3LYP/SVP
 --------------------------

 --
 TD
 --
 Symbolic Z-matrix:
 Charge =  0 Multiplicity = 1

                         Standard orientation:
 ---------------------------------------------------------------------
 Center     Atomic      Atomic             Coordinates (Angstroms)
 Number     Number       Type             X           Y           Z
 ---------------------------------------------------------------------
      1          8           0        5.435422    0.014112   -3.230320
      2          8           0       -3.006820   -3.232402    3.241317
      3          8           0       -3.190621   -0.947629    3.429896
      4          8           0       -1.442251    7.288313    1.563064
      5          8           0       -0.361184    6.948016   -0.417058
      6          8           0       -1.988727   -3.996633   -0.168953
      7          7           0        2.320704    0.815728    0.651317
      8          7           0        4.363202   -0.614530   -1.258270
      9          7           0       -1.924395    0.788508   -0.312371
     10          7           0       -2.665702   -1.773068   -0.680767
     11          6           0        4.720575   -1.279323   -0.074591
     12          6           0        4.319987   -0.494070    1.134639
     13          6           0        2.955231   -0.128361    1.319410
     14          6           0        1.942992   -0.828640    2.056623
     15          6           0        0.754820   -0.096856    1.902727
     16          6           0        1.021539    0.802727    0.913121
     17          6           0        6.302742   -1.411249   -0.231594
     18          6           0       -0.521875   -0.426163    2.626874
     19          6           0        6.683349   -0.902573   -1.407104
     20          6           0        0.223821    1.909907    0.397119
     21          6           0       -1.089656    1.882732   -0.100745
     22          6           0        5.437205   -0.371363   -2.123419
     23          6           0       -1.801671    2.982572   -0.749623
     24          6           0        2.110041   -1.983781    3.016345
     25          6           0        7.055664   -2.014944    0.865869
     26          6           0       -3.077134    2.540317   -1.122252
     27          6           0       -1.159518   -1.939616    2.487590
     28          6           0       -3.026652    1.064946   -0.907793
     29          6           0       -1.314270    4.308739   -0.873589
     30          6           0        7.958284   -0.723504   -2.090615
     31          6           0       -1.603077    5.189093    0.477642
     32          6           0       -4.080038    3.278731   -1.792553
     33          6           0       -3.936829    0.100043   -1.383793
     34          6           0       -2.575347   -1.999331    3.098665
     35          6           0       -3.750411   -1.265357   -1.229161
     36          6           0        9.184645   -0.956827   -1.521624
     37          6           0       -1.109399    6.587616    0.484673
     38          6           0       -4.808166   -2.410200   -1.600094
     39          6           0       -4.134145   -3.588758   -1.324366
     40          6           0       -2.745892   -3.235942   -0.669045
     41          6           0       -6.031765   -2.079388   -2.254605
     42          6           0       -4.534588   -5.057591   -1.461077
     43          6           0       -6.937407   -3.056764   -2.584876
     44          1           0        4.285424   -2.272551    0.015017
     45          1           0        4.858351    0.433369    1.214550
     46          1           0        4.794744   -0.896156    2.045749
     47          1           0        2.634646    1.227533   -0.197395
     48          1           0        3.408232   -0.439627   -1.445909
     49          1           0       -0.165744   -0.281631    3.564914
     50          1           0       -1.419846    0.370988    2.259584
     51          1           0        0.685213    2.875781    0.294603
     52          1           0        3.198727   -2.089467    3.336678
     53          1           0        1.497480   -2.071384    3.929479
     54          1           0        2.071809   -3.049458    2.443919
     55          1           0        6.434042   -2.688877    1.461823
     56          1           0        7.625063   -1.272498    1.521769
     57          1           0        7.865852   -2.713320    0.451741
     58          1           0       -1.250776   -2.301970    1.449633
     59          1           0       -0.625457   -2.744172    2.882493
     60          1           0       -1.832735   -0.386175   -0.237477
     61          1           0       -1.922320    4.998528   -1.509309
     62          1           0       -0.290862    4.622708   -1.158105
     63          1           0        7.931401   -0.380245   -3.165279
     64          1           0       -0.817709    4.776818    1.532016
     65          1           0       -2.696059    5.058494    0.746768
     66          1           0       -3.863568    4.200861   -1.954676
     67          1           0       -5.175163    3.377333   -1.316444
     68          1           0       -4.421409    2.969645   -2.677629
     69          1           0       -4.786890    0.564527   -1.872758
     70          1           0        9.395145   -1.321778   -0.475806
     71          1           0        9.905934   -0.652396   -2.319603
     72          1           0       -3.799494   -3.100507    3.904475
     73          1           0       -6.382620   -1.127852   -2.264170
     74          1           0       -4.756553   -5.309946   -2.466065
     75          1           0       -3.830540   -5.972471   -1.123295
     76          1           0       -5.485783   -5.398546   -0.788153
     77          1           0       -1.101817    8.330783    1.383995
     78          1           0       -7.972400   -2.686144   -2.887359
     79          1           0       -6.815870   -4.137796   -2.395357
 ---------------------------------------------------------------------

 SCF Done:  E(RB3LYP) =  -1947.85536968     A.U. after   16 cycles

 Excitation energies and oscillator strengths:

 Excited State   1:      Singlet-A      2.2198 eV  558.53 nm  f=0.4696  <S**2>=0.000
     155 ->156         0.69832
 This state for optimization and/or second-order correction.
 Total Energy, E(TD-HF/TD-KS) =  -1947.77379243
 Copying the excited state density for this state as the 1-particle RhoCI density.

 The electronic state is 1-A.
 Alpha  occ. eigenvalues --  -19.20360 -19.19009 -19.12638 -19.11520 -19.10757
 Alpha  occ. eigenvalues --  -19.10712 -14.38248 -14.35512 -14.35066 -14.29837
 Alpha  occ. eigenvalues --  -10.32538 -10.30940 -10.28628 -10.27747 -10.24241
 Alpha  occ. eigenvalues --  -10.24224 -10.23784 -10.23665 -10.23366 -10.22090
 Alpha  occ. eigenvalues --  -10.21879 -10.21677 -10.21547 -10.21358 -10.21085
 Alpha  occ. eigenvalues --  -10.20903 -10.20765 -10.20603 -10.20594 -10.20464
 Alpha  occ. eigenvalues --  -10.20460 -10.20443 -10.20219 -10.20202 -10.20077
 Alpha  occ. eigenvalues --  -10.19700 -10.19673 -10.19645 -10.18719 -10.18497
 Alpha  occ. eigenvalues --  -10.18316 -10.18139 -10.18031  -1.09566  -1.08969
 Alpha  occ. eigenvalues --   -1.05014  -1.03637  -1.01711  -1.00392  -0.98935
 Alpha  occ. eigenvalues --   -0.97164  -0.95219  -0.91044  -0.83159  -0.82200
 Alpha  occ. eigenvalues --   -0.81875  -0.81227  -0.80280  -0.79830  -0.77241
 Alpha  occ. eigenvalues --   -0.76565  -0.75406  -0.74702  -0.73989  -0.72831
 Alpha  occ. eigenvalues --   -0.71658  -0.71104  -0.69412  -0.68401  -0.68029
 Alpha  occ. eigenvalues --   -0.67645  -0.66214  -0.63667  -0.61440  -0.60515
 Alpha  occ. eigenvalues --   -0.59261  -0.58872  -0.58474  -0.58116  -0.57313
 Alpha  occ. eigenvalues --   -0.56320  -0.55364  -0.55083  -0.54316  -0.53375
 Alpha  occ. eigenvalues --   -0.52454  -0.51909  -0.50942  -0.50093  -0.49263
 Alpha  occ. eigenvalues --   -0.48586  -0.48529  -0.48348  -0.47764  -0.47717
 Alpha  occ. eigenvalues --   -0.47651  -0.47315  -0.46510  -0.46354  -0.45967
 Alpha  occ. eigenvalues --   -0.45224  -0.44945  -0.44602  -0.44208  -0.43875
 Alpha  occ. eigenvalues --   -0.43657  -0.43202  -0.42965  -0.42820  -0.42631
 Alpha  occ. eigenvalues --   -0.42500  -0.42073  -0.41937  -0.41362  -0.40675
 Alpha  occ. eigenvalues --   -0.40505  -0.40285  -0.40050  -0.39733  -0.39489
 Alpha  occ. eigenvalues --   -0.39060  -0.39015  -0.38828  -0.38498  -0.38227
 Alpha  occ. eigenvalues --   -0.37810  -0.37652  -0.37325  -0.36787  -0.36704
 Alpha  occ. eigenvalues --   -0.36394  -0.36186  -0.35054  -0.34510  -0.34025
 Alpha  occ. eigenvalues --   -0.33800  -0.33491  -0.32737  -0.32106  -0.31872
 Alpha  occ. eigenvalues --   -0.31237  -0.30436  -0.29015  -0.28035  -0.27947
 Alpha  occ. eigenvalues --   -0.26871  -0.26132  -0.26064  -0.25020  -0.24627
 Alpha  occ. eigenvalues --   -0.24264  -0.24064  -0.23052  -0.22092  -0.18941
 Alpha virt. eigenvalues --   -0.10020  -0.06393  -0.05342  -0.01332  -0.00556
 Alpha virt. eigenvalues --    0.00038   0.01087   0.01321   0.01704   0.03455
 Alpha virt. eigenvalues --    0.03657   0.03830   0.04090   0.04860   0.05179

 Mulliken charges:
               1
     1  O   -0.164359
     2  O   -0.168399
     3  O   -0.291702
     4  O   -0.227267
     5  O   -0.256757
     6  O   -0.161086
     7  N    0.044451
     8  N   -0.197021
     9  N   -0.091420
    10  N   -0.346875
    11  C    0.123045
    12  C    0.205106
    13  C   -0.137460
    14  C   -0.115485
    15  C   -0.059929
    16  C   -0.000642
    17  C   -0.176408
    18  C    0.092218
    19  C   -0.029732
    20  C   -0.100040
    21  C    0.107416
    22  C    0.145792
    23  C   -0.017644
    24  C    0.034375
    25  C    0.045165
    26  C   -0.091743
    27  C    0.031201
    28  C    0.024495
    29  C    0.049820
    30  C   -0.057142
    31  C   -0.139605
    32  C    0.205007
    33  C   -0.101515
    34  C    0.134271
    35  C    0.113762
    36  C   -0.030044
    37  C    0.168804
    38  C    0.075474
    39  C   -0.175080
    40  C    0.191983
    41  C    0.010784
    42  C   -0.008440
    43  C   -0.039981
    44  H    0.010050
    45  H   -0.037485
    46  H   -0.017032
    47  H    0.101516
    48  H    0.105514
    49  H   -0.013094
    50  H    0.064503
    51  H   -0.012250
    52  H   -0.005494
    53  H    0.034564
    54  H    0.030503
    55  H    0.017778
    56  H    0.053391
    57  H    0.039379
    58  H    0.055359
    59  H   -0.009121
    60  H    0.227582
    61  H    0.014906
    62  H    0.033551
    63  H    0.031890
    64  H    0.066214
    65  H    0.055899
    66  H   -0.072990
    67  H    0.014116
    68  H   -0.021888
    69  H   -0.040135
    70  H    0.033954
    71  H    0.035275
    72  H    0.208528
    73  H   -0.039277
    74  H    0.025478
    75  H    0.043824
    76  H    0.043043
    77  H    0.246312
    78  H    0.030162
    79  H    0.028085
 Sum of Mulliken charges =   0.00000

 Dipole moment (field-independent basis, Debye):
    X=             -0.1032    Y=              1.9656    Z=              2.9088  Tot=              3.5121
 Quadrupole moment (field-independent basis, Debye-Ang):
   XX=           -222.7553   YY=           -232.3600   ZZ=           -261.7550
   XY=            -12.0217   XZ=             29.1942   YZ=             -1.8297

 Normal termination of Gaussian 09 at Mon Jul  8 22:05:58 2019.
