 Gaussian 09, Revision D.01,
 Gaussian 09:  ES64L-G09RevD.01 24-Apr-2013

 --------------------------
 # td=(NStates=1) B3LYP/SVP
 --------------------------

 --
 TD
 --
 Symbolic Z-matrix:
 Charge =  0 Multiplicity = 1

                         Standard orientation:
 ---------------------------------------------------------------------
 Center     Atomic      Atomic             Coordinates (Angstroms)
 Number     Number       Type             X           Y           Z
 ---------------------------------------------------------------------
      1          8           0        5.377107    0.085987   -3.265482
      2          8           0       -3.007297   -3.204636    2.954805
      3          8           0       -3.191579   -0.999669    3.248263
      4          8           0       -1.959333    7.135213    1.642332
      5          8           0       -0.400588    6.973418   -0.058086
      6          8           0       -2.013406   -3.924692   -0.014886
      7          7           0        2.402752    0.859132    0.577705
      8          7           0        4.339404   -0.581271   -1.265539
      9          7           0       -1.801897    0.701120   -0.462179
     10          7           0       -2.709969   -1.804984   -0.423855
     11          6           0        4.818159   -1.213591    0.015947
     12          6           0        4.474654   -0.311328    1.195261
     13          6           0        3.093042   -0.067666    1.242517
     14          6           0        2.154251   -0.892188    2.019588
     15          6           0        0.764636   -0.172177    1.724907
     16          6           0        1.023438    0.867376    0.803419
     17          6           0        6.338016   -1.284283   -0.202454
     18          6           0       -0.537696   -0.445182    2.437872
     19          6           0        6.767469   -0.827697   -1.373316
     20          6           0        0.297548    1.853296    0.157867
     21          6           0       -0.985978    1.847325   -0.324353
     22          6           0        5.424740   -0.369180   -2.122641
     23          6           0       -1.855959    2.983481   -0.918897
     24          6           0        2.372956   -1.869037    3.106885
     25          6           0        7.166350   -1.963511    0.893714
     26          6           0       -2.979551    2.393026   -1.301932
     27          6           0       -0.996983   -1.861478    2.486288
     28          6           0       -3.045192    0.935689   -1.062144
     29          6           0       -1.325213    4.396405   -0.829012
     30          6           0        8.007301   -0.685192   -2.135388
     31          6           0       -1.830808    5.004497    0.384994
     32          6           0       -4.277455    3.140521   -1.835842
     33          6           0       -4.003883    0.008478   -1.370682
     34          6           0       -2.522521   -1.975843    2.999188
     35          6           0       -3.796837   -1.360140   -1.015937
     36          6           0        9.197853   -0.855184   -1.490927
     37          6           0       -1.229516    6.416185    0.664378
     38          6           0       -4.707982   -2.366837   -1.516967
     39          6           0       -4.216046   -3.631888   -1.048972
     40          6           0       -2.820381   -3.168832   -0.489381
     41          6           0       -6.130476   -2.156567   -2.011226
     42          6           0       -4.547807   -5.114227   -1.308867
     43          6           0       -6.979282   -3.031398   -2.547343
     44          1           0        4.387067   -2.132230   -0.006093
     45          1           0        4.991554    0.621136    0.780350
     46          1           0        5.068327   -0.608899    2.239305
     47          1           0        2.799745    1.776008    0.093479
     48          1           0        3.483380   -0.682203   -1.634367
     49          1           0       -0.465470    0.060885    3.533077
     50          1           0       -1.493517    0.251044    1.932429
     51          1           0        0.571226    2.905909    0.073749
     52          1           0        3.375107   -2.078974    3.282819
     53          1           0        1.806537   -1.606708    4.017236
     54          1           0        1.900980   -2.874401    2.842597
     55          1           0        6.684646   -2.642405    1.471523
     56          1           0        7.637139   -1.173323    1.501755
     57          1           0        7.911033   -2.542869    0.292124
     58          1           0       -0.882314   -2.280054    1.608406
     59          1           0       -0.354548   -2.269418    3.174191
     60          1           0       -1.562240   -0.315629   -0.266018
     61          1           0       -1.797926    4.965338   -1.631181
     62          1           0       -0.269565    4.360011   -1.090815
     63          1           0        7.978294   -0.667200   -3.175063
     64          1           0       -1.685591    4.474975    1.219001
     65          1           0       -3.051079    5.051159    0.489368
     66          1           0       -4.239501    4.026786   -2.037682
     67          1           0       -5.080708    3.012801   -1.196252
     68          1           0       -4.683408    2.637152   -2.726009
     69          1           0       -4.765195    0.545584   -1.800127
     70          1           0        9.241615   -0.984849   -0.360460
     71          1           0       10.146081   -0.664223   -2.263877
     72          1           0       -3.771788   -3.048264    3.699864
     73          1           0       -6.327971   -0.998499   -2.237362
     74          1           0       -4.679988   -5.012569   -2.478040
     75          1           0       -3.777475   -5.756276   -1.089651
     76          1           0       -5.604505   -5.620185   -0.807789
     77          1           0       -1.376665    7.925819    1.550358
     78          1           0       -7.912440   -2.593971   -2.925706
     79          1           0       -6.917181   -4.141531   -2.472895
 ---------------------------------------------------------------------

 SCF Done:  E(RB3LYP) =  -1947.77874352     A.U. after   16 cycles

 Excitation energies and oscillator strengths:

 Excited State   1:      Singlet-A      2.1256 eV  583.29 nm  f=0.4094  <S**2>=0.000
     155 ->156         0.70042
 This state for optimization and/or second-order correction.
 Total Energy, E(TD-HF/TD-KS) =  -1947.70062902
 Copying the excited state density for this state as the 1-particle RhoCI density.

 The electronic state is 1-A.
 Alpha  occ. eigenvalues --  -19.19132 -19.18176 -19.15040 -19.11524 -19.10342
 Alpha  occ. eigenvalues --  -19.09955 -14.38554 -14.35877 -14.34495 -14.29495
 Alpha  occ. eigenvalues --  -10.33868 -10.30802 -10.28553 -10.26505 -10.24650
 Alpha  occ. eigenvalues --  -10.24305 -10.24278 -10.24026 -10.23114 -10.22556
 Alpha  occ. eigenvalues --  -10.22419 -10.22305 -10.21720 -10.21627 -10.21479
 Alpha  occ. eigenvalues --  -10.21429 -10.21422 -10.21368 -10.21319 -10.21182
 Alpha  occ. eigenvalues --  -10.20980 -10.20656 -10.20414 -10.20249 -10.20196
 Alpha  occ. eigenvalues --  -10.20121 -10.20080 -10.19932 -10.19507 -10.19396
 Alpha  occ. eigenvalues --  -10.18652 -10.18330 -10.16968  -1.09283  -1.09026
 Alpha  occ. eigenvalues --   -1.02438  -1.01200  -1.00839  -0.99208  -0.97879
 Alpha  occ. eigenvalues --   -0.96221  -0.93192  -0.93060  -0.83877  -0.82524
 Alpha  occ. eigenvalues --   -0.82200  -0.80249  -0.79481  -0.79351  -0.78379
 Alpha  occ. eigenvalues --   -0.77337  -0.76031  -0.75297  -0.74511  -0.72997
 Alpha  occ. eigenvalues --   -0.71459  -0.71227  -0.70155  -0.69267  -0.68521
 Alpha  occ. eigenvalues --   -0.65795  -0.64378  -0.63753  -0.60216  -0.59803
 Alpha  occ. eigenvalues --   -0.58746  -0.58648  -0.58250  -0.57353  -0.56942
 Alpha  occ. eigenvalues --   -0.56335  -0.55557  -0.54056  -0.52942  -0.52748
 Alpha  occ. eigenvalues --   -0.52004  -0.51510  -0.50699  -0.50535  -0.50050
 Alpha  occ. eigenvalues --   -0.49796  -0.48734  -0.48286  -0.48010  -0.47803
 Alpha  occ. eigenvalues --   -0.47501  -0.46874  -0.46448  -0.45930  -0.45576
 Alpha  occ. eigenvalues --   -0.45155  -0.44672  -0.44606  -0.44300  -0.43544
 Alpha  occ. eigenvalues --   -0.43459  -0.43288  -0.43015  -0.42900  -0.42810
 Alpha  occ. eigenvalues --   -0.42376  -0.42059  -0.42008  -0.41602  -0.41173
 Alpha  occ. eigenvalues --   -0.40933  -0.40643  -0.40345  -0.40029  -0.39714
 Alpha  occ. eigenvalues --   -0.39512  -0.39404  -0.39026  -0.38702  -0.38478
 Alpha  occ. eigenvalues --   -0.38312  -0.38093  -0.37560  -0.37384  -0.37034
 Alpha  occ. eigenvalues --   -0.36216  -0.35971  -0.35038  -0.34737  -0.34590
 Alpha  occ. eigenvalues --   -0.33765  -0.33574  -0.33351  -0.31987  -0.31158
 Alpha  occ. eigenvalues --   -0.30971  -0.30177  -0.29901  -0.28979  -0.28469
 Alpha  occ. eigenvalues --   -0.26921  -0.26465  -0.26440  -0.24969  -0.24503
 Alpha  occ. eigenvalues --   -0.24026  -0.23813  -0.22520  -0.22088  -0.19151
 Alpha virt. eigenvalues --   -0.10678  -0.05895  -0.04969  -0.03009  -0.00653
 Alpha virt. eigenvalues --    0.00647   0.01150   0.01332   0.02235   0.03354
 Alpha virt. eigenvalues --    0.03700   0.03891   0.04189   0.05387   0.05443

 Mulliken charges:
               1
     1  O   -0.236763
     2  O   -0.191345
     3  O   -0.233410
     4  O   -0.217545
     5  O   -0.240253
     6  O   -0.179994
     7  N   -0.083637
     8  N   -0.197084
     9  N   -0.152564
    10  N   -0.230761
    11  C    0.173029
    12  C    0.117477
    13  C   -0.054411
    14  C   -0.167581
    15  C   -0.074172
    16  C    0.164656
    17  C   -0.251174
    18  C   -0.112671
    19  C   -0.005039
    20  C   -0.064044
    21  C   -0.014783
    22  C    0.135344
    23  C   -0.111024
    24  C    0.120992
    25  C    0.113027
    26  C   -0.132733
    27  C    0.157084
    28  C    0.057476
    29  C    0.173919
    30  C    0.025209
    31  C    0.016025
    32  C    0.248320
    33  C   -0.029864
    34  C    0.129399
    35  C    0.155319
    36  C   -0.077230
    37  C    0.178538
    38  C   -0.046719
    39  C   -0.150894
    40  C    0.117153
    41  C   -0.018481
    42  C    0.022052
    43  C   -0.042837
    44  H   -0.015202
    45  H   -0.010594
    46  H    0.056302
    47  H    0.158490
    48  H    0.095489
    49  H    0.029532
    50  H    0.052629
    51  H   -0.027448
    52  H   -0.023669
    53  H    0.027611
    54  H    0.029539
    55  H   -0.013163
    56  H    0.044352
    57  H    0.040170
    58  H   -0.010454
    59  H   -0.018863
    60  H    0.170879
    61  H    0.001285
    62  H    0.035092
    63  H   -0.001029
    64  H   -0.007206
    65  H    0.068491
    66  H   -0.088796
    67  H   -0.002062
    68  H    0.006347
    69  H   -0.089359
    70  H    0.040784
    71  H    0.054911
    72  H    0.211957
    73  H    0.023744
    74  H    0.060999
    75  H    0.016861
    76  H    0.061321
    77  H    0.174970
    78  H    0.027405
    79  H    0.030680
 Sum of Mulliken charges =   0.00000

 Dipole moment (field-independent basis, Debye):
    X=              0.0176    Y=              0.9358    Z=              3.0439  Tot=              3.1846
 Quadrupole moment (field-independent basis, Debye-Ang):
   XX=           -223.7424   YY=           -246.1067   ZZ=           -258.3153
   XY=            -10.1827   XZ=             30.7003   YZ=             -0.8862

 Normal termination of Gaussian 09 at Wed Jul 10 00:22:41 2019.
