 Gaussian 09, Revision D.01,
 Gaussian 09:  ES64L-G09RevD.01 24-Apr-2013

 --------------------------
 # td=(NStates=1) B3LYP/SVP
 --------------------------

 --
 TD
 --
 Symbolic Z-matrix:
 Charge =  0 Multiplicity = 1

                         Standard orientation:
 ---------------------------------------------------------------------
 Center     Atomic      Atomic             Coordinates (Angstroms)
 Number     Number       Type             X           Y           Z
 ---------------------------------------------------------------------
      1          8           0        5.222863   -0.513699   -3.401672
      2          8           0       -2.983019   -3.096039    3.294754
      3          8           0       -3.141282   -0.893927    3.569274
      4          8           0       -0.924113    7.269547    1.573316
      5          8           0       -0.392360    6.970312   -0.649790
      6          8           0       -2.235684   -4.045381   -0.278297
      7          7           0        2.393828    0.712569    0.568186
      8          7           0        4.331835   -0.801675   -1.319433
      9          7           0       -1.942824    0.751045   -0.252770
     10          7           0       -2.888738   -1.795386   -0.493036
     11          6           0        4.872382   -1.341535   -0.041181
     12          6           0        4.593661   -0.475941    1.100415
     13          6           0        3.083502   -0.232034    1.421582
     14          6           0        2.086015   -0.815137    2.125750
     15          6           0        0.814656   -0.256433    1.849763
     16          6           0        1.043024    0.676242    0.799144
     17          6           0        6.385905   -1.568626   -0.330654
     18          6           0       -0.468806   -0.458756    2.548822
     19          6           0        6.603775   -1.087424   -1.509082
     20          6           0        0.222416    1.684658    0.195254
     21          6           0       -0.970241    1.837926   -0.213796
     22          6           0        5.423334   -0.706514   -2.186704
     23          6           0       -1.800602    2.902343   -0.658210
     24          6           0        2.339724   -1.813410    3.200908
     25          6           0        7.246067   -1.952195    0.812837
     26          6           0       -3.076732    2.539040   -1.083263
     27          6           0       -1.099845   -1.869153    2.511407
     28          6           0       -3.141155    1.112493   -0.862620
     29          6           0       -1.200783    4.325141   -0.734289
     30          6           0        7.932127   -0.820439   -2.175327
     31          6           0       -1.552661    5.132031    0.502887
     32          6           0       -4.170870    3.399002   -1.700243
     33          6           0       -4.064284    0.153770   -1.231982
     34          6           0       -2.520254   -1.872375    3.098548
     35          6           0       -3.969156   -1.228453   -1.141352
     36          6           0        9.149469   -0.635096   -1.563682
     37          6           0       -0.854522    6.591140    0.392928
     38          6           0       -4.957103   -2.321308   -1.444107
     39          6           0       -4.419500   -3.505577   -1.143852
     40          6           0       -3.014234   -3.175843   -0.598025
     41          6           0       -6.242076   -1.921171   -2.042240
     42          6           0       -4.806681   -4.898457   -1.577858
     43          6           0       -7.184112   -2.636285   -2.622519
     44          1           0        4.541276   -2.313380    0.026694
     45          1           0        5.034466    0.585077    0.588068
     46          1           0        5.086755   -0.761581    1.875208
     47          1           0        2.778851    1.364324   -0.121934
     48          1           0        3.519071   -1.093625   -1.564266
     49          1           0       -0.292387   -0.167072    3.469019
     50          1           0       -1.237213    0.246642    2.185726
     51          1           0        0.940663    2.572997    0.175433
     52          1           0        3.339061   -2.210332    3.421414
     53          1           0        1.978523   -1.464487    4.188841
     54          1           0        1.751473   -2.840158    2.957515
     55          1           0        6.760622   -2.859594    1.407581
     56          1           0        7.512926   -1.024095    1.375526
     57          1           0        8.182569   -2.471396    0.527657
     58          1           0       -1.284696   -2.312585    1.420514
     59          1           0       -0.512168   -2.501664    3.072787
     60          1           0       -1.730157   -0.232706   -0.280515
     61          1           0       -1.458917    4.779133   -1.686324
     62          1           0       -0.150209    4.304325   -0.895165
     63          1           0        7.719593   -0.526510   -3.225060
     64          1           0       -0.722345    4.616532    1.138666
     65          1           0       -2.487728    5.053184    0.816464
     66          1           0       -3.960259    4.478395   -1.619632
     67          1           0       -5.065028    3.258602   -0.987305
     68          1           0       -4.539157    3.136390   -2.824933
     69          1           0       -4.904782    0.737102   -1.656877
     70          1           0        8.973097   -0.700361   -0.425612
     71          1           0       10.048847   -0.174667   -2.228212
     72          1           0       -3.749332   -3.042244    3.731482
     73          1           0       -6.466776   -0.846444   -1.910084
     74          1           0       -4.963594   -4.763310   -2.841960
     75          1           0       -4.110148   -5.673107   -1.307120
     76          1           0       -5.889729   -5.123880   -1.107075
     77          1           0       -0.732462    8.191588    1.392123
     78          1           0       -8.314366   -2.416021   -2.939981
     79          1           0       -6.920933   -3.967202   -2.725514
 ---------------------------------------------------------------------

 SCF Done:  E(RB3LYP) =  -1947.80507084     A.U. after   16 cycles

 Excitation energies and oscillator strengths:

 Excited State   1:      Singlet-A      2.2405 eV  553.37 nm  f=0.3786  <S**2>=0.000
     154 ->156         0.14230
     155 ->156         0.68317
 This state for optimization and/or second-order correction.
 Total Energy, E(TD-HF/TD-KS) =  -1947.72273358
 Copying the excited state density for this state as the 1-particle RhoCI density.

 The electronic state is 1-A.
 Alpha  occ. eigenvalues --  -19.19832 -19.16543 -19.14566 -19.10395 -19.10248
 Alpha  occ. eigenvalues --  -19.09906 -14.37760 -14.35145 -14.34003 -14.28917
 Alpha  occ. eigenvalues --  -10.33853 -10.30575 -10.28497 -10.26143 -10.24935
 Alpha  occ. eigenvalues --  -10.23894 -10.23861 -10.23771 -10.23452 -10.23089
 Alpha  occ. eigenvalues --  -10.22945 -10.22623 -10.22439 -10.22266 -10.22097
 Alpha  occ. eigenvalues --  -10.22033 -10.22007 -10.21747 -10.21574 -10.21572
 Alpha  occ. eigenvalues --  -10.20988 -10.20809 -10.20340 -10.20296 -10.20033
 Alpha  occ. eigenvalues --  -10.19886 -10.19747 -10.19260 -10.19251 -10.19149
 Alpha  occ. eigenvalues --  -10.19078 -10.18864 -10.17447  -1.10676  -1.10034
 Alpha  occ. eigenvalues --   -1.02910  -1.01887  -1.01469  -0.97485  -0.97326
 Alpha  occ. eigenvalues --   -0.96747  -0.94168  -0.91094  -0.84217  -0.83261
 Alpha  occ. eigenvalues --   -0.82190  -0.81577  -0.80489  -0.79743  -0.77989
 Alpha  occ. eigenvalues --   -0.77576  -0.76501  -0.75537  -0.74316  -0.73532
 Alpha  occ. eigenvalues --   -0.72701  -0.71287  -0.69478  -0.68621  -0.68120
 Alpha  occ. eigenvalues --   -0.67838  -0.66069  -0.64548  -0.61675  -0.61506
 Alpha  occ. eigenvalues --   -0.61232  -0.60136  -0.59453  -0.58062  -0.56885
 Alpha  occ. eigenvalues --   -0.56071  -0.55951  -0.55353  -0.54240  -0.52816
 Alpha  occ. eigenvalues --   -0.52522  -0.52092  -0.51015  -0.50104  -0.49901
 Alpha  occ. eigenvalues --   -0.49493  -0.49078  -0.48922  -0.48461  -0.47888
 Alpha  occ. eigenvalues --   -0.47302  -0.46885  -0.46572  -0.46278  -0.45862
 Alpha  occ. eigenvalues --   -0.44994  -0.44622  -0.44457  -0.44017  -0.43843
 Alpha  occ. eigenvalues --   -0.43621  -0.43080  -0.42721  -0.42632  -0.42194
 Alpha  occ. eigenvalues --   -0.42016  -0.41591  -0.41416  -0.41165  -0.40767
 Alpha  occ. eigenvalues --   -0.40697  -0.40301  -0.40133  -0.40053  -0.39822
 Alpha  occ. eigenvalues --   -0.39618  -0.39170  -0.39091  -0.38639  -0.38230
 Alpha  occ. eigenvalues --   -0.38111  -0.37699  -0.37641  -0.37095  -0.36503
 Alpha  occ. eigenvalues --   -0.36357  -0.35814  -0.34941  -0.34649  -0.34448
 Alpha  occ. eigenvalues --   -0.34101  -0.33450  -0.33034  -0.32067  -0.31846
 Alpha  occ. eigenvalues --   -0.31368  -0.30110  -0.29281  -0.29107  -0.27030
 Alpha  occ. eigenvalues --   -0.26942  -0.25934  -0.25865  -0.25561  -0.25306
 Alpha  occ. eigenvalues --   -0.24720  -0.23916  -0.23391  -0.22413  -0.19973
 Alpha virt. eigenvalues --   -0.10961  -0.06249  -0.06025  -0.00824  -0.00539
 Alpha virt. eigenvalues --   -0.00410   0.00742   0.01462   0.02456   0.02872
 Alpha virt. eigenvalues --    0.04142   0.04271   0.04436   0.04571   0.05183

 Mulliken charges:
               1
     1  O   -0.249026
     2  O   -0.092868
     3  O   -0.285306
     4  O   -0.179343
     5  O   -0.202956
     6  O   -0.198739
     7  N   -0.130381
     8  N   -0.131488
     9  N   -0.146897
    10  N   -0.314838
    11  C    0.092700
    12  C    0.243069
    13  C   -0.025459
    14  C   -0.112005
    15  C   -0.079922
    16  C    0.031308
    17  C   -0.220050
    18  C    0.195581
    19  C   -0.019959
    20  C   -0.152164
    21  C    0.228389
    22  C    0.147020
    23  C   -0.099834
    24  C    0.024820
    25  C    0.042163
    26  C   -0.077012
    27  C   -0.011843
    28  C    0.030306
    29  C    0.099582
    30  C   -0.005776
    31  C    0.030932
    32  C    0.034664
    33  C   -0.067924
    34  C    0.122076
    35  C    0.132837
    36  C   -0.064057
    37  C    0.147527
    38  C    0.093532
    39  C   -0.206618
    40  C    0.156826
    41  C    0.016672
    42  C    0.002312
    43  C   -0.148746
    44  H   -0.013761
    45  H    0.016931
    46  H   -0.066233
    47  H    0.118420
    48  H    0.072333
    49  H   -0.048832
    50  H    0.007633
    51  H    0.005998
    52  H   -0.001556
    53  H    0.026042
    54  H    0.041538
    55  H    0.041428
    56  H    0.072048
    57  H    0.040061
    58  H    0.099314
    59  H    0.000464
    60  H    0.127620
    61  H    0.007063
    62  H   -0.017696
    63  H    0.018444
    64  H    0.046652
    65  H    0.006588
    66  H    0.023054
    67  H    0.041925
    68  H    0.069538
    69  H   -0.033533
    70  H    0.025695
    71  H    0.074297
    72  H    0.124713
    73  H   -0.001472
    74  H    0.066397
    75  H    0.035982
    76  H    0.052216
    77  H    0.177778
    78  H    0.061802
    79  H    0.032000
 Sum of Mulliken charges =   0.00000

 Dipole moment (field-independent basis, Debye):
    X=              1.8533    Y=              3.8173    Z=              3.4349  Tot=              5.4594
 Quadrupole moment (field-independent basis, Debye-Ang):
   XX=           -217.0494   YY=           -236.4416   ZZ=           -270.0494
   XY=            -14.0305   XZ=             33.9955   YZ=             -1.7773

 Normal termination of Gaussian 09 at Wed Jul 10 17:24:38 2019.
