 Gaussian 09, Revision D.01,
 Gaussian 09:  ES64L-G09RevD.01 24-Apr-2013

 --------------------------
 # td=(NStates=1) B3LYP/SVP
 --------------------------

 --
 TD
 --
 Symbolic Z-matrix:
 Charge =  0 Multiplicity = 1

                         Standard orientation:
 ---------------------------------------------------------------------
 Center     Atomic      Atomic             Coordinates (Angstroms)
 Number     Number       Type             X           Y           Z
 ---------------------------------------------------------------------
      1          8           0        5.467593   -0.137627   -3.305985
      2          8           0       -2.769462   -3.055565    3.332735
      3          8           0       -3.304710   -0.937472    3.050444
      4          8           0       -1.886497    7.405025    1.269633
      5          8           0       -0.432249    6.878805   -0.452943
      6          8           0       -1.842118   -4.045742    0.009963
      7          7           0        2.342795    1.109367    0.603787
      8          7           0        4.432042   -0.589186   -1.313493
      9          7           0       -2.029663    0.642766   -0.322737
     10          7           0       -2.602585   -1.858435   -0.501620
     11          6           0        4.806832   -1.107449    0.012861
     12          6           0        4.477117   -0.075366    1.087742
     13          6           0        3.053124    0.161688    1.355401
     14          6           0        2.161585   -0.562760    2.142975
     15          6           0        0.829408   -0.023337    1.788744
     16          6           0        0.962855    0.909148    0.867653
     17          6           0        6.329964   -1.234526   -0.182106
     18          6           0       -0.511315   -0.291114    2.450716
     19          6           0        6.701270   -0.866855   -1.383983
     20          6           0        0.134003    1.848803    0.222099
     21          6           0       -1.189771    1.693188   -0.202696
     22          6           0        5.459309   -0.465013   -2.214699
     23          6           0       -2.036809    2.887124   -0.680759
     24          6           0        2.369433   -1.662823    3.075453
     25          6           0        7.164890   -1.731958    1.061537
     26          6           0       -3.165246    2.224477   -1.194551
     27          6           0       -0.953972   -1.739994    2.587229
     28          6           0       -3.234633    0.984072   -0.792364
     29          6           0       -1.565061    4.264747   -0.944048
     30          6           0        8.004603   -0.883572   -2.099320
     31          6           0       -1.957974    5.187292    0.371931
     32          6           0       -4.378562    3.110086   -1.912321
     33          6           0       -4.096781   -0.067626   -1.250730
     34          6           0       -2.441526   -1.822180    3.006519
     35          6           0       -3.784307   -1.473984   -1.101205
     36          6           0        9.283651   -0.939767   -1.618775
     37          6           0       -1.292075    6.510664    0.316208
     38          6           0       -4.707138   -2.596773   -1.378004
     39          6           0       -4.010291   -3.797042   -1.041541
     40          6           0       -2.718353   -3.284786   -0.495199
     41          6           0       -5.979687   -2.450546   -2.053868
     42          6           0       -4.450979   -5.216468   -1.214550
     43          6           0       -6.709665   -3.437417   -2.705127
     44          1           0        4.281381   -2.265505    0.203527
     45          1           0        4.992011    0.862331    0.972485
     46          1           0        4.910077   -0.442133    2.006001
     47          1           0        2.568441    1.555341   -0.273298
     48          1           0        3.478389   -0.554905   -1.622142
     49          1           0       -0.285037    0.132420    3.338031
     50          1           0       -1.330130    0.227270    1.950092
     51          1           0        0.462923    2.922820   -0.066774
     52          1           0        3.487173   -1.681444    3.364493
     53          1           0        1.859640   -1.591119    4.076451
     54          1           0        2.177391   -2.805288    2.776929
     55          1           0        6.720929   -2.277428    2.030191
     56          1           0        7.673789   -0.826815    1.556239
     57          1           0        7.954796   -2.402773    0.664571
     58          1           0       -1.113940   -2.316617    1.586119
     59          1           0       -0.400781   -2.435639    3.332307
     60          1           0       -1.820612   -0.465838   -0.313934
     61          1           0       -1.885385    4.895576   -1.736309
     62          1           0       -0.421865    4.505422   -0.948010
     63          1           0        7.921568   -0.987440   -3.120453
     64          1           0       -1.681510    4.630441    1.318587
     65          1           0       -2.965333    5.218723    0.387746
     66          1           0       -3.944993    4.118183   -2.523866
     67          1           0       -4.936770    3.547302   -0.789377
     68          1           0       -5.172838    2.439530   -2.652428
     69          1           0       -5.051044    0.377837   -1.646328
     70          1           0        9.353508   -1.175657   -0.573951
     71          1           0       10.152584   -0.899520   -2.373430
     72          1           0       -3.726927   -3.121973    3.605511
     73          1           0       -6.439359   -1.560766   -2.090705
     74          1           0       -4.308292   -5.651477   -2.141813
     75          1           0       -3.976991   -5.855552   -0.306123
     76          1           0       -5.424914   -5.142713   -1.000021
     77          1           0       -1.347057    8.295842    1.291887
     78          1           0       -7.673427   -3.300275   -3.056335
     79          1           0       -6.269375   -4.258718   -3.005565
 ---------------------------------------------------------------------

 SCF Done:  E(RB3LYP) =  -1947.81035956     A.U. after   17 cycles

 Excitation energies and oscillator strengths:

 Excited State   1:      Singlet-A      2.0040 eV  618.68 nm  f=0.4339  <S**2>=0.000
     154 ->156         0.18254
     155 ->156         0.68236
     155 <-156        -0.13087
 This state for optimization and/or second-order correction.
 Total Energy, E(TD-HF/TD-KS) =  -1947.73671383
 Copying the excited state density for this state as the 1-particle RhoCI density.

 The electronic state is 1-A.
 Alpha  occ. eigenvalues --  -19.18125 -19.16656 -19.14879 -19.11016 -19.10041
 Alpha  occ. eigenvalues --  -19.09757 -14.37498 -14.35359 -14.35038 -14.30349
 Alpha  occ. eigenvalues --  -10.33604 -10.30110 -10.28443 -10.26677 -10.26612
 Alpha  occ. eigenvalues --  -10.25666 -10.24627 -10.24097 -10.23941 -10.23210
 Alpha  occ. eigenvalues --  -10.22882 -10.22556 -10.22302 -10.22150 -10.22144
 Alpha  occ. eigenvalues --  -10.22109 -10.21676 -10.21169 -10.21132 -10.20929
 Alpha  occ. eigenvalues --  -10.20883 -10.20674 -10.20098 -10.20013 -10.19944
 Alpha  occ. eigenvalues --  -10.19936 -10.19861 -10.19756 -10.19527 -10.19375
 Alpha  occ. eigenvalues --  -10.18522 -10.18459 -10.18224  -1.08204  -1.08041
 Alpha  occ. eigenvalues --   -1.07094  -0.99829  -0.99655  -0.98633  -0.97759
 Alpha  occ. eigenvalues --   -0.96935  -0.94559  -0.90674  -0.82486  -0.81955
 Alpha  occ. eigenvalues --   -0.81715  -0.81389  -0.80427  -0.79854  -0.77595
 Alpha  occ. eigenvalues --   -0.76924  -0.76162  -0.75487  -0.74570  -0.72377
 Alpha  occ. eigenvalues --   -0.70867  -0.70542  -0.70156  -0.68721  -0.67372
 Alpha  occ. eigenvalues --   -0.66226  -0.66043  -0.64068  -0.61762  -0.60791
 Alpha  occ. eigenvalues --   -0.59543  -0.58829  -0.58591  -0.58079  -0.57298
 Alpha  occ. eigenvalues --   -0.56880  -0.55992  -0.54519  -0.53970  -0.53274
 Alpha  occ. eigenvalues --   -0.52227  -0.51596  -0.51014  -0.50399  -0.49644
 Alpha  occ. eigenvalues --   -0.48749  -0.48286  -0.48176  -0.47731  -0.47369
 Alpha  occ. eigenvalues --   -0.46773  -0.46421  -0.45991  -0.45694  -0.45468
 Alpha  occ. eigenvalues --   -0.45072  -0.44947  -0.44650  -0.43970  -0.43755
 Alpha  occ. eigenvalues --   -0.43586  -0.43012  -0.42873  -0.42808  -0.42017
 Alpha  occ. eigenvalues --   -0.41887  -0.41670  -0.41438  -0.41040  -0.40650
 Alpha  occ. eigenvalues --   -0.40231  -0.40058  -0.40012  -0.39922  -0.39783
 Alpha  occ. eigenvalues --   -0.39378  -0.38991  -0.38757  -0.38293  -0.38147
 Alpha  occ. eigenvalues --   -0.37999  -0.37773  -0.37654  -0.37342  -0.37077
 Alpha  occ. eigenvalues --   -0.36860  -0.36296  -0.35193  -0.34942  -0.34807
 Alpha  occ. eigenvalues --   -0.33575  -0.33445  -0.32956  -0.32879  -0.31104
 Alpha  occ. eigenvalues --   -0.30768  -0.29895  -0.29847  -0.28881  -0.28315
 Alpha  occ. eigenvalues --   -0.27210  -0.26411  -0.25647  -0.25360  -0.24826
 Alpha  occ. eigenvalues --   -0.24433  -0.23861  -0.23719  -0.22230  -0.19330
 Alpha virt. eigenvalues --   -0.11718  -0.07291  -0.05056  -0.01975  -0.01175
 Alpha virt. eigenvalues --    0.00180   0.01206   0.01595   0.02414   0.02761
 Alpha virt. eigenvalues --    0.03246   0.03623   0.04408   0.04768   0.04933

 Mulliken charges:
               1
     1  O   -0.119290
     2  O   -0.170871
     3  O   -0.272263
     4  O   -0.287811
     5  O   -0.209340
     6  O   -0.256881
     7  N   -0.127423
     8  N   -0.216746
     9  N   -0.097545
    10  N   -0.326679
    11  C    0.044910
    12  C    0.231329
    13  C   -0.056978
    14  C   -0.076520
    15  C   -0.097379
    16  C    0.130021
    17  C   -0.157852
    18  C    0.176922
    19  C   -0.047894
    20  C   -0.127947
    21  C    0.043929
    22  C    0.121185
    23  C   -0.025396
    24  C    0.006126
    25  C   -0.008284
    26  C   -0.105927
    27  C   -0.076641
    28  C    0.097545
    29  C    0.016018
    30  C   -0.012891
    31  C   -0.011744
    32  C   -0.116331
    33  C   -0.110431
    34  C    0.114206
    35  C    0.125703
    36  C   -0.018287
    37  C    0.183551
    38  C    0.056145
    39  C   -0.199876
    40  C    0.181583
    41  C   -0.018136
    42  C    0.151765
    43  C    0.050859
    44  H    0.066425
    45  H   -0.012201
    46  H   -0.018494
    47  H    0.118111
    48  H    0.113271
    49  H   -0.021780
    50  H    0.023117
    51  H    0.019590
    52  H   -0.000940
    53  H    0.027274
    54  H    0.057225
    55  H    0.046191
    56  H    0.048053
    57  H    0.048340
    58  H    0.093225
    59  H    0.042040
    60  H    0.204744
    61  H    0.011541
    62  H    0.047217
    63  H   -0.017138
    64  H    0.063994
    65  H    0.012287
    66  H    0.067589
    67  H    0.070897
    68  H    0.075775
    69  H   -0.006076
    70  H   -0.001165
    71  H    0.048715
    72  H    0.191939
    73  H   -0.053276
    74  H    0.031094
    75  H    0.042994
    76  H   -0.011909
    77  H    0.214263
    78  H    0.006021
    79  H   -0.027389
 Sum of Mulliken charges =   0.00000

 Dipole moment (field-independent basis, Debye):
    X=              0.1852    Y=              2.0952    Z=              2.2794  Tot=              3.1016
 Quadrupole moment (field-independent basis, Debye-Ang):
   XX=           -227.9315   YY=           -244.1480   ZZ=           -257.4024
   XY=             -6.3100   XZ=             32.6598   YZ=              2.3188

 Normal termination of Gaussian 09 at Sun Jul  7 16:26:43 2019.
