 Gaussian 09, Revision D.01,
 Gaussian 09:  ES64L-G09RevD.01 24-Apr-2013

 --------------------------
 # td=(NStates=1) B3LYP/SVP
 --------------------------

 --
 TD
 --
 Symbolic Z-matrix:
 Charge =  0 Multiplicity = 1

                         Standard orientation:
 ---------------------------------------------------------------------
 Center     Atomic      Atomic             Coordinates (Angstroms)
 Number     Number       Type             X           Y           Z
 ---------------------------------------------------------------------
      1          8           0        5.255074   -0.336944   -3.304962
      2          8           0       -2.676915   -3.043714    3.483846
      3          8           0       -3.130915   -0.902100    2.962083
      4          8           0       -1.072370    7.098041    1.616723
      5          8           0       -0.298883    7.099420   -0.506459
      6          8           0       -2.113798   -4.040194    0.064629
      7          7           0        2.489055    0.954827    0.503154
      8          7           0        4.267395   -0.706491   -1.262988
      9          7           0       -1.890871    0.743072   -0.319250
     10          7           0       -2.798737   -1.827728   -0.453032
     11          6           0        4.818426   -1.254456   -0.011250
     12          6           0        4.456606   -0.251199    1.097387
     13          6           0        3.011234    0.016189    1.272969
     14          6           0        2.079466   -0.555705    2.102103
     15          6           0        0.777034   -0.033458    1.745377
     16          6           0        1.017402    0.880387    0.688080
     17          6           0        6.263634   -1.460148   -0.238662
     18          6           0       -0.476011   -0.296653    2.488172
     19          6           0        6.549742   -1.062652   -1.494018
     20          6           0        0.186853    1.912011   -0.000581
     21          6           0       -1.156488    1.845977   -0.271650
     22          6           0        5.258564   -0.655887   -2.187086
     23          6           0       -1.917900    2.922227   -0.849216
     24          6           0        2.439183   -1.717703    3.093167
     25          6           0        7.141633   -1.923544    0.968758
     26          6           0       -3.110205    2.443751   -1.154444
     27          6           0       -0.908655   -1.768673    2.497730
     28          6           0       -3.089253    0.991895   -0.877867
     29          6           0       -1.420807    4.404048   -0.922467
     30          6           0        7.741464   -1.163170   -2.211679
     31          6           0       -1.381054    5.146964    0.433140
     32          6           0       -4.337704    3.066118   -1.782188
     33          6           0       -4.090379    0.032868   -1.148082
     34          6           0       -2.335595   -1.847024    3.044705
     35          6           0       -3.826699   -1.265077   -0.942163
     36          6           0        9.072468   -1.117166   -1.681272
     37          6           0       -0.888313    6.467561    0.409537
     38          6           0       -4.839102   -2.388070   -1.345040
     39          6           0       -4.272248   -3.548348   -1.112855
     40          6           0       -2.930852   -3.146666   -0.410969
     41          6           0       -6.141776   -2.120745   -2.042005
     42          6           0       -4.713186   -4.974872   -1.276962
     43          6           0       -7.165894   -3.027012   -2.410253
     44          1           0        4.239314   -2.157306    0.138885
     45          1           0        4.977245    0.671531    1.032152
     46          1           0        4.717468   -0.798142    2.070893
     47          1           0        2.891722    1.180561   -0.356746
     48          1           0        3.295956   -0.743196   -1.613744
     49          1           0       -0.503154    0.084791    3.485355
     50          1           0       -1.587067    0.356244    2.187359
     51          1           0        0.906559    2.662603   -0.441660
     52          1           0        3.425759   -1.482487    3.425585
     53          1           0        1.822107   -1.514240    4.080178
     54          1           0        2.241615   -2.718216    2.814812
     55          1           0        6.662133   -2.629119    1.665722
     56          1           0        7.406461   -1.204628    1.487503
     57          1           0        7.983242   -2.660685    0.599122
     58          1           0       -1.022336   -2.184409    1.424591
     59          1           0       -0.280828   -2.543442    3.179592
     60          1           0       -1.599759   -0.240392   -0.114848
     61          1           0       -1.941752    4.934842   -1.674667
     62          1           0       -0.281156    4.642674   -1.368755
     63          1           0        7.639076   -0.867685   -3.309473
     64          1           0       -1.023418    4.536516    1.340684
     65          1           0       -2.516512    5.333687    1.132204
     66          1           0       -4.278221    4.048956   -2.065807
     67          1           0       -5.155516    2.927195   -1.054698
     68          1           0       -4.390352    2.639195   -2.854568
     69          1           0       -4.940942    0.466101   -1.653258
     70          1           0        9.329847   -0.982173   -0.603309
     71          1           0        9.776705   -1.242966   -2.416910
     72          1           0       -3.688084   -2.902490    3.462886
     73          1           0       -6.475996   -1.224144   -2.331480
     74          1           0       -5.100108   -5.235048   -2.356272
     75          1           0       -3.872804   -5.646840   -1.122207
     76          1           0       -5.624979   -5.307545   -0.889454
     77          1           0       -0.867850    8.043723    1.417726
     78          1           0       -7.972124   -2.551074   -2.836932
     79          1           0       -7.227205   -4.144852   -2.505021
 ---------------------------------------------------------------------

 SCF Done:  E(RB3LYP) =  -1947.82837782     A.U. after   18 cycles

 Excitation energies and oscillator strengths:

 Excited State   1:      Singlet-A      2.3080 eV  537.20 nm  f=0.5789  <S**2>=0.000
     154 ->156         0.10819
     155 ->156         0.69825
     155 <-156        -0.11522
 This state for optimization and/or second-order correction.
 Total Energy, E(TD-HF/TD-KS) =  -1947.74356119
 Copying the excited state density for this state as the 1-particle RhoCI density.

 The electronic state is 1-A.
 Alpha  occ. eigenvalues --  -19.18506 -19.18196 -19.13277 -19.11571 -19.10505
 Alpha  occ. eigenvalues --  -19.09233 -14.38119 -14.37906 -14.36127 -14.29056
 Alpha  occ. eigenvalues --  -10.32886 -10.30981 -10.28241 -10.26314 -10.25194
 Alpha  occ. eigenvalues --  -10.25098 -10.24224 -10.24203 -10.24123 -10.23363
 Alpha  occ. eigenvalues --  -10.23188 -10.23124 -10.22801 -10.22231 -10.21700
 Alpha  occ. eigenvalues --  -10.21509 -10.21130 -10.21077 -10.20718 -10.20697
 Alpha  occ. eigenvalues --  -10.20573 -10.20510 -10.20441 -10.20387 -10.20386
 Alpha  occ. eigenvalues --  -10.19837 -10.19832 -10.19648 -10.19067 -10.18907
 Alpha  occ. eigenvalues --  -10.18633 -10.18612 -10.18166  -1.09722  -1.08907
 Alpha  occ. eigenvalues --   -1.05902  -1.01362  -0.99134  -0.98794  -0.98781
 Alpha  occ. eigenvalues --   -0.98225  -0.95622  -0.92614  -0.83417  -0.82892
 Alpha  occ. eigenvalues --   -0.82524  -0.81488  -0.80419  -0.79669  -0.79267
 Alpha  occ. eigenvalues --   -0.77339  -0.76513  -0.75476  -0.74052  -0.73314
 Alpha  occ. eigenvalues --   -0.72327  -0.71752  -0.69868  -0.69532  -0.68862
 Alpha  occ. eigenvalues --   -0.67207  -0.66932  -0.64223  -0.62408  -0.60849
 Alpha  occ. eigenvalues --   -0.59697  -0.59163  -0.59037  -0.58524  -0.57446
 Alpha  occ. eigenvalues --   -0.57120  -0.56682  -0.55690  -0.54396  -0.53192
 Alpha  occ. eigenvalues --   -0.52943  -0.52367  -0.51721  -0.50849  -0.49826
 Alpha  occ. eigenvalues --   -0.49193  -0.48845  -0.48598  -0.48340  -0.47802
 Alpha  occ. eigenvalues --   -0.47656  -0.47230  -0.47079  -0.46520  -0.46305
 Alpha  occ. eigenvalues --   -0.46074  -0.45250  -0.44582  -0.44300  -0.44030
 Alpha  occ. eigenvalues --   -0.43902  -0.43533  -0.43202  -0.42945  -0.42940
 Alpha  occ. eigenvalues --   -0.42860  -0.42514  -0.42185  -0.41687  -0.41583
 Alpha  occ. eigenvalues --   -0.41199  -0.40872  -0.40678  -0.40480  -0.39855
 Alpha  occ. eigenvalues --   -0.39314  -0.39264  -0.38968  -0.38495  -0.38427
 Alpha  occ. eigenvalues --   -0.38167  -0.37893  -0.37219  -0.36980  -0.36857
 Alpha  occ. eigenvalues --   -0.36415  -0.36371  -0.35912  -0.35112  -0.34335
 Alpha  occ. eigenvalues --   -0.33222  -0.32487  -0.32450  -0.32118  -0.31347
 Alpha  occ. eigenvalues --   -0.31111  -0.30500  -0.28914  -0.28718  -0.27778
 Alpha  occ. eigenvalues --   -0.27657  -0.26791  -0.26306  -0.26278  -0.25855
 Alpha  occ. eigenvalues --   -0.24343  -0.23422  -0.23265  -0.22332  -0.19469
 Alpha virt. eigenvalues --   -0.10663  -0.06624  -0.05570  -0.03310  -0.01052
 Alpha virt. eigenvalues --    0.00602   0.00925   0.01107   0.02894   0.03320
 Alpha virt. eigenvalues --    0.03580   0.04155   0.04809   0.05054   0.05471

 Mulliken charges:
               1
     1  O   -0.157351
     2  O   -0.156051
     3  O   -0.281408
     4  O   -0.211562
     5  O   -0.273928
     6  O   -0.303242
     7  N   -0.065697
     8  N   -0.233397
     9  N   -0.002803
    10  N   -0.158215
    11  C    0.118265
    12  C    0.203226
    13  C   -0.114734
    14  C   -0.151027
    15  C    0.014103
    16  C   -0.015192
    17  C   -0.122062
    18  C   -0.082981
    19  C   -0.073218
    20  C   -0.071001
    21  C    0.088528
    22  C    0.112828
    23  C   -0.045341
    24  C    0.103755
    25  C    0.154738
    26  C   -0.144737
    27  C   -0.049575
    28  C    0.024760
    29  C    0.086888
    30  C   -0.089481
    31  C   -0.096094
    32  C    0.142317
    33  C   -0.139431
    34  C    0.134412
    35  C    0.150575
    36  C   -0.008627
    37  C    0.174434
    38  C    0.055786
    39  C   -0.173724
    40  C    0.129024
    41  C    0.011989
    42  C    0.102883
    43  C   -0.046769
    44  H    0.008423
    45  H   -0.010886
    46  H   -0.004120
    47  H    0.101845
    48  H    0.143619
    49  H    0.006135
    50  H    0.079261
    51  H    0.018055
    52  H   -0.003254
    53  H    0.018203
    54  H    0.046216
    55  H    0.007525
    56  H   -0.025463
    57  H    0.047818
    58  H    0.095636
    59  H    0.047048
    60  H    0.164741
    61  H    0.003634
    62  H    0.055111
    63  H    0.040206
    64  H    0.076499
    65  H    0.067985
    66  H   -0.025636
    67  H    0.047837
    68  H    0.041896
    69  H   -0.025771
    70  H    0.038658
    71  H    0.014051
    72  H    0.196638
    73  H   -0.059617
    74  H    0.005103
    75  H    0.029268
    76  H    0.002391
    77  H    0.189527
    78  H   -0.003543
    79  H    0.024100
 Sum of Mulliken charges =   0.00000

 Dipole moment (field-independent basis, Debye):
    X=              1.2553    Y=              2.9307    Z=              2.6514  Tot=              4.1466
 Quadrupole moment (field-independent basis, Debye-Ang):
   XX=           -223.3653   YY=           -259.9749   ZZ=           -260.8086
   XY=            -18.4126   XZ=             29.8068   YZ=              1.4383

 Normal termination of Gaussian 09 at Tue Jul  9 20:45:57 2019.
