 Gaussian 09, Revision D.01,
 Gaussian 09:  ES64L-G09RevD.01 24-Apr-2013

 --------------------------
 # td=(NStates=1) B3LYP/SVP
 --------------------------

 --
 TD
 --
 Symbolic Z-matrix:
 Charge =  0 Multiplicity = 1

                         Standard orientation:
 ---------------------------------------------------------------------
 Center     Atomic      Atomic             Coordinates (Angstroms)
 Number     Number       Type             X           Y           Z
 ---------------------------------------------------------------------
      1          8           0        5.102124   -0.001616   -3.246333
      2          8           0       -2.771471   -3.123472    3.229961
      3          8           0       -3.275613   -0.895648    2.957179
      4          8           0       -1.603082    7.373803    1.486748
      5          8           0       -0.457399    7.059141   -0.512622
      6          8           0       -1.971599   -4.087553   -0.089170
      7          7           0        2.402340    0.921678    0.728041
      8          7           0        4.311764   -0.516836   -1.211964
      9          7           0       -1.867686    0.637266   -0.278646
     10          7           0       -2.703985   -1.884664   -0.477822
     11          6           0        4.737144   -1.250760    0.081510
     12          6           0        4.464708   -0.474928    1.375021
     13          6           0        2.971064   -0.085099    1.420949
     14          6           0        1.962789   -0.764485    2.151158
     15          6           0        0.793655   -0.105093    1.799663
     16          6           0        1.038528    0.933865    0.922219
     17          6           0        6.249119   -1.481358   -0.321089
     18          6           0       -0.592507   -0.295259    2.491877
     19          6           0        6.606897   -0.920202   -1.513745
     20          6           0        0.203902    1.926113    0.252408
     21          6           0       -1.097233    1.811278   -0.167346
     22          6           0        5.396618   -0.386331   -2.059874
     23          6           0       -1.862541    2.912241   -0.786111
     24          6           0        2.269896   -1.831854    3.107179
     25          6           0        7.224010   -1.993522    0.821919
     26          6           0       -3.037338    2.343436   -1.210830
     27          6           0       -1.051724   -1.760634    2.397574
     28          6           0       -3.010644    0.921755   -0.932125
     29          6           0       -1.450991    4.350740   -0.798801
     30          6           0        7.858042   -0.794881   -2.247871
     31          6           0       -1.748032    5.208977    0.461449
     32          6           0       -4.210118    3.015907   -1.915901
     33          6           0       -3.975503    0.036708   -1.264591
     34          6           0       -2.482779   -1.873498    2.849855
     35          6           0       -3.770183   -1.400752   -0.985916
     36          6           0        9.222895   -0.763301   -1.674850
     37          6           0       -1.187163    6.640866    0.432897
     38          6           0       -4.732120   -2.529764   -1.403440
     39          6           0       -4.030214   -3.663149   -1.143501
     40          6           0       -2.793449   -3.304926   -0.599975
     41          6           0       -6.031046   -2.277752   -1.939336
     42          6           0       -4.417135   -5.090412   -1.211333
     43          6           0       -6.844630   -3.121653   -2.723936
     44          1           0        4.312351   -2.365001    0.124882
     45          1           0        5.019396    0.360859    1.124508
     46          1           0        4.824018   -1.046171    2.201197
     47          1           0        3.059282    1.676693    0.260771
     48          1           0        3.379928   -0.333573   -1.443822
     49          1           0       -0.407679    0.143387    3.537602
     50          1           0       -1.455313    0.415198    2.038039
     51          1           0        0.648908    2.890891    0.243361
     52          1           0        3.333403   -1.642302    3.901641
     53          1           0        1.499564   -1.740549    4.068183
     54          1           0        2.324029   -2.981718    2.715545
     55          1           0        6.620853   -2.797609    1.291073
     56          1           0        7.824270   -1.132727    1.301336
     57          1           0        8.014682   -2.453161    0.153733
     58          1           0       -0.962188   -2.424818    1.455783
     59          1           0       -0.440585   -2.345680    3.082646
     60          1           0       -1.511114   -0.348176   -0.168387
     61          1           0       -2.012810    4.853602   -1.623459
     62          1           0       -0.379522    4.319552   -1.167919
     63          1           0        7.481348   -0.626266   -3.481508
     64          1           0       -1.328315    4.845710    1.354496
     65          1           0       -2.888702    5.105348    0.641177
     66          1           0       -4.062813    4.256300   -2.045831
     67          1           0       -5.203493    2.742538   -1.226334
     68          1           0       -4.312855    2.732596   -2.970304
     69          1           0       -4.824857    0.273602   -1.769589
     70          1           0        9.160283   -0.961059   -0.537747
     71          1           0       10.044326   -0.371533   -2.276052
     72          1           0       -3.752894   -2.911803    3.392487
     73          1           0       -6.610795   -1.379111   -1.733511
     74          1           0       -3.871053   -5.492239   -2.214356
     75          1           0       -3.923280   -5.650000   -0.290689
     76          1           0       -5.524730   -5.236589   -1.096622
     77          1           0       -1.067550    8.138362    1.333170
     78          1           0       -7.747466   -2.673877   -3.132917
     79          1           0       -6.482834   -4.133661   -2.956599
 ---------------------------------------------------------------------

 SCF Done:  E(RB3LYP) =  -1947.84345343     A.U. after   16 cycles

 Excitation energies and oscillator strengths:

 Excited State   1:      Singlet-A      2.0005 eV  619.75 nm  f=0.3733  <S**2>=0.000
     155 ->156         0.70170
 This state for optimization and/or second-order correction.
 Total Energy, E(TD-HF/TD-KS) =  -1947.76993486
 Copying the excited state density for this state as the 1-particle RhoCI density.

 The electronic state is 1-A.
 Alpha  occ. eigenvalues --  -19.20688 -19.18158 -19.14041 -19.11238 -19.11189
 Alpha  occ. eigenvalues --  -19.08710 -14.39385 -14.36381 -14.34907 -14.29323
 Alpha  occ. eigenvalues --  -10.34062 -10.30655 -10.28176 -10.26625 -10.26286
 Alpha  occ. eigenvalues --  -10.24096 -10.23924 -10.23542 -10.23513 -10.23394
 Alpha  occ. eigenvalues --  -10.23277 -10.23027 -10.22782 -10.22544 -10.22502
 Alpha  occ. eigenvalues --  -10.22322 -10.22318 -10.21735 -10.21570 -10.21229
 Alpha  occ. eigenvalues --  -10.21214 -10.21126 -10.21061 -10.20857 -10.20830
 Alpha  occ. eigenvalues --  -10.20771 -10.20531 -10.19881 -10.19225 -10.18680
 Alpha  occ. eigenvalues --  -10.18658 -10.18635 -10.18213  -1.11667  -1.08609
 Alpha  occ. eigenvalues --   -1.01325  -1.00208  -0.99666  -0.99117  -0.98064
 Alpha  occ. eigenvalues --   -0.97225  -0.93412  -0.90979  -0.82671  -0.82007
 Alpha  occ. eigenvalues --   -0.81430  -0.80958  -0.80714  -0.79681  -0.77833
 Alpha  occ. eigenvalues --   -0.76908  -0.75887  -0.75301  -0.74024  -0.71911
 Alpha  occ. eigenvalues --   -0.71576  -0.70396  -0.69167  -0.68273  -0.67620
 Alpha  occ. eigenvalues --   -0.65701  -0.65515  -0.64183  -0.61430  -0.61157
 Alpha  occ. eigenvalues --   -0.60608  -0.58559  -0.57705  -0.57074  -0.56386
 Alpha  occ. eigenvalues --   -0.55894  -0.55299  -0.55009  -0.53884  -0.52746
 Alpha  occ. eigenvalues --   -0.51999  -0.51299  -0.50651  -0.50527  -0.50236
 Alpha  occ. eigenvalues --   -0.49708  -0.48662  -0.48291  -0.48203  -0.48179
 Alpha  occ. eigenvalues --   -0.47296  -0.47017  -0.46113  -0.45781  -0.45431
 Alpha  occ. eigenvalues --   -0.45087  -0.44871  -0.44528  -0.44165  -0.43757
 Alpha  occ. eigenvalues --   -0.43409  -0.43244  -0.43075  -0.42627  -0.41973
 Alpha  occ. eigenvalues --   -0.41885  -0.41770  -0.41324  -0.40849  -0.40744
 Alpha  occ. eigenvalues --   -0.40514  -0.40170  -0.39906  -0.39858  -0.39395
 Alpha  occ. eigenvalues --   -0.39289  -0.39144  -0.39010  -0.38690  -0.38503
 Alpha  occ. eigenvalues --   -0.37668  -0.37485  -0.37142  -0.36642  -0.35943
 Alpha  occ. eigenvalues --   -0.35774  -0.35560  -0.35313  -0.35136  -0.34008
 Alpha  occ. eigenvalues --   -0.33774  -0.33279  -0.32220  -0.31509  -0.30958
 Alpha  occ. eigenvalues --   -0.30531  -0.30437  -0.29219  -0.29052  -0.27571
 Alpha  occ. eigenvalues --   -0.26631  -0.26159  -0.25439  -0.24973  -0.24720
 Alpha  occ. eigenvalues --   -0.24237  -0.23964  -0.23726  -0.22800  -0.18965
 Alpha virt. eigenvalues --   -0.10867  -0.07506  -0.06632  -0.02152  -0.01368
 Alpha virt. eigenvalues --   -0.01275   0.00758   0.01029   0.02257   0.02765
 Alpha virt. eigenvalues --    0.02872   0.04014   0.04152   0.05053   0.05578

 Mulliken charges:
               1
     1  O   -0.299654
     2  O   -0.170582
     3  O   -0.298362
     4  O   -0.139224
     5  O   -0.273692
     6  O   -0.220664
     7  N   -0.087582
     8  N   -0.191234
     9  N   -0.088691
    10  N   -0.239795
    11  C    0.003163
    12  C    0.371003
    13  C   -0.160685
    14  C   -0.028023
    15  C   -0.103590
    16  C    0.061229
    17  C   -0.232682
    18  C   -0.008900
    19  C    0.003079
    20  C   -0.072082
    21  C    0.099535
    22  C    0.157934
    23  C   -0.095704
    24  C   -0.115304
    25  C    0.034127
    26  C   -0.110290
    27  C    0.003670
    28  C    0.186223
    29  C    0.086771
    30  C   -0.085033
    31  C    0.021154
    32  C   -0.006178
    33  C   -0.098556
    34  C    0.154756
    35  C    0.027696
    36  C   -0.052961
    37  C    0.157365
    38  C    0.108287
    39  C   -0.172058
    40  C    0.150380
    41  C   -0.110272
    42  C    0.022077
    43  C   -0.019670
    44  H    0.050190
    45  H   -0.053981
    46  H   -0.011109
    47  H    0.161242
    48  H    0.114317
    49  H    0.029944
    50  H    0.064490
    51  H   -0.023147
    52  H    0.032441
    53  H    0.048420
    54  H    0.068636
    55  H    0.041284
    56  H    0.075640
    57  H    0.043550
    58  H    0.085199
    59  H    0.006718
    60  H    0.174877
    61  H    0.011668
    62  H    0.033806
    63  H    0.081749
    64  H    0.019900
    65  H    0.058636
    66  H    0.036991
    67  H    0.061512
    68  H    0.044148
    69  H   -0.076678
    70  H    0.037080
    71  H    0.056922
    72  H    0.181156
    73  H    0.005892
    74  H    0.057686
    75  H    0.053616
    76  H    0.032856
    77  H    0.164166
    78  H    0.032646
    79  H    0.030559
 Sum of Mulliken charges =   0.00000

 Dipole moment (field-independent basis, Debye):
    X=              0.1498    Y=              2.3509    Z=              3.3710  Tot=              4.1126
 Quadrupole moment (field-independent basis, Debye-Ang):
   XX=           -215.5673   YY=           -247.6335   ZZ=           -266.9069
   XY=             -5.5131   XZ=             36.7056   YZ=              7.8794

 Normal termination of Gaussian 09 at Wed Jul 10 12:12:59 2019.
