 Gaussian 09, Revision D.01,
 Gaussian 09:  ES64L-G09RevD.01 24-Apr-2013

 --------------------------
 # td=(NStates=1) B3LYP/SVP
 --------------------------

 --
 TD
 --
 Symbolic Z-matrix:
 Charge =  0 Multiplicity = 1

                         Standard orientation:
 ---------------------------------------------------------------------
 Center     Atomic      Atomic             Coordinates (Angstroms)
 Number     Number       Type             X           Y           Z
 ---------------------------------------------------------------------
      1          8           0        5.252665   -0.133528   -3.274648
      2          8           0       -3.078224   -3.014900    2.929264
      3          8           0       -3.320535   -0.805724    3.152559
      4          8           0       -1.789459    7.298036    1.384476
      5          8           0       -0.705224    6.964289   -0.569000
      6          8           0       -1.731443   -4.014613   -0.084224
      7          7           0        2.398228    0.931150    0.617414
      8          7           0        4.349837   -0.686623   -1.225712
      9          7           0       -1.803801    0.594716   -0.374115
     10          7           0       -2.532770   -1.894420   -0.559737
     11          6           0        4.784853   -1.241899    0.043898
     12          6           0        4.401605   -0.282385    1.278921
     13          6           0        3.077176    0.007361    1.442046
     14          6           0        2.072261   -0.610174    2.253042
     15          6           0        0.811243   -0.065568    1.828908
     16          6           0        1.056436    0.933690    0.832457
     17          6           0        6.326589   -1.247657   -0.092893
     18          6           0       -0.594988   -0.343479    2.551564
     19          6           0        6.679963   -0.801568   -1.357745
     20          6           0        0.205442    1.886634    0.164072
     21          6           0       -1.103228    1.842169   -0.283692
     22          6           0        5.391069   -0.519728   -2.107481
     23          6           0       -1.851562    2.899295   -0.884732
     24          6           0        2.260925   -1.807396    3.095999
     25          6           0        7.271127   -1.811013    0.991959
     26          6           0       -3.124388    2.391146   -1.257667
     27          6           0       -1.057241   -1.746199    2.501857
     28          6           0       -3.041601    0.920152   -1.025777
     29          6           0       -1.373973    4.388095   -0.794953
     30          6           0        7.901263   -0.596470   -2.109019
     31          6           0       -1.804620    5.064181    0.391921
     32          6           0       -4.359363    3.068786   -1.684263
     33          6           0       -3.980724   -0.052353   -1.292274
     34          6           0       -2.573521   -1.722238    2.892246
     35          6           0       -3.674938   -1.416035   -1.129627
     36          6           0        9.214290   -0.681702   -1.698527
     37          6           0       -1.472152    6.618979    0.330626
     38          6           0       -4.621325   -2.585943   -1.322330
     39          6           0       -3.999294   -3.778590   -1.113242
     40          6           0       -2.590457   -3.297102   -0.495098
     41          6           0       -5.988390   -2.350092   -1.815382
     42          6           0       -4.429779   -5.212922   -1.252560
     43          6           0       -6.740674   -3.332481   -2.625631
     44          1           0        4.473867   -2.328409    0.409947
     45          1           0        5.122829    0.546451    1.145682
     46          1           0        4.847690   -0.827034    2.183836
     47          1           0        3.006572    1.330780   -0.244396
     48          1           0        3.463822   -1.115909   -1.626799
     49          1           0       -0.403426    0.050323    3.486918
     50          1           0       -1.439966    0.249907    2.196858
     51          1           0        0.452726    3.065043    0.001748
     52          1           0        3.144425   -1.897263    3.426829
     53          1           0        1.724077   -1.824452    4.100502
     54          1           0        1.931960   -2.771791    2.511180
     55          1           0        6.624763   -2.320097    1.949997
     56          1           0        8.166484   -1.028666    1.440433
     57          1           0        7.879909   -2.735375    0.273054
     58          1           0       -1.069282   -2.124056    1.532261
     59          1           0       -0.754971   -2.522065    3.296863
     60          1           0       -1.760218   -0.512861   -0.074081
     61          1           0       -1.714240    4.866739   -1.662547
     62          1           0       -0.235478    4.408872   -0.853860
     63          1           0        7.587096   -0.439527   -3.188102
     64          1           0       -1.423891    4.606817    1.303037
     65          1           0       -3.066743    5.086729    0.235195
     66          1           0       -4.105883    4.070603   -1.925893
     67          1           0       -5.180459    3.311161   -0.871769
     68          1           0       -4.674298    2.496473   -2.558970
     69          1           0       -4.876833    0.154354   -1.743750
     70          1           0        9.633859   -1.035007   -0.532684
     71          1           0       10.192864   -0.439856   -2.055795
     72          1           0       -3.993118   -3.022822    3.096546
     73          1           0       -6.590138   -1.469812   -1.407656
     74          1           0       -4.563859   -5.495963   -2.334123
     75          1           0       -3.764201   -5.930899   -0.714731
     76          1           0       -5.556814   -5.353289   -0.870988
     77          1           0       -1.284435    8.244248    1.153062
     78          1           0       -7.746473   -3.124248   -2.810317
     79          1           0       -6.383059   -4.236285   -3.319626
 ---------------------------------------------------------------------

 SCF Done:  E(RB3LYP) =  -1947.80066271     A.U. after   16 cycles

 Excitation energies and oscillator strengths:

 Excited State   1:      Singlet-A      2.1628 eV  573.26 nm  f=0.5032  <S**2>=0.000
     155 ->156         0.70046
 This state for optimization and/or second-order correction.
 Total Energy, E(TD-HF/TD-KS) =  -1947.72118180
 Copying the excited state density for this state as the 1-particle RhoCI density.

 The electronic state is 1-A.
 Alpha  occ. eigenvalues --  -19.21825 -19.15315 -19.13285 -19.11735 -19.11052
 Alpha  occ. eigenvalues --  -19.10520 -14.38343 -14.36868 -14.34841 -14.29711
 Alpha  occ. eigenvalues --  -10.33144 -10.30693 -10.29341 -10.27003 -10.26455
 Alpha  occ. eigenvalues --  -10.26156 -10.24229 -10.23750 -10.23672 -10.23494
 Alpha  occ. eigenvalues --  -10.23180 -10.22608 -10.22232 -10.22188 -10.22090
 Alpha  occ. eigenvalues --  -10.22051 -10.21723 -10.21539 -10.21532 -10.21334
 Alpha  occ. eigenvalues --  -10.21276 -10.21067 -10.20572 -10.20409 -10.20208
 Alpha  occ. eigenvalues --  -10.20109 -10.19975 -10.19556 -10.19172 -10.19134
 Alpha  occ. eigenvalues --  -10.18759 -10.18271 -10.18050  -1.12072  -1.07354
 Alpha  occ. eigenvalues --   -1.02633  -1.02548  -1.01145  -0.98692  -0.97104
 Alpha  occ. eigenvalues --   -0.94455  -0.94305  -0.90861  -0.82505  -0.81906
 Alpha  occ. eigenvalues --   -0.81425  -0.80367  -0.79637  -0.79009  -0.77695
 Alpha  occ. eigenvalues --   -0.77100  -0.75942  -0.74716  -0.72790  -0.72042
 Alpha  occ. eigenvalues --   -0.70826  -0.70204  -0.68527  -0.68121  -0.66825
 Alpha  occ. eigenvalues --   -0.66256  -0.65432  -0.63346  -0.61775  -0.59839
 Alpha  occ. eigenvalues --   -0.59351  -0.58583  -0.58080  -0.56929  -0.55910
 Alpha  occ. eigenvalues --   -0.55324  -0.54937  -0.54563  -0.53449  -0.52019
 Alpha  occ. eigenvalues --   -0.51614  -0.51487  -0.51135  -0.50697  -0.50178
 Alpha  occ. eigenvalues --   -0.49262  -0.48439  -0.47994  -0.47556  -0.47194
 Alpha  occ. eigenvalues --   -0.46832  -0.46404  -0.46130  -0.45580  -0.45013
 Alpha  occ. eigenvalues --   -0.44668  -0.44176  -0.44117  -0.43903  -0.43377
 Alpha  occ. eigenvalues --   -0.43234  -0.42743  -0.42517  -0.42063  -0.41697
 Alpha  occ. eigenvalues --   -0.41445  -0.41226  -0.41058  -0.40969  -0.40664
 Alpha  occ. eigenvalues --   -0.40465  -0.40264  -0.40029  -0.39634  -0.39413
 Alpha  occ. eigenvalues --   -0.39066  -0.38950  -0.38657  -0.38415  -0.38253
 Alpha  occ. eigenvalues --   -0.37791  -0.37688  -0.37315  -0.37002  -0.36766
 Alpha  occ. eigenvalues --   -0.36154  -0.35853  -0.35621  -0.34327  -0.34089
 Alpha  occ. eigenvalues --   -0.33528  -0.33381  -0.33194  -0.32993  -0.31420
 Alpha  occ. eigenvalues --   -0.30698  -0.29733  -0.28489  -0.28358  -0.27942
 Alpha  occ. eigenvalues --   -0.26731  -0.26692  -0.26354  -0.25011  -0.24291
 Alpha  occ. eigenvalues --   -0.24034  -0.23862  -0.23035  -0.22064  -0.18819
 Alpha virt. eigenvalues --   -0.10238  -0.07272  -0.06165  -0.02329  -0.01210
 Alpha virt. eigenvalues --   -0.00594   0.00147   0.00581   0.01548   0.01941
 Alpha virt. eigenvalues --    0.02550   0.03165   0.03684   0.04160   0.04304

 Mulliken charges:
               1
     1  O   -0.235426
     2  O   -0.198374
     3  O   -0.225629
     4  O   -0.170458
     5  O   -0.262956
     6  O   -0.176410
     7  N   -0.133054
     8  N   -0.177231
     9  N   -0.231412
    10  N   -0.335104
    11  C    0.007662
    12  C    0.107678
    13  C    0.014217
    14  C   -0.147810
    15  C   -0.114941
    16  C    0.119958
    17  C   -0.129783
    18  C    0.132350
    19  C   -0.052215
    20  C   -0.089701
    21  C    0.058423
    22  C    0.139129
    23  C   -0.063800
    24  C    0.167551
    25  C   -0.107276
    26  C   -0.141019
    27  C    0.028039
    28  C    0.152426
    29  C    0.111094
    30  C    0.045647
    31  C   -0.033112
    32  C    0.105683
    33  C   -0.082292
    34  C    0.109110
    35  C    0.102771
    36  C   -0.103119
    37  C    0.145895
    38  C    0.025224
    39  C   -0.178402
    40  C    0.158227
    41  C   -0.076842
    42  C    0.041557
    43  C   -0.066256
    44  H    0.047734
    45  H   -0.009280
    46  H    0.006247
    47  H    0.171737
    48  H    0.164445
    49  H   -0.011723
    50  H    0.013723
    51  H    0.016462
    52  H   -0.078461
    53  H    0.009106
    54  H    0.054359
    55  H    0.060266
    56  H    0.089657
    57  H    0.086104
    58  H    0.039379
    59  H    0.048544
    60  H    0.222565
    61  H   -0.004261
    62  H    0.023725
    63  H    0.042562
    64  H    0.046303
    65  H    0.043675
    66  H   -0.011261
    67  H    0.053736
    68  H    0.038859
    69  H   -0.067351
    70  H    0.021526
    71  H    0.029920
    72  H    0.154156
    73  H    0.040314
    74  H    0.035715
    75  H    0.043666
    76  H    0.035453
    77  H    0.232982
    78  H    0.010765
    79  H    0.058634
 Sum of Mulliken charges =   0.00000

 Dipole moment (field-independent basis, Debye):
    X=              0.8644    Y=              2.4033    Z=              2.9844  Tot=              3.9280
 Quadrupole moment (field-independent basis, Debye-Ang):
   XX=           -214.8399   YY=           -234.6805   ZZ=           -265.8093
   XY=            -13.7639   XZ=             31.8394   YZ=              6.3511

 Normal termination of Gaussian 09 at Sun Jul  7 22:32:29 2019.
