 Gaussian 09, Revision D.01,
 Gaussian 09:  ES64L-G09RevD.01 24-Apr-2013

 --------------------------
 # td=(NStates=1) B3LYP/SVP
 --------------------------

 --
 TD
 --
 Symbolic Z-matrix:
 Charge =  0 Multiplicity = 1

                         Standard orientation:
 ---------------------------------------------------------------------
 Center     Atomic      Atomic             Coordinates (Angstroms)
 Number     Number       Type             X           Y           Z
 ---------------------------------------------------------------------
      1          8           0        5.211869   -0.201783   -3.346712
      2          8           0       -2.978406   -3.086459    3.154067
      3          8           0       -3.273015   -0.881127    3.303164
      4          8           0       -1.667274    7.228782    1.433076
      5          8           0       -0.543986    7.076779   -0.470449
      6          8           0       -1.733510   -3.993062    0.026963
      7          7           0        2.356072    1.076896    0.642614
      8          7           0        4.358686   -0.651359   -1.194209
      9          7           0       -1.919748    0.732822   -0.335530
     10          7           0       -2.596544   -1.913736   -0.513255
     11          6           0        4.893855   -1.179993    0.049826
     12          6           0        4.379896   -0.234773    1.279206
     13          6           0        2.957356    0.028064    1.368280
     14          6           0        1.960414   -0.578402    2.157110
     15          6           0        0.670170   -0.067178    1.881514
     16          6           0        0.996052    1.028719    0.882324
     17          6           0        6.321346   -1.267960   -0.173441
     18          6           0       -0.560142   -0.311943    2.631350
     19          6           0        6.642504   -0.907663   -1.430661
     20          6           0        0.171026    1.966231    0.204336
     21          6           0       -1.142899    1.892837   -0.261515
     22          6           0        5.347407   -0.546541   -2.093235
     23          6           0       -1.959935    2.948906   -0.945766
     24          6           0        2.183828   -1.648923    3.113159
     25          6           0        7.247966   -1.794227    0.896874
     26          6           0       -3.149012    2.439299   -1.314307
     27          6           0       -1.122172   -1.790665    2.709616
     28          6           0       -3.108519    1.003211   -0.991892
     29          6           0       -1.579658    4.440143   -0.940012
     30          6           0        7.924034   -0.828507   -2.147948
     31          6           0       -1.851926    5.106573    0.328054
     32          6           0       -4.296096    2.970537   -1.966257
     33          6           0       -3.878808   -0.091681   -1.317954
     34          6           0       -2.526299   -1.866233    3.098659
     35          6           0       -3.678132   -1.468952   -1.080113
     36          6           0        9.160897   -0.767185   -1.600659
     37          6           0       -1.250838    6.484377    0.358449
     38          6           0       -4.608931   -2.623856   -1.466221
     39          6           0       -3.926452   -3.783148   -1.083838
     40          6           0       -2.591361   -3.296019   -0.482094
     41          6           0       -5.819800   -2.426438   -2.244601
     42          6           0       -4.209941   -5.220837   -1.340137
     43          6           0       -6.778596   -3.477902   -2.520278
     44          1           0        4.339283   -2.182587    0.337164
     45          1           0        4.849709    0.859437    1.116322
     46          1           0        4.851320   -0.612044    2.232148
     47          1           0        2.541901    1.640232   -0.191715
     48          1           0        3.471894   -0.782127   -1.599628
     49          1           0       -0.438910    0.092392    3.638389
     50          1           0       -1.403701    0.294233    2.263304
     51          1           0        0.734619    2.920618    0.023434
     52          1           0        3.255496   -1.811822    3.559786
     53          1           0        1.400853   -1.691095    3.983739
     54          1           0        2.100326   -2.693956    2.518342
     55          1           0        6.666485   -2.425332    1.706202
     56          1           0        7.838129   -1.048574    1.464995
     57          1           0        7.988655   -2.634244    0.405622
     58          1           0       -1.080307   -2.322685    1.786939
     59          1           0       -0.522167   -2.216453    3.514727
     60          1           0       -1.665778   -0.299042   -0.142304
     61          1           0       -2.212569    4.907354   -1.760540
     62          1           0       -0.558213    4.717303   -1.220275
     63          1           0        7.761715   -0.830456   -3.254694
     64          1           0       -1.483155    4.706111    1.323765
     65          1           0       -3.024081    5.204339    0.619126
     66          1           0       -4.204950    4.039497   -2.163887
     67          1           0       -5.436583    2.900594   -1.532285
     68          1           0       -4.381292    2.463156   -2.991485
     69          1           0       -4.782466    0.285741   -1.829321
     70          1           0        9.298545   -0.773321   -0.519512
     71          1           0       10.084340   -0.958099   -2.316060
     72          1           0       -3.967674   -3.116490    3.277277
     73          1           0       -6.139614   -1.322081   -2.544667
     74          1           0       -4.525449   -5.349686   -2.467846
     75          1           0       -3.229886   -5.642551   -1.031426
     76          1           0       -5.199033   -5.485459   -0.826361
     77          1           0       -0.988030    8.181706    1.388256
     78          1           0       -7.788474   -3.075206   -2.871626
     79          1           0       -6.569032   -4.576015   -2.241075
 ---------------------------------------------------------------------

 SCF Done:  E(RB3LYP) =  -1947.92450698     A.U. after   17 cycles

 Excitation energies and oscillator strengths:

 Excited State   1:      Singlet-A      1.9947 eV  621.58 nm  f=0.4886  <S**2>=0.000
     155 ->156         0.70087
     155 <-156        -0.11620
 This state for optimization and/or second-order correction.
 Total Energy, E(TD-HF/TD-KS) =  -1947.85120452
 Copying the excited state density for this state as the 1-particle RhoCI density.

 The electronic state is 1-A.
 Alpha  occ. eigenvalues --  -19.18703 -19.17907 -19.13235 -19.11004 -19.10184
 Alpha  occ. eigenvalues --  -19.09106 -14.39294 -14.36426 -14.36280 -14.29290
 Alpha  occ. eigenvalues --  -10.32698 -10.30492 -10.28372 -10.27007 -10.26534
 Alpha  occ. eigenvalues --  -10.24939 -10.24551 -10.23953 -10.23845 -10.23799
 Alpha  occ. eigenvalues --  -10.23239 -10.23212 -10.23016 -10.22356 -10.22248
 Alpha  occ. eigenvalues --  -10.22247 -10.22195 -10.21707 -10.21703 -10.21697
 Alpha  occ. eigenvalues --  -10.21595 -10.21385 -10.20826 -10.20751 -10.20684
 Alpha  occ. eigenvalues --  -10.20531 -10.20477 -10.20199 -10.20014 -10.19823
 Alpha  occ. eigenvalues --  -10.19227 -10.18957 -10.18860  -1.09373  -1.07763
 Alpha  occ. eigenvalues --   -1.02044  -1.00551  -0.98297  -0.97903  -0.97342
 Alpha  occ. eigenvalues --   -0.97116  -0.93070  -0.92874  -0.83784  -0.83229
 Alpha  occ. eigenvalues --   -0.82469  -0.81647  -0.80160  -0.79686  -0.78762
 Alpha  occ. eigenvalues --   -0.77459  -0.76572  -0.75259  -0.73954  -0.72360
 Alpha  occ. eigenvalues --   -0.71703  -0.71353  -0.69678  -0.68625  -0.68256
 Alpha  occ. eigenvalues --   -0.67886  -0.66339  -0.63986  -0.61376  -0.60785
 Alpha  occ. eigenvalues --   -0.59336  -0.58807  -0.58117  -0.57568  -0.57367
 Alpha  occ. eigenvalues --   -0.55872  -0.55586  -0.55441  -0.54459  -0.53247
 Alpha  occ. eigenvalues --   -0.52225  -0.51140  -0.51006  -0.50331  -0.49847
 Alpha  occ. eigenvalues --   -0.49155  -0.48243  -0.47952  -0.47830  -0.47644
 Alpha  occ. eigenvalues --   -0.47377  -0.47002  -0.46555  -0.46337  -0.45365
 Alpha  occ. eigenvalues --   -0.45206  -0.44946  -0.44368  -0.44128  -0.43768
 Alpha  occ. eigenvalues --   -0.43458  -0.42930  -0.42696  -0.42554  -0.42376
 Alpha  occ. eigenvalues --   -0.42133  -0.42039  -0.41457  -0.41386  -0.41231
 Alpha  occ. eigenvalues --   -0.40782  -0.40423  -0.40092  -0.39977  -0.39840
 Alpha  occ. eigenvalues --   -0.39354  -0.38888  -0.38687  -0.38420  -0.38166
 Alpha  occ. eigenvalues --   -0.38086  -0.37582  -0.37504  -0.37184  -0.36779
 Alpha  occ. eigenvalues --   -0.36366  -0.36264  -0.36180  -0.35404  -0.34944
 Alpha  occ. eigenvalues --   -0.34617  -0.34387  -0.32452  -0.31749  -0.31677
 Alpha  occ. eigenvalues --   -0.30752  -0.30205  -0.28744  -0.28561  -0.27699
 Alpha  occ. eigenvalues --   -0.26646  -0.26276  -0.25931  -0.25242  -0.24912
 Alpha  occ. eigenvalues --   -0.24614  -0.24263  -0.23602  -0.21822  -0.18676
 Alpha virt. eigenvalues --   -0.10938  -0.07015  -0.06429  -0.02076  -0.01631
 Alpha virt. eigenvalues --   -0.00404   0.00079   0.00138   0.01391   0.02070
 Alpha virt. eigenvalues --    0.03154   0.03439   0.03831   0.04448   0.04830

 Mulliken charges:
               1
     1  O   -0.320484
     2  O   -0.153005
     3  O   -0.287121
     4  O   -0.292361
     5  O   -0.261033
     6  O   -0.205426
     7  N   -0.083175
     8  N   -0.115839
     9  N   -0.139107
    10  N   -0.245832
    11  C    0.053958
    12  C    0.090185
    13  C   -0.004983
    14  C   -0.096888
    15  C   -0.022849
    16  C    0.012162
    17  C   -0.115697
    18  C    0.034659
    19  C   -0.019943
    20  C   -0.117766
    21  C    0.116422
    22  C    0.122245
    23  C   -0.084599
    24  C   -0.023027
    25  C   -0.013829
    26  C   -0.022574
    27  C    0.055196
    28  C    0.051002
    29  C    0.101725
    30  C   -0.011728
    31  C   -0.039845
    32  C    0.007155
    33  C   -0.095058
    34  C    0.103729
    35  C    0.102027
    36  C   -0.045006
    37  C    0.153422
    38  C    0.073322
    39  C   -0.234296
    40  C    0.155312
    41  C   -0.089316
    42  C    0.038527
    43  C   -0.071348
    44  H    0.046283
    45  H    0.014998
    46  H    0.015214
    47  H    0.134564
    48  H    0.122715
    49  H    0.014572
    50  H    0.012576
    51  H   -0.000360
    52  H    0.019307
    53  H    0.047497
    54  H    0.049273
    55  H    0.029081
    56  H    0.057466
    57  H    0.063824
    58  H    0.053270
    59  H    0.019465
    60  H    0.174627
    61  H    0.024736
    62  H    0.025676
    63  H    0.028525
    64  H    0.057867
    65  H    0.067597
    66  H    0.003990
    67  H    0.058406
    68  H    0.044960
    69  H   -0.040667
    70  H    0.017874
    71  H    0.053940
    72  H    0.199948
    73  H    0.034016
    74  H    0.045477
    75  H    0.052583
    76  H    0.045060
    77  H    0.258120
    78  H    0.045553
    79  H    0.043053
 Sum of Mulliken charges =   0.00000

 Dipole moment (field-independent basis, Debye):
    X=              0.2867    Y=              1.2660    Z=              3.5515  Tot=              3.7813
 Quadrupole moment (field-independent basis, Debye-Ang):
   XX=           -221.0900   YY=           -250.3129   ZZ=           -267.8963
   XY=             -9.9190   XZ=             36.4845   YZ=              0.7404

 Normal termination of Gaussian 09 at Mon Jul  8 00:15:11 2019.
