 Gaussian 09, Revision D.01,
 Gaussian 09:  ES64L-G09RevD.01 24-Apr-2013

 --------------------------
 # td=(NStates=1) B3LYP/SVP
 --------------------------

 --
 TD
 --
 Symbolic Z-matrix:
 Charge =  0 Multiplicity = 1

                         Standard orientation:
 ---------------------------------------------------------------------
 Center     Atomic      Atomic             Coordinates (Angstroms)
 Number     Number       Type             X           Y           Z
 ---------------------------------------------------------------------
      1          8           0        5.363235   -0.216026   -3.350587
      2          8           0       -2.815205   -3.006195    3.451568
      3          8           0       -3.212139   -0.764868    3.064308
      4          8           0       -1.657959    6.947537    1.672590
      5          8           0       -1.030509    7.228228   -0.641855
      6          8           0       -1.961379   -4.202260    0.050154
      7          7           0        2.409860    0.953089    0.546284
      8          7           0        4.435516   -0.493779   -1.223867
      9          7           0       -1.808433    0.647231   -0.348327
     10          7           0       -2.625411   -1.940299   -0.393580
     11          6           0        4.949916   -1.024937    0.105625
     12          6           0        4.541248   -0.266270    1.227957
     13          6           0        3.018678   -0.017357    1.321831
     14          6           0        2.082724   -0.506200    2.114285
     15          6           0        0.780539   -0.020186    1.746876
     16          6           0        1.028743    0.941065    0.746304
     17          6           0        6.349148   -1.205268   -0.186521
     18          6           0       -0.580522   -0.237440    2.603473
     19          6           0        6.732181   -0.788474   -1.331825
     20          6           0        0.208780    1.845055    0.043694
     21          6           0       -1.021292    1.847966   -0.406052
     22          6           0        5.531095   -0.486227   -2.148187
     23          6           0       -1.964908    2.863748   -0.881593
     24          6           0        2.262368   -1.520452    3.301170
     25          6           0        7.221160   -1.673256    0.899332
     26          6           0       -3.141579    2.271729   -1.237923
     27          6           0       -0.985465   -1.656912    2.556416
     28          6           0       -3.072521    0.800474   -0.882576
     29          6           0       -1.555344    4.275333   -0.999076
     30          6           0        8.009624   -0.936312   -2.135192
     31          6           0       -1.859073    5.048922    0.310571
     32          6           0       -4.318369    2.960131   -1.930364
     33          6           0       -4.027194   -0.119691   -1.320763
     34          6           0       -2.543133   -1.799488    2.955566
     35          6           0       -3.731788   -1.477960   -0.991820
     36          6           0        9.249956   -0.795235   -1.693265
     37          6           0       -1.447112    6.487233    0.386849
     38          6           0       -4.692693   -2.532754   -1.450908
     39          6           0       -4.134311   -3.695883   -1.038384
     40          6           0       -2.781960   -3.305285   -0.354935
     41          6           0       -6.081440   -2.351781   -2.040082
     42          6           0       -4.450672   -5.089900   -1.315067
     43          6           0       -6.805391   -3.335064   -2.674728
     44          1           0        4.396695   -1.963751    0.395142
     45          1           0        5.017610    0.664749    1.051831
     46          1           0        4.916172   -0.750165    2.153718
     47          1           0        3.037608    1.695974    0.099338
     48          1           0        3.656937   -0.878623   -1.775680
     49          1           0       -0.475569   -0.053273    3.693653
     50          1           0       -1.644722    0.334964    2.329936
     51          1           0        0.703355    2.875469   -0.062074
     52          1           0        3.414171   -1.613157    3.663820
     53          1           0        1.844618   -1.222597    4.319922
     54          1           0        1.914834   -2.552556    3.074993
     55          1           0        6.598152   -2.478035    1.379163
     56          1           0        7.561719   -1.136939    1.819001
     57          1           0        8.216845   -2.207679    0.750915
     58          1           0       -1.184765   -2.242144    1.626642
     59          1           0       -0.399172   -2.291433    3.222807
     60          1           0       -1.497912   -0.303254   -0.187747
     61          1           0       -2.077439    4.669326   -1.769203
     62          1           0       -0.496546    4.471646   -1.455518
     63          1           0        7.863231   -1.216987   -3.292397
     64          1           0       -1.335317    4.516503    1.040721
     65          1           0       -2.904639    5.187524    0.544951
     66          1           0       -3.924741    3.850939   -2.296893
     67          1           0       -5.277877    2.930817   -1.392728
     68          1           0       -4.744781    2.397673   -2.832811
     69          1           0       -4.841055    0.423599   -1.732882
     70          1           0        9.653363   -0.514771   -0.683989
     71          1           0       10.062316   -1.076489   -2.422026
     72          1           0       -3.708469   -2.762697    3.582670
     73          1           0       -6.528894   -1.363019   -1.963208
     74          1           0       -4.248041   -5.588468   -2.307667
     75          1           0       -3.720249   -5.627254   -0.681708
     76          1           0       -5.418283   -5.479396   -1.106834
     77          1           0       -1.494064    7.847533    1.477394
     78          1           0       -7.838291   -3.057852   -3.029525
     79          1           0       -6.094259   -4.537140   -3.070850
 ---------------------------------------------------------------------

 SCF Done:  E(RB3LYP) =  -1947.80365768     A.U. after   16 cycles

 Excitation energies and oscillator strengths:

 Excited State   1:      Singlet-A      2.3773 eV  521.54 nm  f=0.3998  <S**2>=0.000
     154 ->156         0.23067
     155 ->156         0.66048
 This state for optimization and/or second-order correction.
 Total Energy, E(TD-HF/TD-KS) =  -1947.71629500
 Copying the excited state density for this state as the 1-particle RhoCI density.

 The electronic state is 1-A.
 Alpha  occ. eigenvalues --  -19.20803 -19.19040 -19.14297 -19.12504 -19.10879
 Alpha  occ. eigenvalues --  -19.10466 -14.38089 -14.36574 -14.34590 -14.30245
 Alpha  occ. eigenvalues --  -10.34507 -10.31461 -10.28600 -10.27117 -10.25346
 Alpha  occ. eigenvalues --  -10.24570 -10.24511 -10.24207 -10.23331 -10.22634
 Alpha  occ. eigenvalues --  -10.22281 -10.22026 -10.21904 -10.21850 -10.21807
 Alpha  occ. eigenvalues --  -10.21717 -10.21580 -10.21540 -10.21416 -10.21117
 Alpha  occ. eigenvalues --  -10.21092 -10.21086 -10.21055 -10.20579 -10.20248
 Alpha  occ. eigenvalues --  -10.20041 -10.19966 -10.19794 -10.19524 -10.19517
 Alpha  occ. eigenvalues --  -10.19053 -10.17895 -10.17644  -1.11445  -1.10644
 Alpha  occ. eigenvalues --   -1.01561  -1.00192  -0.98704  -0.98150  -0.97378
 Alpha  occ. eigenvalues --   -0.97015  -0.93806  -0.92159  -0.83872  -0.83103
 Alpha  occ. eigenvalues --   -0.82723  -0.81303  -0.79901  -0.79716  -0.79004
 Alpha  occ. eigenvalues --   -0.77722  -0.76351  -0.75886  -0.74448  -0.73402
 Alpha  occ. eigenvalues --   -0.72393  -0.71404  -0.69813  -0.69556  -0.68345
 Alpha  occ. eigenvalues --   -0.65911  -0.65392  -0.64113  -0.60870  -0.60102
 Alpha  occ. eigenvalues --   -0.59502  -0.58491  -0.57994  -0.57656  -0.57189
 Alpha  occ. eigenvalues --   -0.56234  -0.55367  -0.54923  -0.54309  -0.53185
 Alpha  occ. eigenvalues --   -0.52666  -0.52348  -0.51982  -0.51261  -0.50663
 Alpha  occ. eigenvalues --   -0.50157  -0.49426  -0.49127  -0.48490  -0.48141
 Alpha  occ. eigenvalues --   -0.47468  -0.46833  -0.46190  -0.46171  -0.45965
 Alpha  occ. eigenvalues --   -0.45413  -0.44734  -0.44449  -0.44123  -0.43588
 Alpha  occ. eigenvalues --   -0.43233  -0.42979  -0.42614  -0.42452  -0.42105
 Alpha  occ. eigenvalues --   -0.41977  -0.41587  -0.41310  -0.41274  -0.41164
 Alpha  occ. eigenvalues --   -0.40622  -0.40472  -0.40383  -0.40049  -0.39920
 Alpha  occ. eigenvalues --   -0.39473  -0.38910  -0.38775  -0.38616  -0.38094
 Alpha  occ. eigenvalues --   -0.38014  -0.37933  -0.37320  -0.37149  -0.36502
 Alpha  occ. eigenvalues --   -0.36051  -0.35423  -0.35126  -0.34727  -0.33829
 Alpha  occ. eigenvalues --   -0.33388  -0.32526  -0.32370  -0.32001  -0.31779
 Alpha  occ. eigenvalues --   -0.31552  -0.31088  -0.28779  -0.28757  -0.27897
 Alpha  occ. eigenvalues --   -0.26803  -0.26599  -0.26414  -0.26265  -0.25681
 Alpha  occ. eigenvalues --   -0.24660  -0.24268  -0.24184  -0.22603  -0.20182
 Alpha virt. eigenvalues --   -0.10681  -0.06053  -0.05670  -0.03640  -0.01589
 Alpha virt. eigenvalues --    0.00221   0.00442   0.00491   0.02274   0.02782
 Alpha virt. eigenvalues --    0.03537   0.04390   0.04696   0.04865   0.05397

 Mulliken charges:
               1
     1  O   -0.237885
     2  O   -0.105533
     3  O   -0.270425
     4  O   -0.154090
     5  O   -0.324935
     6  O   -0.270724
     7  N   -0.111796
     8  N   -0.240949
     9  N   -0.121094
    10  N   -0.256261
    11  C    0.047567
    12  C    0.295900
    13  C   -0.101442
    14  C   -0.108681
    15  C   -0.041476
    16  C    0.079481
    17  C   -0.044944
    18  C    0.026128
    19  C   -0.049079
    20  C   -0.070870
    21  C    0.083592
    22  C    0.136278
    23  C   -0.066435
    24  C    0.003096
    25  C    0.011467
    26  C   -0.149658
    27  C   -0.052919
    28  C    0.104016
    29  C    0.118879
    30  C   -0.030662
    31  C    0.075535
    32  C    0.117600
    33  C   -0.094393
    34  C    0.134405
    35  C    0.148871
    36  C   -0.054638
    37  C    0.170183
    38  C    0.007829
    39  C   -0.152217
    40  C    0.175291
    41  C   -0.000308
    42  C    0.052948
    43  C   -0.098573
    44  H    0.018022
    45  H   -0.053211
    46  H    0.000797
    47  H    0.147535
    48  H    0.138838
    49  H    0.008551
    50  H    0.082586
    51  H   -0.000575
    52  H    0.003436
    53  H    0.032342
    54  H    0.054612
    55  H    0.008262
    56  H    0.040290
    57  H    0.030846
    58  H    0.062576
    59  H    0.018320
    60  H    0.144082
    61  H   -0.042326
    62  H    0.041866
    63  H    0.065270
    64  H    0.027866
    65  H    0.046162
    66  H    0.004619
    67  H    0.029792
    68  H    0.023534
    69  H   -0.046085
    70  H    0.031451
    71  H    0.032001
    72  H    0.134827
    73  H   -0.001369
    74  H    0.035665
    75  H    0.019154
    76  H    0.011023
    77  H    0.159596
    78  H    0.039877
    79  H    0.070691
 Sum of Mulliken charges =   0.00000

 Dipole moment (field-independent basis, Debye):
    X=              0.9560    Y=              2.7258    Z=              3.3568  Tot=              4.4285
 Quadrupole moment (field-independent basis, Debye-Ang):
   XX=           -208.2616   YY=           -259.6098   ZZ=           -262.6809
   XY=            -16.7321   XZ=             32.3589   YZ=              7.6696

 Normal termination of Gaussian 09 at Wed Jul 10 05:17:17 2019.
