 Gaussian 09, Revision D.01,
 Gaussian 09:  ES64L-G09RevD.01 24-Apr-2013

 --------------------------
 # td=(NStates=1) B3LYP/SVP
 --------------------------

 --
 TD
 --
 Symbolic Z-matrix:
 Charge =  0 Multiplicity = 1

                         Standard orientation:
 ---------------------------------------------------------------------
 Center     Atomic      Atomic             Coordinates (Angstroms)
 Number     Number       Type             X           Y           Z
 ---------------------------------------------------------------------
      1          8           0        5.313808   -0.071379   -3.294995
      2          8           0       -2.851823   -3.349358    2.769840
      3          8           0       -3.000685   -1.103672    3.364163
      4          8           0       -1.449808    7.224117    1.636656
      5          8           0       -0.760882    6.906946   -0.486493
      6          8           0       -2.077737   -4.035447   -0.075780
      7          7           0        2.374230    0.873061    0.611516
      8          7           0        4.452664   -0.453466   -1.199935
      9          7           0       -1.915489    0.748690   -0.325981
     10          7           0       -2.745154   -1.774621   -0.286071
     11          6           0        4.805711   -1.077956   -0.034213
     12          6           0        4.514967   -0.269673    1.233446
     13          6           0        3.044286    0.002782    1.357433
     14          6           0        2.141275   -0.720629    2.169692
     15          6           0        0.728047   -0.137547    1.793781
     16          6           0        1.038716    0.844343    0.781223
     17          6           0        6.348822   -1.391120   -0.250878
     18          6           0       -0.518685   -0.451328    2.470430
     19          6           0        6.643788   -0.967709   -1.570167
     20          6           0        0.183469    1.822436    0.169833
     21          6           0       -1.166535    1.851712   -0.182416
     22          6           0        5.386584   -0.459413   -2.179560
     23          6           0       -1.885632    3.001102   -0.787730
     24          6           0        2.352921   -1.780631    3.177670
     25          6           0        7.250617   -1.780192    0.832490
     26          6           0       -3.141392    2.384725   -1.245626
     27          6           0       -1.016159   -1.863786    2.411741
     28          6           0       -3.128250    1.004718   -0.970291
     29          6           0       -1.485082    4.462817   -0.762137
     30          6           0        7.957643   -0.899697   -2.210243
     31          6           0       -1.720594    5.024251    0.536728
     32          6           0       -4.262579    3.068370   -1.888143
     33          6           0       -4.067829    0.043993   -1.209598
     34          6           0       -2.398453   -2.031152    2.868057
     35          6           0       -3.872640   -1.303629   -0.931814
     36          6           0        9.123747   -0.813278   -1.720288
     37          6           0       -1.198032    6.499041    0.548422
     38          6           0       -4.804043   -2.453301   -1.420764
     39          6           0       -4.249187   -3.574131   -0.988737
     40          6           0       -2.843073   -3.177032   -0.334408
     41          6           0       -6.026906   -2.169959   -2.083583
     42          6           0       -4.573790   -5.041324   -1.202483
     43          6           0       -6.739831   -2.937171   -2.890189
     44          1           0        4.186439   -2.143113    0.320971
     45          1           0        5.022797    0.821675    1.228091
     46          1           0        4.847793   -0.968843    2.142032
     47          1           0        2.761036    1.612518   -0.154283
     48          1           0        3.411404   -0.665519   -1.488519
     49          1           0       -0.603103    0.021144    3.699364
     50          1           0       -1.205548    0.056723    2.025760
     51          1           0        0.586458    2.874525   -0.087891
     52          1           0        3.337204   -1.714575    3.458906
     53          1           0        1.998393   -1.612893    4.159861
     54          1           0        2.152471   -2.753728    2.916256
     55          1           0        6.622927   -2.509656    1.513265
     56          1           0        7.700061   -0.975529    1.348401
     57          1           0        8.039776   -2.540072    0.473925
     58          1           0       -1.102344   -2.073132    1.245505
     59          1           0       -0.401164   -2.657361    2.933446
     60          1           0       -1.579343   -0.199664   -0.361609
     61          1           0       -1.645820    4.978996   -1.533234
     62          1           0       -0.333566    4.378568   -0.950570
     63          1           0        7.781966   -0.854059   -3.206632
     64          1           0       -1.055991    4.321076    1.166282
     65          1           0       -2.766441    4.995907    0.915569
     66          1           0       -4.133018    4.125124   -1.745038
     67          1           0       -5.246231    2.896146   -1.366847
     68          1           0       -4.450820    2.647554   -2.906738
     69          1           0       -4.906028    0.360762   -1.816488
     70          1           0        9.175116   -0.583505   -0.449664
     71          1           0        9.956877   -0.876319   -2.401906
     72          1           0       -3.708979   -3.459442    3.230997
     73          1           0       -6.455936   -1.139248   -1.722316
     74          1           0       -4.019470   -5.504884   -2.236512
     75          1           0       -4.020309   -5.635831   -0.281989
     76          1           0       -5.800295   -5.210779   -1.198028
     77          1           0       -1.148038    8.176747    1.636727
     78          1           0       -7.746574   -2.789764   -3.189134
     79          1           0       -6.329853   -3.982645   -3.147863
 ---------------------------------------------------------------------

 SCF Done:  E(RB3LYP) =  -1947.80676454     A.U. after   16 cycles

 Excitation energies and oscillator strengths:

 Excited State   1:      Singlet-A      2.1868 eV  566.96 nm  f=0.5014  <S**2>=0.000
     155 ->156         0.70556
     155 <-156        -0.12617
 This state for optimization and/or second-order correction.
 Total Energy, E(TD-HF/TD-KS) =  -1947.72640017
 Copying the excited state density for this state as the 1-particle RhoCI density.

 The electronic state is 1-A.
 Alpha  occ. eigenvalues --  -19.19894 -19.15985 -19.13301 -19.10770 -19.10715
 Alpha  occ. eigenvalues --  -19.10214 -14.39667 -14.36574 -14.35752 -14.29484
 Alpha  occ. eigenvalues --  -10.33079 -10.29912 -10.28697 -10.26261 -10.26177
 Alpha  occ. eigenvalues --  -10.24412 -10.23803 -10.23741 -10.23633 -10.23588
 Alpha  occ. eigenvalues --  -10.23349 -10.22784 -10.22772 -10.22418 -10.21770
 Alpha  occ. eigenvalues --  -10.21688 -10.21675 -10.20806 -10.20298 -10.20285
 Alpha  occ. eigenvalues --  -10.20264 -10.19935 -10.19850 -10.19842 -10.19772
 Alpha  occ. eigenvalues --  -10.18941 -10.18854 -10.18727 -10.18461 -10.18460
 Alpha  occ. eigenvalues --  -10.18435 -10.18379 -10.17665  -1.10794  -1.05887
 Alpha  occ. eigenvalues --   -1.05147  -1.02974  -1.02490  -0.99874  -0.98491
 Alpha  occ. eigenvalues --   -0.98441  -0.96739  -0.90386  -0.83493  -0.82341
 Alpha  occ. eigenvalues --   -0.82254  -0.80713  -0.80372  -0.80161  -0.78219
 Alpha  occ. eigenvalues --   -0.77699  -0.76385  -0.75815  -0.73811  -0.72631
 Alpha  occ. eigenvalues --   -0.71795  -0.71475  -0.70080  -0.68805  -0.67965
 Alpha  occ. eigenvalues --   -0.66800  -0.65585  -0.63500  -0.62177  -0.61642
 Alpha  occ. eigenvalues --   -0.59752  -0.58703  -0.58060  -0.57485  -0.56810
 Alpha  occ. eigenvalues --   -0.56531  -0.55563  -0.54390  -0.54019  -0.52800
 Alpha  occ. eigenvalues --   -0.51967  -0.51544  -0.51330  -0.50417  -0.49939
 Alpha  occ. eigenvalues --   -0.49040  -0.48596  -0.48298  -0.47840  -0.47058
 Alpha  occ. eigenvalues --   -0.46820  -0.46473  -0.46186  -0.45707  -0.45521
 Alpha  occ. eigenvalues --   -0.45025  -0.44870  -0.44752  -0.44185  -0.44049
 Alpha  occ. eigenvalues --   -0.43734  -0.43527  -0.43280  -0.42977  -0.42713
 Alpha  occ. eigenvalues --   -0.42255  -0.42056  -0.41884  -0.41676  -0.41536
 Alpha  occ. eigenvalues --   -0.41214  -0.40787  -0.40296  -0.39901  -0.39691
 Alpha  occ. eigenvalues --   -0.38977  -0.38894  -0.38442  -0.38164  -0.37923
 Alpha  occ. eigenvalues --   -0.37859  -0.37587  -0.37174  -0.36688  -0.36524
 Alpha  occ. eigenvalues --   -0.36304  -0.35865  -0.34426  -0.34067  -0.33667
 Alpha  occ. eigenvalues --   -0.33331  -0.33140  -0.32367  -0.32076  -0.31101
 Alpha  occ. eigenvalues --   -0.31029  -0.30427  -0.29024  -0.28663  -0.27909
 Alpha  occ. eigenvalues --   -0.27756  -0.26233  -0.25979  -0.25254  -0.24636
 Alpha  occ. eigenvalues --   -0.24373  -0.23283  -0.23057  -0.22316  -0.19076
 Alpha virt. eigenvalues --   -0.10761  -0.06169  -0.05263  -0.00557  -0.00150
 Alpha virt. eigenvalues --    0.00916   0.01074   0.01853   0.02093   0.02206
 Alpha virt. eigenvalues --    0.02585   0.02720   0.03449   0.03803   0.05319

 Mulliken charges:
               1
     1  O   -0.172602
     2  O   -0.227053
     3  O   -0.229640
     4  O   -0.185862
     5  O   -0.213056
     6  O   -0.162156
     7  N   -0.052521
     8  N   -0.149024
     9  N   -0.048502
    10  N   -0.338569
    11  C   -0.036472
    12  C    0.131235
    13  C   -0.093722
    14  C   -0.171027
    15  C   -0.119437
    16  C    0.074880
    17  C   -0.133953
    18  C    0.201941
    19  C   -0.103550
    20  C   -0.085669
    21  C    0.019789
    22  C    0.122294
    23  C   -0.104481
    24  C    0.217434
    25  C    0.050058
    26  C   -0.149651
    27  C   -0.051443
    28  C    0.124878
    29  C    0.182983
    30  C    0.057513
    31  C   -0.020112
    32  C    0.111941
    33  C   -0.117815
    34  C    0.149676
    35  C    0.104035
    36  C   -0.039143
    37  C    0.147749
    38  C    0.074673
    39  C   -0.186249
    40  C    0.159430
    41  C   -0.058568
    42  C   -0.065262
    43  C   -0.037499
    44  H    0.040570
    45  H    0.012829
    46  H    0.025537
    47  H    0.172365
    48  H    0.167314
    49  H    0.030489
    50  H   -0.091723
    51  H   -0.003244
    52  H   -0.059405
    53  H   -0.005786
    54  H    0.016754
    55  H    0.026656
    56  H    0.051756
    57  H    0.049106
    58  H    0.085731
    59  H    0.037603
    60  H    0.135973
    61  H   -0.065874
    62  H    0.006222
    63  H   -0.034802
    64  H    0.046300
    65  H    0.046848
    66  H    0.007850
    67  H    0.018202
    68  H    0.038834
    69  H   -0.036843
    70  H    0.042498
    71  H    0.024532
    72  H    0.182016
    73  H    0.021277
    74  H    0.066927
    75  H    0.060363
    76  H    0.051411
    77  H    0.207857
    78  H    0.012939
    79  H    0.033447
 Sum of Mulliken charges =   0.00000

 Dipole moment (field-independent basis, Debye):
    X=              1.9510    Y=              3.6859    Z=              2.7196  Tot=              4.9788
 Quadrupole moment (field-independent basis, Debye-Ang):
   XX=           -223.5947   YY=           -235.7013   ZZ=           -265.2406
   XY=            -12.2439   XZ=             27.8182   YZ=              6.0716

 Normal termination of Gaussian 09 at Mon Jul  8 19:46:51 2019.
