 Gaussian 09, Revision D.01,
 Gaussian 09:  ES64L-G09RevD.01 24-Apr-2013

 --------------------------
 # td=(NStates=1) B3LYP/SVP
 --------------------------

 --
 TD
 --
 Symbolic Z-matrix:
 Charge =  0 Multiplicity = 1

                         Standard orientation:
 ---------------------------------------------------------------------
 Center     Atomic      Atomic             Coordinates (Angstroms)
 Number     Number       Type             X           Y           Z
 ---------------------------------------------------------------------
      1          8           0        5.434592   -0.215741   -3.335346
      2          8           0       -3.062980   -2.815445    3.450795
      3          8           0       -3.169135   -0.543756    3.189297
      4          8           0       -2.076419    6.973306    1.483622
      5          8           0       -0.791375    7.059632   -0.280281
      6          8           0       -1.787426   -4.099998    0.205960
      7          7           0        2.390107    1.076148    0.516360
      8          7           0        4.536485   -0.451576   -1.149951
      9          7           0       -1.908285    0.681676   -0.377121
     10          7           0       -2.519277   -2.027858   -0.497499
     11          6           0        4.852832   -1.059685    0.090004
     12          6           0        4.453388   -0.125487    1.255546
     13          6           0        2.996964    0.147531    1.424612
     14          6           0        2.045741   -0.471777    2.056069
     15          6           0        0.753535    0.001714    1.652443
     16          6           0        0.999183    1.044054    0.783373
     17          6           0        6.373451   -1.239356   -0.139785
     18          6           0       -0.518659   -0.211724    2.431931
     19          6           0        6.717818   -0.744077   -1.315224
     20          6           0        0.160459    1.851673    0.061936
     21          6           0       -1.159005    1.822648   -0.354438
     22          6           0        5.547173   -0.386086   -2.093559
     23          6           0       -1.955856    2.778120   -1.094105
     24          6           0        2.194892   -1.491793    3.158018
     25          6           0        7.291286   -1.719073    0.971141
     26          6           0       -3.223889    2.223396   -1.432326
     27          6           0       -1.101367   -1.591834    2.573674
     28          6           0       -3.054921    0.778458   -1.182451
     29          6           0       -1.699793    4.308768   -1.137839
     30          6           0        7.962526   -0.757103   -2.010552
     31          6           0       -2.045623    5.016791    0.301068
     32          6           0       -4.368882    2.794459   -2.228377
     33          6           0       -3.897849   -0.251088   -1.411714
     34          6           0       -2.452557   -1.591739    3.133416
     35          6           0       -3.570851   -1.572132   -1.122277
     36          6           0        9.267912   -0.867356   -1.542665
     37          6           0       -1.601357    6.486005    0.411759
     38          6           0       -4.534997   -2.770477   -1.431422
     39          6           0       -3.943731   -3.865397   -0.918579
     40          6           0       -2.679692   -3.335047   -0.266501
     41          6           0       -5.847826   -2.557797   -2.051284
     42          6           0       -4.228769   -5.353407   -1.016343
     43          6           0       -6.580089   -3.503543   -2.540385
     44          1           0        4.453259   -2.220645    0.063133
     45          1           0        4.799376    0.912360    1.074607
     46          1           0        4.622383   -0.450607    2.152734
     47          1           0        2.688980    1.888408    0.022837
     48          1           0        3.560459   -0.219028   -1.464957
     49          1           0       -0.233226    0.221136    3.425593
     50          1           0       -1.236820    0.334738    2.137848
     51          1           0        0.620741    2.730091   -0.357583
     52          1           0        3.272651   -1.419727    3.531954
     53          1           0        1.578676   -1.403378    3.985344
     54          1           0        1.960072   -2.545903    2.804755
     55          1           0        6.515284   -2.370209    1.409902
     56          1           0        7.905272   -0.976445    1.766556
     57          1           0        8.090084   -2.425584    0.500327
     58          1           0       -1.295549   -2.103948    1.455262
     59          1           0       -0.478011   -2.191900    3.416913
     60          1           0       -1.431596   -0.460881   -0.340084
     61          1           0       -2.379016    5.021998   -1.814864
     62          1           0       -0.707281    4.488819   -1.373771
     63          1           0        7.873912   -0.631514   -2.946691
     64          1           0       -1.588428    4.304735    1.084154
     65          1           0       -3.010952    5.124449    0.400673
     66          1           0       -4.159458    3.828062   -2.486575
     67          1           0       -5.176522    2.630330   -1.629341
     68          1           0       -4.853403    2.380583   -3.083023
     69          1           0       -4.820904   -0.100268   -2.113651
     70          1           0        9.508017   -1.147684   -0.511486
     71          1           0       10.112841   -0.675182   -2.241814
     72          1           0       -4.024603   -2.626976    3.612026
     73          1           0       -6.135236   -1.458882   -1.986538
     74          1           0       -4.197486   -5.710866   -2.178016
     75          1           0       -3.721479   -5.808071   -0.467371
     76          1           0       -5.453388   -5.597598   -0.748715
     77          1           0       -1.644147    7.871747    1.527011
     78          1           0       -7.514287   -3.102969   -3.063511
     79          1           0       -6.280178   -4.627724   -2.809523
 ---------------------------------------------------------------------

 SCF Done:  E(RB3LYP) =  -1947.73692041     A.U. after   17 cycles

 Excitation energies and oscillator strengths:

 Excited State   1:      Singlet-A      2.2003 eV  563.49 nm  f=0.4653  <S**2>=0.000
     154 ->156        -0.17827
     155 ->156         0.68333
     155 <-156        -0.12215
 This state for optimization and/or second-order correction.
 Total Energy, E(TD-HF/TD-KS) =  -1947.65606130
 Copying the excited state density for this state as the 1-particle RhoCI density.

 The electronic state is 1-A.
 Alpha  occ. eigenvalues --  -19.20444 -19.16640 -19.12761 -19.10859 -19.10167
 Alpha  occ. eigenvalues --  -19.09872 -14.37946 -14.36686 -14.35563 -14.30297
 Alpha  occ. eigenvalues --  -10.32381 -10.31046 -10.28381 -10.26684 -10.26529
 Alpha  occ. eigenvalues --  -10.24834 -10.24757 -10.24002 -10.23437 -10.23211
 Alpha  occ. eigenvalues --  -10.22627 -10.22480 -10.22089 -10.22033 -10.21919
 Alpha  occ. eigenvalues --  -10.21887 -10.21493 -10.21103 -10.20900 -10.20245
 Alpha  occ. eigenvalues --  -10.20167 -10.20103 -10.20086 -10.19846 -10.19786
 Alpha  occ. eigenvalues --  -10.19748 -10.19624 -10.19603 -10.19570 -10.19250
 Alpha  occ. eigenvalues --  -10.19132 -10.18603 -10.18211  -1.14061  -1.05433
 Alpha  occ. eigenvalues --   -1.01477  -1.01054  -0.99930  -0.98296  -0.97310
 Alpha  occ. eigenvalues --   -0.96170  -0.94556  -0.93113  -0.83453  -0.82712
 Alpha  occ. eigenvalues --   -0.82426  -0.81306  -0.80910  -0.80861  -0.78087
 Alpha  occ. eigenvalues --   -0.77679  -0.77465  -0.75931  -0.75493  -0.73438
 Alpha  occ. eigenvalues --   -0.72340  -0.71560  -0.70346  -0.69698  -0.68653
 Alpha  occ. eigenvalues --   -0.67876  -0.67312  -0.64876  -0.61932  -0.61287
 Alpha  occ. eigenvalues --   -0.60899  -0.59341  -0.58588  -0.58235  -0.57512
 Alpha  occ. eigenvalues --   -0.56775  -0.55615  -0.54620  -0.54211  -0.53467
 Alpha  occ. eigenvalues --   -0.52284  -0.51783  -0.50990  -0.50593  -0.50410
 Alpha  occ. eigenvalues --   -0.49992  -0.49410  -0.49343  -0.48053  -0.47598
 Alpha  occ. eigenvalues --   -0.47345  -0.46925  -0.46482  -0.46013  -0.45931
 Alpha  occ. eigenvalues --   -0.45311  -0.45295  -0.44462  -0.44252  -0.43977
 Alpha  occ. eigenvalues --   -0.43604  -0.43417  -0.43029  -0.42832  -0.42409
 Alpha  occ. eigenvalues --   -0.42279  -0.41641  -0.41470  -0.41097  -0.41028
 Alpha  occ. eigenvalues --   -0.40873  -0.40721  -0.40562  -0.40500  -0.39868
 Alpha  occ. eigenvalues --   -0.39746  -0.39551  -0.39183  -0.38920  -0.38534
 Alpha  occ. eigenvalues --   -0.38394  -0.38102  -0.37740  -0.37443  -0.37008
 Alpha  occ. eigenvalues --   -0.36298  -0.35674  -0.34956  -0.34604  -0.34520
 Alpha  occ. eigenvalues --   -0.33881  -0.33542  -0.33332  -0.33230  -0.31914
 Alpha  occ. eigenvalues --   -0.31414  -0.29905  -0.29559  -0.28703  -0.27528
 Alpha  occ. eigenvalues --   -0.26513  -0.25942  -0.25912  -0.25544  -0.25398
 Alpha  occ. eigenvalues --   -0.25238  -0.24344  -0.23901  -0.23037  -0.19735
 Alpha virt. eigenvalues --   -0.11399  -0.06746  -0.06437  -0.00969  -0.00253
 Alpha virt. eigenvalues --   -0.00156   0.00304   0.00626   0.02886   0.03344
 Alpha virt. eigenvalues --    0.03570   0.03943   0.03977   0.04350   0.04848

 Mulliken charges:
               1
     1  O   -0.261465
     2  O   -0.229518
     3  O   -0.295287
     4  O   -0.110430
     5  O   -0.240780
     6  O   -0.263240
     7  N   -0.149671
     8  N   -0.218079
     9  N   -0.205266
    10  N   -0.211946
    11  C    0.084602
    12  C    0.354961
    13  C   -0.114936
    14  C   -0.108131
    15  C   -0.115871
    16  C    0.119390
    17  C   -0.211298
    18  C    0.184803
    19  C    0.024460
    20  C   -0.033930
    21  C    0.056244
    22  C    0.162977
    23  C   -0.076239
    24  C    0.105920
    25  C    0.005867
    26  C   -0.100479
    27  C   -0.059663
    28  C    0.130307
    29  C    0.051838
    30  C    0.049965
    31  C    0.017552
    32  C    0.147323
    33  C   -0.137309
    34  C    0.150216
    35  C    0.064218
    36  C   -0.032141
    37  C    0.088651
    38  C   -0.000805
    39  C   -0.181802
    40  C    0.132556
    41  C   -0.004762
    42  C    0.172730
    43  C   -0.064428
    44  H    0.062085
    45  H   -0.001480
    46  H   -0.074459
    47  H    0.114419
    48  H    0.134882
    49  H    0.015968
    50  H   -0.075472
    51  H   -0.038152
    52  H    0.007899
    53  H   -0.000937
    54  H    0.044494
    55  H    0.016010
    56  H    0.082037
    57  H    0.049582
    58  H    0.138354
    59  H    0.043992
    60  H    0.237080
    61  H    0.037440
    62  H    0.003959
    63  H   -0.079487
    64  H    0.067920
    65  H   -0.015749
    66  H    0.010835
    67  H   -0.004845
    68  H    0.012808
    69  H    0.012151
    70  H    0.013191
    71  H    0.037252
    72  H    0.195297
    73  H    0.014064
    74  H    0.053643
    75  H   -0.091495
    76  H    0.031713
    77  H    0.186227
    78  H    0.025720
    79  H    0.055949
 Sum of Mulliken charges =   0.00000

 Dipole moment (field-independent basis, Debye):
    X=             -0.3072    Y=              3.5911    Z=              2.9635  Tot=              4.6662
 Quadrupole moment (field-independent basis, Debye-Ang):
   XX=           -224.3152   YY=           -249.8977   ZZ=           -262.6516
   XY=            -10.4939   XZ=             39.8786   YZ=              6.6976

 Normal termination of Gaussian 09 at Sun Jul  7 13:51:34 2019.
