 Gaussian 09, Revision D.01,
 Gaussian 09:  ES64L-G09RevD.01 24-Apr-2013

 --------------------------
 # td=(NStates=1) B3LYP/SVP
 --------------------------

 --
 TD
 --
 Symbolic Z-matrix:
 Charge =  0 Multiplicity = 1

                         Standard orientation:
 ---------------------------------------------------------------------
 Center     Atomic      Atomic             Coordinates (Angstroms)
 Number     Number       Type             X           Y           Z
 ---------------------------------------------------------------------
      1          8           0        5.247111   -0.176502   -3.337422
      2          8           0       -2.842493   -3.092635    3.195715
      3          8           0       -3.203326   -0.908556    3.226459
      4          8           0       -1.429881    7.231626    1.527204
      5          8           0       -0.143520    6.864186   -0.279704
      6          8           0       -2.161977   -3.995202   -0.010329
      7          7           0        2.390928    0.923179    0.644004
      8          7           0        4.326140   -0.861488   -1.337733
      9          7           0       -1.851993    0.665776   -0.318977
     10          7           0       -2.791182   -1.792389   -0.469274
     11          6           0        4.846311   -1.303171    0.022384
     12          6           0        4.530688   -0.329560    1.148698
     13          6           0        3.028831   -0.025966    1.300137
     14          6           0        2.078846   -0.725563    2.050949
     15          6           0        0.794835   -0.132380    1.903321
     16          6           0        0.984401    0.837732    0.853729
     17          6           0        6.370161   -1.416004   -0.263542
     18          6           0       -0.469980   -0.387548    2.632733
     19          6           0        6.587366   -0.985989   -1.469999
     20          6           0        0.248252    1.901587    0.291877
     21          6           0       -1.095247    1.757725   -0.158108
     22          6           0        5.419937   -0.552595   -2.161453
     23          6           0       -1.905247    2.856509   -0.884689
     24          6           0        2.437529   -1.703564    3.152848
     25          6           0        7.290916   -2.001726    0.776209
     26          6           0       -3.056673    2.394698   -1.291318
     27          6           0       -1.106617   -1.728310    2.514702
     28          6           0       -3.101931    1.032363   -0.899496
     29          6           0       -1.434258    4.226833   -0.888358
     30          6           0        7.938708   -0.876741   -2.162851
     31          6           0       -1.879985    5.104993    0.256125
     32          6           0       -4.174882    3.140065   -1.905226
     33          6           0       -4.033948    0.048267   -1.284303
     34          6           0       -2.461338   -1.857882    3.009402
     35          6           0       -3.852616   -1.269347   -0.939830
     36          6           0        9.196745   -0.796478   -1.621337
     37          6           0       -1.056633    6.455501    0.468247
     38          6           0       -4.833927   -2.339266   -1.440670
     39          6           0       -4.222968   -3.540522   -1.104320
     40          6           0       -2.893685   -3.233684   -0.487632
     41          6           0       -6.176553   -2.065441   -2.018812
     42          6           0       -4.791151   -4.893758   -1.327958
     43          6           0       -6.970480   -2.933525   -2.589149
     44          1           0        4.426782   -2.329910    0.072459
     45          1           0        5.195143    0.645366    0.987070
     46          1           0        4.891551   -0.931725    1.952381
     47          1           0        2.900523    1.129139   -0.156654
     48          1           0        3.383340   -0.686211   -1.589235
     49          1           0       -0.163256   -0.359268    3.794543
     50          1           0       -1.135380    0.455632    2.398450
     51          1           0        0.585589    2.896241    0.025795
     52          1           0        3.597558   -1.506236    3.438254
     53          1           0        1.920190   -1.250499    3.938559
     54          1           0        2.097015   -2.868136    3.114175
     55          1           0        6.633857   -2.599395    1.436660
     56          1           0        7.737411   -1.120520    1.308329
     57          1           0        8.057644   -2.552696    0.359602
     58          1           0       -1.151405   -1.943804    1.544449
     59          1           0       -0.434966   -2.578331    2.798531
     60          1           0       -1.768557   -0.247128    0.080291
     61          1           0       -1.624985    4.838034   -1.890870
     62          1           0       -0.317033    4.329042   -1.165077
     63          1           0        7.678965   -0.739032   -3.164349
     64          1           0       -1.541876    4.602135    1.207849
     65          1           0       -3.006906    5.282970    0.405586
     66          1           0       -3.959502    4.104322   -2.045328
     67          1           0       -5.244150    3.026525   -1.323067
     68          1           0       -4.478505    2.586477   -2.780100
     69          1           0       -4.932711    0.290989   -2.023892
     70          1           0        9.221790   -0.796456   -0.541317
     71          1           0       10.219286   -0.790682   -2.297108
     72          1           0       -3.863326   -3.184569    3.201586
     73          1           0       -6.428699   -1.020365   -1.878206
     74          1           0       -4.787677   -5.343899   -2.319959
     75          1           0       -4.260279   -5.543413   -0.746790
     76          1           0       -5.918824   -4.842569   -0.881250
     77          1           0       -0.473569    7.892803    1.622916
     78          1           0       -8.075423   -2.679845   -3.016444
     79          1           0       -6.636608   -4.037384   -2.963220
 ---------------------------------------------------------------------

 SCF Done:  E(RB3LYP) =  -1947.84864748     A.U. after   16 cycles

 Excitation energies and oscillator strengths:

 Excited State   1:      Singlet-A      2.0960 eV  591.53 nm  f=0.5078  <S**2>=0.000
     155 ->156         0.70335
     155 <-156        -0.11912
 This state for optimization and/or second-order correction.
 Total Energy, E(TD-HF/TD-KS) =  -1947.77162175
 Copying the excited state density for this state as the 1-particle RhoCI density.

 The electronic state is 1-A.
 Alpha  occ. eigenvalues --  -19.19776 -19.17612 -19.13342 -19.11682 -19.10293
 Alpha  occ. eigenvalues --  -19.09676 -14.37944 -14.36669 -14.34901 -14.28610
 Alpha  occ. eigenvalues --  -10.33422 -10.30333 -10.28367 -10.27015 -10.25665
 Alpha  occ. eigenvalues --  -10.24769 -10.24352 -10.23494 -10.23484 -10.23458
 Alpha  occ. eigenvalues --  -10.23132 -10.22428 -10.22222 -10.21836 -10.21551
 Alpha  occ. eigenvalues --  -10.21471 -10.21298 -10.21291 -10.20947 -10.20819
 Alpha  occ. eigenvalues --  -10.20410 -10.20385 -10.20372 -10.20368 -10.20345
 Alpha  occ. eigenvalues --  -10.20075 -10.20032 -10.19949 -10.19540 -10.19229
 Alpha  occ. eigenvalues --  -10.19136 -10.18678 -10.18007  -1.09096  -1.07946
 Alpha  occ. eigenvalues --   -1.05491  -1.01077  -0.99945  -0.98450  -0.98309
 Alpha  occ. eigenvalues --   -0.98278  -0.92874  -0.92831  -0.84169  -0.83016
 Alpha  occ. eigenvalues --   -0.82742  -0.81449  -0.80288  -0.79995  -0.78369
 Alpha  occ. eigenvalues --   -0.77858  -0.77177  -0.75535  -0.74811  -0.73127
 Alpha  occ. eigenvalues --   -0.72713  -0.71611  -0.69566  -0.68780  -0.68635
 Alpha  occ. eigenvalues --   -0.67783  -0.65712  -0.64040  -0.61193  -0.60831
 Alpha  occ. eigenvalues --   -0.60243  -0.59513  -0.59031  -0.57540  -0.57079
 Alpha  occ. eigenvalues --   -0.56774  -0.55547  -0.54918  -0.54095  -0.53185
 Alpha  occ. eigenvalues --   -0.52435  -0.52115  -0.50816  -0.50606  -0.50039
 Alpha  occ. eigenvalues --   -0.49638  -0.48666  -0.48462  -0.48002  -0.47624
 Alpha  occ. eigenvalues --   -0.46968  -0.46736  -0.46398  -0.46157  -0.45602
 Alpha  occ. eigenvalues --   -0.45249  -0.44768  -0.44593  -0.44464  -0.44232
 Alpha  occ. eigenvalues --   -0.43971  -0.43798  -0.43609  -0.43258  -0.42848
 Alpha  occ. eigenvalues --   -0.42521  -0.42224  -0.42111  -0.41598  -0.41424
 Alpha  occ. eigenvalues --   -0.41113  -0.40860  -0.40494  -0.40261  -0.40154
 Alpha  occ. eigenvalues --   -0.39795  -0.39718  -0.39430  -0.38964  -0.38792
 Alpha  occ. eigenvalues --   -0.38590  -0.38253  -0.38114  -0.37690  -0.37543
 Alpha  occ. eigenvalues --   -0.36652  -0.36009  -0.35705  -0.35396  -0.33968
 Alpha  occ. eigenvalues --   -0.33802  -0.33464  -0.32478  -0.31976  -0.31504
 Alpha  occ. eigenvalues --   -0.31139  -0.30527  -0.29335  -0.28466  -0.28111
 Alpha  occ. eigenvalues --   -0.26847  -0.26360  -0.25925  -0.25641  -0.25370
 Alpha  occ. eigenvalues --   -0.25079  -0.24295  -0.23923  -0.22570  -0.18632
 Alpha virt. eigenvalues --   -0.10582  -0.05984  -0.05677  -0.01866  -0.00545
 Alpha virt. eigenvalues --   -0.00077   0.00064   0.00994   0.01762   0.02352
 Alpha virt. eigenvalues --    0.03289   0.03609   0.04637   0.04788   0.05029

 Mulliken charges:
               1
     1  O   -0.252263
     2  O   -0.174692
     3  O   -0.253927
     4  O   -0.273285
     5  O   -0.269164
     6  O   -0.125725
     7  N   -0.013587
     8  N   -0.248090
     9  N   -0.057328
    10  N   -0.285686
    11  C    0.071123
    12  C    0.214897
    13  C   -0.128210
    14  C   -0.139541
    15  C   -0.063390
    16  C    0.085177
    17  C   -0.250591
    18  C    0.074619
    19  C   -0.046208
    20  C   -0.070344
    21  C    0.031068
    22  C    0.169938
    23  C   -0.066532
    24  C    0.029391
    25  C    0.140656
    26  C   -0.097806
    27  C    0.113967
    28  C    0.133807
    29  C   -0.039485
    30  C    0.044315
    31  C    0.022592
    32  C    0.154073
    33  C   -0.175409
    34  C    0.101173
    35  C    0.084565
    36  C   -0.046881
    37  C    0.156124
    38  C   -0.009437
    39  C   -0.228526
    40  C    0.147533
    41  C    0.046074
    42  C    0.091700
    43  C   -0.112346
    44  H    0.033660
    45  H    0.031215
    46  H   -0.026697
    47  H    0.092555
    48  H    0.117971
    49  H    0.019092
    50  H    0.019930
    51  H   -0.011289
    52  H    0.021459
    53  H   -0.000833
    54  H    0.061439
    55  H    0.028497
    56  H    0.050544
    57  H    0.021572
    58  H   -0.010059
    59  H    0.014136
    60  H    0.138657
    61  H    0.026187
    62  H    0.036737
    63  H   -0.014780
    64  H    0.041774
    65  H    0.063830
    66  H   -0.013509
    67  H    0.035296
    68  H    0.015163
    69  H    0.023542
    70  H    0.005035
    71  H    0.070193
    72  H    0.214198
    73  H   -0.011611
    74  H    0.037278
    75  H   -0.018928
    76  H    0.039326
    77  H    0.259336
    78  H    0.045794
    79  H    0.058951
 Sum of Mulliken charges =   0.00000

 Dipole moment (field-independent basis, Debye):
    X=              0.8112    Y=              0.7703    Z=              2.9807  Tot=              3.1837
 Quadrupole moment (field-independent basis, Debye-Ang):
   XX=           -217.4998   YY=           -250.1849   ZZ=           -267.8559
   XY=             -7.6330   XZ=             38.4225   YZ=              3.1627

 Normal termination of Gaussian 09 at Tue Jul  9 03:02:14 2019.
