 Gaussian 09, Revision D.01,
 Gaussian 09:  ES64L-G09RevD.01 24-Apr-2013

 --------------------------
 # td=(NStates=1) B3LYP/SVP
 --------------------------

 --
 TD
 --
 Symbolic Z-matrix:
 Charge =  0 Multiplicity = 1

                         Standard orientation:
 ---------------------------------------------------------------------
 Center     Atomic      Atomic             Coordinates (Angstroms)
 Number     Number       Type             X           Y           Z
 ---------------------------------------------------------------------
      1          8           0        5.290586   -0.135458   -3.203347
      2          8           0       -2.885239   -2.873193    3.331524
      3          8           0       -3.171167   -0.715456    3.383559
      4          8           0       -2.239181    7.112428    1.336143
      5          8           0       -0.634115    7.069844   -0.361218
      6          8           0       -1.672946   -4.078434   -0.031012
      7          7           0        2.375039    1.036988    0.497704
      8          7           0        4.357513   -0.667481   -1.162286
      9          7           0       -1.876101    0.603581   -0.421966
     10          7           0       -2.645904   -1.907340   -0.451983
     11          6           0        4.819923   -1.086802    0.049686
     12          6           0        4.489363   -0.042639    1.213314
     13          6           0        3.022380    0.217192    1.373196
     14          6           0        2.060500   -0.494730    2.100224
     15          6           0        0.750546   -0.101872    1.666054
     16          6           0        1.036781    0.871564    0.651535
     17          6           0        6.305293   -1.167081   -0.081326
     18          6           0       -0.409577   -0.135259    2.536239
     19          6           0        6.641155   -0.929361   -1.437433
     20          6           0        0.153021    1.974242    0.097803
     21          6           0       -1.170086    1.836560   -0.302302
     22          6           0        5.365010   -0.498308   -2.069497
     23          6           0       -2.034776    2.903697   -0.968444
     24          6           0        2.354301   -1.538941    3.096273
     25          6           0        7.235702   -1.739859    1.035786
     26          6           0       -3.160775    2.287525   -1.351932
     27          6           0       -1.023372   -1.619834    2.724687
     28          6           0       -3.096063    0.848786   -1.040889
     29          6           0       -1.602530    4.283821   -1.056634
     30          6           0        7.874156   -0.787286   -2.132801
     31          6           0       -1.986617    5.065666    0.289147
     32          6           0       -4.290500    2.896851   -2.088246
     33          6           0       -3.956714   -0.220000   -1.319289
     34          6           0       -2.397208   -1.626823    3.195822
     35          6           0       -3.706184   -1.593426   -1.030841
     36          6           0        9.208655   -0.749494   -1.682132
     37          6           0       -1.540467    6.474522    0.306987
     38          6           0       -4.619124   -2.778381   -1.300282
     39          6           0       -3.949727   -3.887672   -0.934569
     40          6           0       -2.577054   -3.329328   -0.452054
     41          6           0       -5.966711   -2.597939   -1.974973
     42          6           0       -4.208554   -5.274313   -1.143057
     43          6           0       -6.641198   -3.586856   -2.638107
     44          1           0        4.362738   -2.019780    0.477070
     45          1           0        5.087724    0.883502    0.888719
     46          1           0        4.884320   -0.483732    2.196407
     47          1           0        2.790318    1.700308   -0.037560
     48          1           0        3.218953   -0.357143   -1.191014
     49          1           0       -0.316462    0.265264    3.554826
     50          1           0       -1.183502    0.569181    2.141786
     51          1           0        0.494632    3.077881   -0.041485
     52          1           0        3.449822   -1.510995    3.335740
     53          1           0        1.693342   -1.270104    3.979813
     54          1           0        2.113396   -2.419557    2.743071
     55          1           0        6.516999   -2.095214    1.859594
     56          1           0        7.971318   -0.888830    1.347810
     57          1           0        8.088235   -2.423292    0.516836
     58          1           0       -1.024628   -2.274586    1.767296
     59          1           0       -0.488369   -2.211394    3.434737
     60          1           0       -1.596690   -0.447072   -0.236257
     61          1           0       -1.824144    4.799963   -1.974072
     62          1           0       -0.468630    4.224555   -1.171692
     63          1           0        7.803891   -0.648145   -3.238747
     64          1           0       -1.547940    4.679104    1.210436
     65          1           0       -3.129689    5.114066    0.545449
     66          1           0       -4.214999    3.795122   -2.340812
     67          1           0       -5.332878    2.996117   -1.685101
     68          1           0       -4.418485    2.344646   -3.028620
     69          1           0       -4.766216    0.036242   -1.996762
     70          1           0        9.611921   -0.921851   -0.569867
     71          1           0        9.817924   -0.644238   -2.643184
     72          1           0       -3.672055   -2.930310    3.481792
     73          1           0       -6.424361   -1.709501   -2.264758
     74          1           0       -4.085427   -5.796605   -2.154982
     75          1           0       -3.444701   -5.913400   -0.609784
     76          1           0       -5.223605   -5.380696   -0.798467
     77          1           0       -1.801089    8.156227    1.215776
     78          1           0       -7.496323   -3.398633   -3.143349
     79          1           0       -6.299944   -4.640513   -2.437786
 ---------------------------------------------------------------------

 SCF Done:  E(RB3LYP) =  -1947.82607478     A.U. after   16 cycles

 Excitation energies and oscillator strengths:

 Excited State   1:      Singlet-A      2.1948 eV  564.90 nm  f=0.4243  <S**2>=0.000
     155 ->156         0.70194
 This state for optimization and/or second-order correction.
 Total Energy, E(TD-HF/TD-KS) =  -1947.74541799
 Copying the excited state density for this state as the 1-particle RhoCI density.

 The electronic state is 1-A.
 Alpha  occ. eigenvalues --  -19.19866 -19.14489 -19.14264 -19.11941 -19.10640
 Alpha  occ. eigenvalues --  -19.08932 -14.38835 -14.36399 -14.35839 -14.30417
 Alpha  occ. eigenvalues --  -10.33634 -10.30392 -10.28226 -10.27626 -10.25159
 Alpha  occ. eigenvalues --  -10.24907 -10.24253 -10.24103 -10.23781 -10.23481
 Alpha  occ. eigenvalues --  -10.23237 -10.22748 -10.22599 -10.22506 -10.22451
 Alpha  occ. eigenvalues --  -10.22392 -10.21836 -10.21482 -10.21308 -10.21137
 Alpha  occ. eigenvalues --  -10.20564 -10.20413 -10.20026 -10.19860 -10.19828
 Alpha  occ. eigenvalues --  -10.19577 -10.19454 -10.19379 -10.19266 -10.19035
 Alpha  occ. eigenvalues --  -10.18963 -10.18855 -10.18808  -1.10557  -1.07071
 Alpha  occ. eigenvalues --   -1.03137  -1.01245  -1.00337  -0.99557  -0.98346
 Alpha  occ. eigenvalues --   -0.96643  -0.95521  -0.94648  -0.83747  -0.82507
 Alpha  occ. eigenvalues --   -0.81453  -0.80918  -0.80645  -0.79453  -0.78206
 Alpha  occ. eigenvalues --   -0.77429  -0.76642  -0.75622  -0.74050  -0.73504
 Alpha  occ. eigenvalues --   -0.72765  -0.70601  -0.70461  -0.69931  -0.69680
 Alpha  occ. eigenvalues --   -0.68618  -0.65846  -0.63852  -0.62260  -0.61289
 Alpha  occ. eigenvalues --   -0.59809  -0.58487  -0.58019  -0.57402  -0.56645
 Alpha  occ. eigenvalues --   -0.56286  -0.55922  -0.55302  -0.54132  -0.53447
 Alpha  occ. eigenvalues --   -0.52912  -0.52207  -0.50942  -0.50366  -0.49643
 Alpha  occ. eigenvalues --   -0.49278  -0.48846  -0.48366  -0.47747  -0.47638
 Alpha  occ. eigenvalues --   -0.47444  -0.46877  -0.46480  -0.46176  -0.45931
 Alpha  occ. eigenvalues --   -0.45503  -0.45126  -0.44731  -0.44374  -0.44059
 Alpha  occ. eigenvalues --   -0.43967  -0.43431  -0.43061  -0.42772  -0.42401
 Alpha  occ. eigenvalues --   -0.42069  -0.41834  -0.41538  -0.41251  -0.41084
 Alpha  occ. eigenvalues --   -0.40815  -0.40746  -0.40270  -0.39832  -0.39441
 Alpha  occ. eigenvalues --   -0.39282  -0.39098  -0.39059  -0.38871  -0.38566
 Alpha  occ. eigenvalues --   -0.38310  -0.38061  -0.37865  -0.37648  -0.37521
 Alpha  occ. eigenvalues --   -0.37361  -0.36597  -0.36042  -0.35588  -0.35152
 Alpha  occ. eigenvalues --   -0.34739  -0.34517  -0.33049  -0.32440  -0.31143
 Alpha  occ. eigenvalues --   -0.30853  -0.30834  -0.29562  -0.29212  -0.28639
 Alpha  occ. eigenvalues --   -0.26674  -0.26404  -0.25954  -0.25102  -0.24978
 Alpha  occ. eigenvalues --   -0.24606  -0.23874  -0.23357  -0.22704  -0.19469
 Alpha virt. eigenvalues --   -0.10630  -0.06603  -0.06219  -0.02582  -0.01214
 Alpha virt. eigenvalues --    0.00193   0.00745   0.01234   0.01744   0.02481
 Alpha virt. eigenvalues --    0.03023   0.03743   0.03812   0.04909   0.05081

 Mulliken charges:
               1
     1  O   -0.197860
     2  O   -0.077992
     3  O   -0.230293
     4  O   -0.288286
     5  O   -0.281957
     6  O   -0.221605
     7  N   -0.017152
     8  N   -0.203189
     9  N   -0.171011
    10  N   -0.233722
    11  C    0.051436
    12  C    0.093456
    13  C   -0.077163
    14  C   -0.195320
    15  C   -0.035824
    16  C    0.030753
    17  C   -0.143600
    18  C    0.062804
    19  C   -0.026794
    20  C   -0.110457
    21  C    0.091733
    22  C    0.130185
    23  C   -0.072444
    24  C    0.186728
    25  C    0.012135
    26  C   -0.087845
    27  C   -0.019833
    28  C    0.105777
    29  C    0.094318
    30  C   -0.064408
    31  C    0.003442
    32  C    0.189535
    33  C   -0.104260
    34  C    0.086085
    35  C    0.061256
    36  C   -0.077402
    37  C    0.180570
    38  C    0.083108
    39  C   -0.183221
    40  C    0.187972
    41  C   -0.019261
    42  C    0.035893
    43  C   -0.003206
    44  H    0.013875
    45  H   -0.001996
    46  H    0.014721
    47  H    0.087134
    48  H    0.190229
    49  H    0.015645
    50  H    0.019249
    51  H    0.018555
    52  H   -0.003614
    53  H    0.026043
    54  H   -0.005351
    55  H    0.049809
    56  H    0.048154
    57  H    0.062449
    58  H    0.086550
    59  H    0.016701
    60  H    0.198213
    61  H    0.017022
    62  H    0.022458
    63  H    0.027340
    64  H    0.054868
    65  H    0.067343
    66  H   -0.082505
    67  H    0.021715
    68  H    0.017707
    69  H   -0.032698
    70  H    0.046480
    71  H    0.046547
    72  H    0.069610
    73  H   -0.028790
    74  H    0.049120
    75  H    0.028852
    76  H    0.033498
    77  H    0.244009
    78  H   -0.001867
    79  H    0.019844
 Sum of Mulliken charges =   0.00000

 Dipole moment (field-independent basis, Debye):
    X=             -1.3844    Y=              2.4054    Z=              1.9571  Tot=              3.3960
 Quadrupole moment (field-independent basis, Debye-Ang):
   XX=           -227.7619   YY=           -245.7108   ZZ=           -263.0674
   XY=             -7.5686   XZ=             38.6662   YZ=              0.9486

 Normal termination of Gaussian 09 at Mon Jul  8 15:11:48 2019.
