 Gaussian 09, Revision D.01,
 Gaussian 09:  ES64L-G09RevD.01 24-Apr-2013

 --------------------------
 # td=(NStates=1) B3LYP/SVP
 --------------------------

 --
 TD
 --
 Symbolic Z-matrix:
 Charge =  0 Multiplicity = 1

                         Standard orientation:
 ---------------------------------------------------------------------
 Center     Atomic      Atomic             Coordinates (Angstroms)
 Number     Number       Type             X           Y           Z
 ---------------------------------------------------------------------
      1          8           0        5.252104   -0.301181   -3.362080
      2          8           0       -2.995548   -3.119634    3.214969
      3          8           0       -3.159354   -0.904617    3.150020
      4          8           0       -1.193184    7.233453    1.601113
      5          8           0       -0.022649    6.903540   -0.318803
      6          8           0       -2.175996   -3.987476   -0.257463
      7          7           0        2.463650    0.744898    0.673494
      8          7           0        4.262466   -0.610568   -1.237068
      9          7           0       -1.942944    0.755776   -0.380526
     10          7           0       -2.781619   -1.840687   -0.525313
     11          6           0        4.859638   -1.348314   -0.034166
     12          6           0        4.494056   -0.516702    1.235974
     13          6           0        3.140875   -0.172455    1.498746
     14          6           0        2.040634   -0.780294    2.217640
     15          6           0        0.847435   -0.174820    1.925154
     16          6           0        1.078429    0.812964    0.950928
     17          6           0        6.345320   -1.534054   -0.302597
     18          6           0       -0.553495   -0.462062    2.538410
     19          6           0        6.600921   -1.090492   -1.540749
     20          6           0        0.305251    1.870146    0.288991
     21          6           0       -0.999622    1.774434   -0.209381
     22          6           0        5.306076   -0.607882   -2.181468
     23          6           0       -1.737299    2.981787   -0.762024
     24          6           0        2.327537   -1.847422    3.302550
     25          6           0        7.267826   -2.202129    0.737892
     26          6           0       -3.007049    2.538822   -1.305618
     27          6           0       -1.143595   -1.860607    2.478900
     28          6           0       -3.124127    1.098584   -1.003258
     29          6           0       -1.215862    4.346388   -0.821189
     30          6           0        7.906332   -0.895199   -2.259443
     31          6           0       -1.480937    5.125823    0.464065
     32          6           0       -4.134428    3.295997   -1.878493
     33          6           0       -4.034365    0.174756   -1.289027
     34          6           0       -2.533608   -1.952755    2.964742
     35          6           0       -3.880587   -1.254724   -1.021743
     36          6           0        9.108199   -0.908302   -1.779489
     37          6           0       -0.829599    6.546130    0.556741
     38          6           0       -4.972463   -2.267088   -1.406205
     39          6           0       -4.384875   -3.434751   -1.138061
     40          6           0       -3.017051   -3.200525   -0.580111
     41          6           0       -6.295655   -1.964272   -2.079532
     42          6           0       -4.952120   -4.786347   -1.351187
     43          6           0       -7.212925   -2.759520   -2.572014
     44          1           0        4.335176   -2.181406   -0.128162
     45          1           0        5.147119    0.467201    1.246698
     46          1           0        4.961728   -0.796128    2.059315
     47          1           0        2.943861    1.322393   -0.069926
     48          1           0        3.400601   -0.940156   -1.554801
     49          1           0       -0.444898    0.081005    3.681930
     50          1           0       -1.202847    0.415683    2.070742
     51          1           0        0.863986    2.827795    0.271998
     52          1           0        3.485877   -2.090382    3.461241
     53          1           0        1.811384   -1.665783    4.272113
     54          1           0        1.963115   -2.808341    2.856763
     55          1           0        6.753378   -2.865625    1.364845
     56          1           0        7.958549   -1.483592    1.093379
     57          1           0        8.110010   -2.703578    0.117879
     58          1           0       -0.792124   -2.307523    1.513816
     59          1           0       -0.337507   -2.456199    3.321708
     60          1           0       -1.748941   -0.193242    0.027997
     61          1           0       -1.871491    4.741849   -1.551382
     62          1           0       -0.281898    4.252085   -1.427369
     63          1           0        7.621076   -0.629628   -3.367211
     64          1           0       -1.337758    4.554571    1.326949
     65          1           0       -2.504607    5.189919    0.606402
     66          1           0       -3.727718    4.363978   -2.271450
     67          1           0       -4.861415    3.557013   -1.073988
     68          1           0       -4.429168    2.776862   -2.754294
     69          1           0       -4.947190    0.594704   -1.730014
     70          1           0        9.191419   -0.881333   -0.731128
     71          1           0        9.972245   -0.614127   -2.244670
     72          1           0       -3.943861   -2.995688    3.682872
     73          1           0       -6.523428   -0.805038   -1.973079
     74          1           0       -5.171996   -5.199416   -2.319583
     75          1           0       -4.339498   -5.781304   -0.752786
     76          1           0       -6.037301   -5.064580   -0.664615
     77          1           0       -0.872879    8.257410    1.458477
     78          1           0       -8.304209   -2.190006   -2.862801
     79          1           0       -7.205851   -3.958705   -2.763903
 ---------------------------------------------------------------------

 SCF Done:  E(RB3LYP) =  -1947.80442422     A.U. after   16 cycles

 Excitation energies and oscillator strengths:

 Excited State   1:      Singlet-A      2.0520 eV  604.20 nm  f=0.4500  <S**2>=0.000
     155 ->156         0.70380
     155 <-156        -0.10245
 This state for optimization and/or second-order correction.
 Total Energy, E(TD-HF/TD-KS) =  -1947.72901378
 Copying the excited state density for this state as the 1-particle RhoCI density.

 The electronic state is 1-A.
 Alpha  occ. eigenvalues --  -19.21004 -19.19028 -19.12508 -19.10552 -19.10433
 Alpha  occ. eigenvalues --  -19.10230 -14.37310 -14.35984 -14.35106 -14.29336
 Alpha  occ. eigenvalues --  -10.32976 -10.30766 -10.28766 -10.26376 -10.24550
 Alpha  occ. eigenvalues --  -10.24545 -10.24276 -10.24147 -10.22556 -10.22293
 Alpha  occ. eigenvalues --  -10.22052 -10.22043 -10.22014 -10.21646 -10.21599
 Alpha  occ. eigenvalues --  -10.21461 -10.21367 -10.21044 -10.21026 -10.20905
 Alpha  occ. eigenvalues --  -10.20750 -10.20749 -10.20693 -10.20669 -10.20431
 Alpha  occ. eigenvalues --  -10.20421 -10.20204 -10.19859 -10.19798 -10.18983
 Alpha  occ. eigenvalues --  -10.18635 -10.18453 -10.18212  -1.10690  -1.10255
 Alpha  occ. eigenvalues --   -1.02910  -1.02317  -0.99712  -0.98277  -0.96589
 Alpha  occ. eigenvalues --   -0.95894  -0.93389  -0.92224  -0.82693  -0.82616
 Alpha  occ. eigenvalues --   -0.81173  -0.80326  -0.79860  -0.79587  -0.77471
 Alpha  occ. eigenvalues --   -0.77106  -0.75645  -0.75410  -0.74735  -0.72531
 Alpha  occ. eigenvalues --   -0.72205  -0.70480  -0.68823  -0.68213  -0.67897
 Alpha  occ. eigenvalues --   -0.66097  -0.65649  -0.63528  -0.61576  -0.61249
 Alpha  occ. eigenvalues --   -0.60188  -0.58765  -0.58323  -0.57933  -0.56396
 Alpha  occ. eigenvalues --   -0.54684  -0.54544  -0.54123  -0.53442  -0.52704
 Alpha  occ. eigenvalues --   -0.51737  -0.50804  -0.50563  -0.50501  -0.49729
 Alpha  occ. eigenvalues --   -0.49390  -0.48919  -0.48585  -0.47859  -0.47386
 Alpha  occ. eigenvalues --   -0.47266  -0.47044  -0.46657  -0.46396  -0.46066
 Alpha  occ. eigenvalues --   -0.45781  -0.44960  -0.44875  -0.44132  -0.44035
 Alpha  occ. eigenvalues --   -0.43531  -0.43428  -0.43095  -0.42450  -0.42154
 Alpha  occ. eigenvalues --   -0.41875  -0.41511  -0.41462  -0.41080  -0.40818
 Alpha  occ. eigenvalues --   -0.40225  -0.40039  -0.39601  -0.39288  -0.39195
 Alpha  occ. eigenvalues --   -0.39070  -0.38715  -0.38687  -0.38474  -0.37793
 Alpha  occ. eigenvalues --   -0.37656  -0.37463  -0.36854  -0.36194  -0.35527
 Alpha  occ. eigenvalues --   -0.35218  -0.34849  -0.34462  -0.33956  -0.33645
 Alpha  occ. eigenvalues --   -0.33127  -0.32493  -0.32101  -0.32035  -0.30862
 Alpha  occ. eigenvalues --   -0.30614  -0.29910  -0.28692  -0.28092  -0.27655
 Alpha  occ. eigenvalues --   -0.27416  -0.26227  -0.25710  -0.25068  -0.24815
 Alpha  occ. eigenvalues --   -0.24409  -0.24159  -0.23986  -0.22828  -0.18673
 Alpha virt. eigenvalues --   -0.10642  -0.06127  -0.05112  -0.00624  -0.00527
 Alpha virt. eigenvalues --    0.00628   0.00692   0.00869   0.01257   0.02848
 Alpha virt. eigenvalues --    0.03439   0.03560   0.04328   0.04535   0.04707

 Mulliken charges:
               1
     1  O   -0.219816
     2  O   -0.154773
     3  O   -0.272362
     4  O   -0.187710
     5  O   -0.261225
     6  O   -0.152790
     7  N   -0.144719
     8  N   -0.208412
     9  N   -0.132085
    10  N   -0.236325
    11  C    0.144611
    12  C    0.236021
    13  C   -0.062830
    14  C   -0.146546
    15  C   -0.082276
    16  C    0.059444
    17  C   -0.197938
    18  C   -0.020011
    19  C   -0.074375
    20  C   -0.137025
    21  C    0.164672
    22  C    0.149679
    23  C   -0.224037
    24  C    0.040558
    25  C    0.145738
    26  C   -0.124414
    27  C   -0.044209
    28  C    0.131377
    29  C    0.201055
    30  C    0.002728
    31  C    0.074327
    32  C    0.074453
    33  C   -0.124789
    34  C    0.162333
    35  C    0.087960
    36  C    0.025965
    37  C    0.150690
    38  C    0.035991
    39  C   -0.147978
    40  C    0.130899
    41  C    0.023141
    42  C   -0.092969
    43  C   -0.123293
    44  H   -0.028642
    45  H   -0.006922
    46  H   -0.064050
    47  H    0.133749
    48  H    0.122199
    49  H    0.025820
    50  H    0.030293
    51  H    0.026094
    52  H    0.012677
    53  H    0.038977
    54  H    0.028651
    55  H    0.028144
    56  H    0.023256
    57  H    0.029331
    58  H    0.084990
    59  H    0.045952
    60  H    0.168833
    61  H   -0.040146
    62  H    0.035586
    63  H    0.037021
    64  H    0.010592
    65  H   -0.010926
    66  H    0.022940
    67  H    0.054089
    68  H    0.030481
    69  H   -0.033674
    70  H   -0.017731
    71  H    0.004396
    72  H    0.227416
    73  H    0.030215
    74  H    0.044849
    75  H    0.044837
    76  H    0.037165
    77  H    0.240071
    78  H    0.049124
    79  H    0.065605
 Sum of Mulliken charges =   0.00000

 Dipole moment (field-independent basis, Debye):
    X=             -0.5278    Y=              2.3683    Z=              3.7266  Tot=              4.4469
 Quadrupole moment (field-independent basis, Debye-Ang):
   XX=           -210.5032   YY=           -234.2005   ZZ=           -263.3711
   XY=            -14.2337   XZ=             28.5622   YZ=              2.0253

 Normal termination of Gaussian 09 at Wed Jul 10 19:52:02 2019.
