 Gaussian 09, Revision D.01,
 Gaussian 09:  ES64L-G09RevD.01 24-Apr-2013

 --------------------------
 # td=(NStates=1) B3LYP/SVP
 --------------------------

 --
 TD
 --
 Symbolic Z-matrix:
 Charge =  0 Multiplicity = 1

                         Standard orientation:
 ---------------------------------------------------------------------
 Center     Atomic      Atomic             Coordinates (Angstroms)
 Number     Number       Type             X           Y           Z
 ---------------------------------------------------------------------
      1          8           0        5.476584   -0.035242   -3.338086
      2          8           0       -2.996390   -3.161750    3.526955
      3          8           0       -3.312631   -0.923982    3.115752
      4          8           0       -1.374551    7.194520    1.654316
      5          8           0       -0.778970    7.125021   -0.587148
      6          8           0       -1.894516   -3.956751   -0.161033
      7          7           0        2.311400    0.854519    0.531054
      8          7           0        4.527670   -0.772178   -1.372696
      9          7           0       -1.912808    0.698421   -0.477527
     10          7           0       -2.633725   -1.791535   -0.580901
     11          6           0        4.835910   -1.214092   -0.010687
     12          6           0        4.359752   -0.325066    1.172006
     13          6           0        2.954404   -0.164226    1.246926
     14          6           0        1.913256   -0.832598    2.012905
     15          6           0        0.698631   -0.168263    1.743504
     16          6           0        0.915714    0.857531    0.813483
     17          6           0        6.364032   -1.361605   -0.164589
     18          6           0       -0.644907   -0.289301    2.513715
     19          6           0        6.750302   -0.838067   -1.401139
     20          6           0        0.140648    1.935368    0.148587
     21          6           0       -1.110290    1.852823   -0.351729
     22          6           0        5.515872   -0.456453   -2.182733
     23          6           0       -1.947729    2.888510   -0.745943
     24          6           0        2.223656   -1.743459    3.159708
     25          6           0        7.220947   -1.950636    0.951191
     26          6           0       -3.177733    2.456057   -1.081656
     27          6           0       -1.221264   -1.846561    2.579756
     28          6           0       -3.135766    0.972347   -0.958860
     29          6           0       -1.455765    4.365681   -0.889964
     30          6           0        8.114559   -0.717535   -1.981189
     31          6           0       -1.673716    5.129321    0.498587
     32          6           0       -4.233763    3.175255   -1.608429
     33          6           0       -4.124641   -0.040598   -1.323910
     34          6           0       -2.542014   -1.921962    2.997691
     35          6           0       -3.863716   -1.351617   -1.044569
     36          6           0        9.276759   -0.618034   -1.334704
     37          6           0       -1.183358    6.529175    0.365282
     38          6           0       -4.692552   -2.553464   -1.415400
     39          6           0       -3.892008   -3.659185   -1.271056
     40          6           0       -2.728782   -3.190183   -0.589803
     41          6           0       -5.991543   -2.382429   -2.181320
     42          6           0       -4.162225   -5.038149   -1.479995
     43          6           0       -6.926142   -3.297824   -2.617082
     44          1           0        4.396392   -2.223863    0.246872
     45          1           0        5.025735    0.519238    1.162670
     46          1           0        4.660840   -0.760919    2.141626
     47          1           0        2.595361    1.361342   -0.146425
     48          1           0        3.431628   -0.488003   -1.675035
     49          1           0       -0.614505    0.083888    3.628925
     50          1           0       -1.476637    0.250238    2.270144
     51          1           0        0.600206    2.920152   -0.055347
     52          1           0        3.362260   -1.790188    3.296425
     53          1           0        1.739243   -1.499043    4.203957
     54          1           0        1.792106   -2.838291    2.973114
     55          1           0        6.509541   -2.725786    1.477310
     56          1           0        7.578687   -1.122536    1.687133
     57          1           0        8.021368   -2.531475    0.664716
     58          1           0       -1.035139   -2.360351    1.738653
     59          1           0       -0.663472   -2.372479    3.299182
     60          1           0       -1.763462   -0.310265   -0.167891
     61          1           0       -2.135075    4.791987   -1.597368
     62          1           0       -0.596457    4.499255   -1.465032
     63          1           0        8.255798   -0.681913   -3.004552
     64          1           0       -1.309671    4.625366    1.361786
     65          1           0       -2.759033    5.055307    0.853560
     66          1           0       -4.064073    4.302614   -2.319343
     67          1           0       -5.156145    3.591767   -0.945952
     68          1           0       -4.908976    2.644190   -2.399139
     69          1           0       -5.019734    0.448195   -1.781892
     70          1           0        9.637556   -0.587935   -0.201245
     71          1           0       10.157096   -0.365992   -1.837023
     72          1           0       -3.843947   -3.159397    3.914224
     73          1           0       -6.118663   -1.337957   -2.535303
     74          1           0       -4.519124   -5.154210   -2.579946
     75          1           0       -3.279589   -5.678193   -1.145219
     76          1           0       -5.075082   -5.567886   -1.077577
     77          1           0       -1.199997    8.067117    1.544316
     78          1           0       -7.850109   -3.091639   -3.087438
     79          1           0       -6.838075   -4.576029   -2.239932
 ---------------------------------------------------------------------

 SCF Done:  E(RB3LYP) =  -1947.82176180     A.U. after   19 cycles

 Excitation energies and oscillator strengths:

 Excited State   1:      Singlet-A      2.1288 eV  582.41 nm  f=0.2895  <S**2>=0.000
     154 ->156         0.27736
     155 ->156         0.64124
 This state for optimization and/or second-order correction.
 Total Energy, E(TD-HF/TD-KS) =  -1947.74352927
 Copying the excited state density for this state as the 1-particle RhoCI density.

 The electronic state is 1-A.
 Alpha  occ. eigenvalues --  -19.16401 -19.15561 -19.15498 -19.11110 -19.09657
 Alpha  occ. eigenvalues --  -19.09406 -14.38522 -14.37151 -14.36716 -14.28837
 Alpha  occ. eigenvalues --  -10.33805 -10.31275 -10.28271 -10.26139 -10.25946
 Alpha  occ. eigenvalues --  -10.25327 -10.24772 -10.24449 -10.24387 -10.23540
 Alpha  occ. eigenvalues --  -10.23456 -10.23408 -10.22893 -10.22653 -10.22229
 Alpha  occ. eigenvalues --  -10.22184 -10.21752 -10.21450 -10.21386 -10.21377
 Alpha  occ. eigenvalues --  -10.21316 -10.21265 -10.21193 -10.21074 -10.20846
 Alpha  occ. eigenvalues --  -10.20796 -10.20398 -10.20128 -10.20053 -10.19802
 Alpha  occ. eigenvalues --  -10.18895 -10.18795 -10.18389  -1.09257  -1.05302
 Alpha  occ. eigenvalues --   -1.01933  -1.01667  -1.01583  -0.99321  -0.98921
 Alpha  occ. eigenvalues --   -0.96767  -0.94302  -0.91162  -0.83910  -0.82966
 Alpha  occ. eigenvalues --   -0.82428  -0.81295  -0.80781  -0.79696  -0.78815
 Alpha  occ. eigenvalues --   -0.78445  -0.77100  -0.76219  -0.74676  -0.73431
 Alpha  occ. eigenvalues --   -0.71972  -0.71000  -0.70019  -0.69425  -0.68714
 Alpha  occ. eigenvalues --   -0.68496  -0.66919  -0.64577  -0.61271  -0.60771
 Alpha  occ. eigenvalues --   -0.59946  -0.59739  -0.58804  -0.58507  -0.57235
 Alpha  occ. eigenvalues --   -0.56807  -0.56590  -0.55916  -0.54785  -0.53772
 Alpha  occ. eigenvalues --   -0.53070  -0.52215  -0.51574  -0.51198  -0.50698
 Alpha  occ. eigenvalues --   -0.49900  -0.48867  -0.48371  -0.47999  -0.47786
 Alpha  occ. eigenvalues --   -0.47525  -0.47260  -0.46608  -0.46188  -0.45787
 Alpha  occ. eigenvalues --   -0.45415  -0.45068  -0.44781  -0.44675  -0.43870
 Alpha  occ. eigenvalues --   -0.43382  -0.43049  -0.42876  -0.42811  -0.42660
 Alpha  occ. eigenvalues --   -0.42404  -0.42019  -0.41863  -0.41730  -0.41469
 Alpha  occ. eigenvalues --   -0.40902  -0.40199  -0.40099  -0.39928  -0.39531
 Alpha  occ. eigenvalues --   -0.39458  -0.39063  -0.38955  -0.38164  -0.38142
 Alpha  occ. eigenvalues --   -0.38025  -0.37698  -0.37567  -0.37275  -0.36827
 Alpha  occ. eigenvalues --   -0.36070  -0.35892  -0.35716  -0.34612  -0.34488
 Alpha  occ. eigenvalues --   -0.34406  -0.33979  -0.33133  -0.33012  -0.31194
 Alpha  occ. eigenvalues --   -0.30930  -0.30343  -0.29957  -0.28544  -0.27468
 Alpha  occ. eigenvalues --   -0.26756  -0.26574  -0.26240  -0.26037  -0.25171
 Alpha  occ. eigenvalues --   -0.24311  -0.24109  -0.23726  -0.22111  -0.20160
 Alpha virt. eigenvalues --   -0.11381  -0.06923  -0.05936  -0.02260  -0.01364
 Alpha virt. eigenvalues --   -0.00539  -0.00349   0.01283   0.01922   0.02180
 Alpha virt. eigenvalues --    0.02755   0.02907   0.03449   0.04479   0.04987

 Mulliken charges:
               1
     1  O   -0.238730
     2  O   -0.226209
     3  O   -0.285888
     4  O   -0.233176
     5  O   -0.180251
     6  O   -0.208231
     7  N   -0.038198
     8  N   -0.213975
     9  N   -0.088598
    10  N   -0.337641
    11  C    0.089844
    12  C    0.184652
    13  C   -0.040390
    14  C   -0.078506
    15  C   -0.036517
    16  C    0.068784
    17  C   -0.173511
    18  C    0.050115
    19  C   -0.042618
    20  C   -0.091503
    21  C    0.118035
    22  C    0.140179
    23  C   -0.120961
    24  C   -0.012057
    25  C    0.077361
    26  C    0.057713
    27  C    0.123301
    28  C    0.019046
    29  C    0.163364
    30  C    0.045235
    31  C    0.000192
    32  C   -0.160671
    33  C   -0.095918
    34  C    0.153899
    35  C    0.167508
    36  C   -0.075194
    37  C    0.181650
    38  C    0.028080
    39  C   -0.126577
    40  C    0.146403
    41  C   -0.015877
    42  C    0.019166
    43  C   -0.078440
    44  H    0.027180
    45  H   -0.009811
    46  H   -0.004515
    47  H    0.039054
    48  H    0.170217
    49  H    0.021103
    50  H   -0.010402
    51  H    0.007256
    52  H    0.018747
    53  H    0.046544
    54  H    0.052453
    55  H    0.023074
    56  H    0.054782
    57  H    0.017400
    58  H    0.017798
    59  H    0.003844
    60  H    0.174886
    61  H   -0.020406
    62  H    0.007630
    63  H   -0.008817
    64  H    0.029545
    65  H    0.059019
    66  H    0.049177
    67  H    0.054778
    68  H    0.041844
    69  H   -0.012721
    70  H    0.024744
    71  H    0.006552
    72  H    0.166268
    73  H    0.008919
    74  H    0.028917
    75  H    0.046831
    76  H    0.032043
    77  H    0.136498
    78  H    0.022433
    79  H    0.042246
 Sum of Mulliken charges =   0.00000

 Dipole moment (field-independent basis, Debye):
    X=              0.5490    Y=              2.8222    Z=              3.7476  Tot=              4.7234
 Quadrupole moment (field-independent basis, Debye-Ang):
   XX=           -223.0575   YY=           -253.5047   ZZ=           -264.2130
   XY=            -10.4384   XZ=             36.0538   YZ=             -1.4871

 Normal termination of Gaussian 09 at Tue Jul  9 04:29:48 2019.
