 Gaussian 09, Revision D.01,
 Gaussian 09:  ES64L-G09RevD.01 24-Apr-2013

 --------------------------
 # td=(NStates=1) B3LYP/SVP
 --------------------------

 --
 TD
 --
 Symbolic Z-matrix:
 Charge =  0 Multiplicity = 1

                         Standard orientation:
 ---------------------------------------------------------------------
 Center     Atomic      Atomic             Coordinates (Angstroms)
 Number     Number       Type             X           Y           Z
 ---------------------------------------------------------------------
      1          8           0        5.197021    0.014822   -3.292443
      2          8           0       -2.695467   -3.160254    3.431100
      3          8           0       -3.196751   -0.992865    3.262307
      4          8           0       -1.480300    7.196571    1.627686
      5          8           0       -0.948850    7.149752   -0.620326
      6          8           0       -1.937153   -4.100839    0.084096
      7          7           0        2.388805    0.981176    0.678496
      8          7           0        4.277194   -0.526144   -1.255151
      9          7           0       -1.860602    0.684587   -0.262182
     10          7           0       -2.738480   -1.876263   -0.401005
     11          6           0        4.790070   -1.111343   -0.072657
     12          6           0        4.510498   -0.340611    1.174256
     13          6           0        3.041403   -0.068584    1.305740
     14          6           0        2.011481   -0.778102    2.104941
     15          6           0        0.756565   -0.193398    1.786162
     16          6           0        0.989638    0.906263    0.807187
     17          6           0        6.251466   -1.239210   -0.309759
     18          6           0       -0.565862   -0.359112    2.573732
     19          6           0        6.567000   -0.694111   -1.473166
     20          6           0        0.175248    1.885013    0.252764
     21          6           0       -1.067015    1.790333   -0.231239
     22          6           0        5.325423   -0.337094   -2.068604
     23          6           0       -1.872804    2.865630   -0.784534
     24          6           0        2.304978   -1.869892    3.061327
     25          6           0        7.242446   -1.821574    0.734056
     26          6           0       -3.145577    2.409646   -1.162773
     27          6           0       -1.029302   -1.823153    2.659340
     28          6           0       -3.068008    0.998009   -0.857803
     29          6           0       -1.497622    4.361873   -0.832539
     30          6           0        7.872299   -0.641163   -2.110302
     31          6           0       -1.751664    5.176487    0.434316
     32          6           0       -4.371493    2.947276   -1.717718
     33          6           0       -4.015491   -0.022250   -1.167805
     34          6           0       -2.407289   -1.888455    3.141115
     35          6           0       -3.764188   -1.468607   -1.067696
     36          6           0        9.127592   -0.875932   -1.643746
     37          6           0       -1.364405    6.604540    0.365874
     38          6           0       -4.626932   -2.558545   -1.551005
     39          6           0       -4.005609   -3.683939   -1.206014
     40          6           0       -2.743903   -3.253422   -0.414811
     41          6           0       -5.879307   -2.380522   -2.251330
     42          6           0       -4.290430   -5.035285   -1.555377
     43          6           0       -6.625981   -3.335525   -2.884198
     44          1           0        4.386367   -2.259323    0.060862
     45          1           0        4.823730    0.771271    1.023104
     46          1           0        4.938690   -0.653838    2.052760
     47          1           0        2.946528    1.692099    0.094185
     48          1           0        3.279089   -0.838154   -1.509929
     49          1           0       -0.519671    0.009939    3.684292
     50          1           0       -1.388593    0.126879    1.976454
     51          1           0        0.777077    2.906566   -0.141253
     52          1           0        3.505654   -2.006667    3.174389
     53          1           0        2.064948   -1.559985    4.265202
     54          1           0        1.728294   -2.792360    2.724275
     55          1           0        6.602843   -2.270747    1.471802
     56          1           0        7.787551   -0.936538    1.314176
     57          1           0        7.980298   -2.541989    0.261756
     58          1           0       -0.837264   -2.365530    1.878071
     59          1           0       -0.474411   -2.629574    3.318318
     60          1           0       -1.638070   -0.299588   -0.097577
     61          1           0       -1.899503    4.772394   -1.687455
     62          1           0       -0.661555    4.333939   -1.047258
     63          1           0        7.846663   -0.202284   -3.162239
     64          1           0       -1.462033    4.724515    1.357901
     65          1           0       -3.029554    5.091465    0.383825
     66          1           0       -4.208370    4.054605   -2.164604
     67          1           0       -5.247794    3.169915   -1.126070
     68          1           0       -4.578965    2.330489   -2.706831
     69          1           0       -4.798120    0.365531   -1.930891
     70          1           0        9.491409   -1.230771   -0.588715
     71          1           0        9.993168   -0.808271   -2.297441
     72          1           0       -3.816857   -3.245157    3.734385
     73          1           0       -6.260188   -1.260268   -2.349904
     74          1           0       -4.197590   -5.289420   -2.679384
     75          1           0       -3.545822   -5.532289   -0.833662
     76          1           0       -5.255754   -5.284905   -1.016592
     77          1           0       -1.479006    8.216221    1.499413
     78          1           0       -7.618036   -2.781958   -3.292824
     79          1           0       -6.450917   -4.468652   -3.129428
 ---------------------------------------------------------------------

 SCF Done:  E(RB3LYP) =  -1947.78807555     A.U. after   19 cycles

 Excitation energies and oscillator strengths:

 Excited State   1:      Singlet-A      2.1080 eV  588.17 nm  f=0.5496  <S**2>=0.000
     154 ->156         0.10714
     155 ->156         0.70188
     155 <-156        -0.12745
 This state for optimization and/or second-order correction.
 Total Energy, E(TD-HF/TD-KS) =  -1947.71060963
 Copying the excited state density for this state as the 1-particle RhoCI density.

 The electronic state is 1-A.
 Alpha  occ. eigenvalues --  -19.18583 -19.16900 -19.14010 -19.10624 -19.10534
 Alpha  occ. eigenvalues --  -19.08825 -14.40370 -14.37020 -14.36271 -14.29047
 Alpha  occ. eigenvalues --  -10.32929 -10.29504 -10.28413 -10.26676 -10.26241
 Alpha  occ. eigenvalues --  -10.24763 -10.24328 -10.24289 -10.23855 -10.23280
 Alpha  occ. eigenvalues --  -10.22923 -10.22738 -10.22731 -10.22689 -10.22454
 Alpha  occ. eigenvalues --  -10.22430 -10.21810 -10.21721 -10.21285 -10.20974
 Alpha  occ. eigenvalues --  -10.20959 -10.20951 -10.20785 -10.20730 -10.20536
 Alpha  occ. eigenvalues --  -10.20438 -10.20311 -10.19383 -10.18622 -10.18375
 Alpha  occ. eigenvalues --  -10.18265 -10.18134 -10.17771  -1.08688  -1.06977
 Alpha  occ. eigenvalues --   -1.02084  -1.00970  -0.99191  -0.98537  -0.97880
 Alpha  occ. eigenvalues --   -0.97833  -0.94472  -0.93151  -0.83776  -0.83192
 Alpha  occ. eigenvalues --   -0.82721  -0.81097  -0.80756  -0.80539  -0.78614
 Alpha  occ. eigenvalues --   -0.77085  -0.76279  -0.75513  -0.74476  -0.72757
 Alpha  occ. eigenvalues --   -0.72218  -0.71106  -0.69687  -0.69338  -0.68717
 Alpha  occ. eigenvalues --   -0.66537  -0.66142  -0.63785  -0.62851  -0.59766
 Alpha  occ. eigenvalues --   -0.59252  -0.58175  -0.57874  -0.57324  -0.56810
 Alpha  occ. eigenvalues --   -0.56714  -0.55766  -0.55262  -0.54787  -0.53591
 Alpha  occ. eigenvalues --   -0.52369  -0.51971  -0.51183  -0.50818  -0.50001
 Alpha  occ. eigenvalues --   -0.49434  -0.49117  -0.48900  -0.48211  -0.47569
 Alpha  occ. eigenvalues --   -0.46964  -0.46331  -0.46172  -0.45849  -0.45402
 Alpha  occ. eigenvalues --   -0.45008  -0.44616  -0.44362  -0.44199  -0.43968
 Alpha  occ. eigenvalues --   -0.43725  -0.43287  -0.42955  -0.42855  -0.42011
 Alpha  occ. eigenvalues --   -0.41722  -0.41686  -0.41464  -0.41241  -0.40956
 Alpha  occ. eigenvalues --   -0.40903  -0.40720  -0.40638  -0.40139  -0.39727
 Alpha  occ. eigenvalues --   -0.39597  -0.39271  -0.38768  -0.38502  -0.38160
 Alpha  occ. eigenvalues --   -0.37758  -0.37377  -0.36985  -0.36594  -0.35902
 Alpha  occ. eigenvalues --   -0.35389  -0.35108  -0.34738  -0.34072  -0.33698
 Alpha  occ. eigenvalues --   -0.33456  -0.33157  -0.32819  -0.32687  -0.32045
 Alpha  occ. eigenvalues --   -0.31213  -0.30344  -0.29284  -0.29001  -0.27482
 Alpha  occ. eigenvalues --   -0.26939  -0.26513  -0.26176  -0.25085  -0.24948
 Alpha  occ. eigenvalues --   -0.24472  -0.24039  -0.23767  -0.22182  -0.18585
 Alpha virt. eigenvalues --   -0.10640  -0.06481  -0.06183  -0.01971  -0.00999
 Alpha virt. eigenvalues --   -0.00430  -0.00049   0.01024   0.01626   0.02107
 Alpha virt. eigenvalues --    0.02520   0.02719   0.03262   0.03651   0.03751

 Mulliken charges:
               1
     1  O   -0.290133
     2  O   -0.266822
     3  O   -0.225086
     4  O   -0.255339
     5  O   -0.199470
     6  O   -0.260734
     7  N   -0.115634
     8  N   -0.127257
     9  N   -0.065299
    10  N   -0.221480
    11  C   -0.004086
    12  C    0.254192
    13  C   -0.114082
    14  C   -0.107174
    15  C   -0.081973
    16  C    0.075390
    17  C   -0.209822
    18  C    0.089075
    19  C    0.051633
    20  C   -0.161781
    21  C    0.129714
    22  C    0.105913
    23  C   -0.197624
    24  C   -0.026133
    25  C    0.062635
    26  C   -0.047318
    27  C    0.013839
    28  C    0.035914
    29  C    0.400127
    30  C   -0.016798
    31  C   -0.043883
    32  C    0.015227
    33  C   -0.088020
    34  C    0.150738
    35  C    0.038349
    36  C   -0.077508
    37  C    0.169708
    38  C    0.097859
    39  C   -0.254029
    40  C    0.180364
    41  C   -0.063865
    42  C    0.052194
    43  C   -0.094468
    44  H    0.046888
    45  H   -0.002882
    46  H   -0.019858
    47  H    0.152335
    48  H    0.177885
    49  H    0.041831
    50  H    0.034725
    51  H    0.031931
    52  H    0.017499
    53  H    0.049640
    54  H    0.070955
    55  H    0.004143
    56  H    0.059483
    57  H    0.067230
    58  H   -0.029781
    59  H    0.028038
    60  H    0.142373
    61  H   -0.025977
    62  H   -0.164438
    63  H    0.034366
    64  H    0.037256
    65  H    0.066057
    66  H    0.013500
    67  H    0.047529
    68  H    0.056760
    69  H   -0.002665
    70  H    0.032288
    71  H    0.028178
    72  H    0.245319
    73  H    0.026730
    74  H    0.064351
    75  H    0.030093
    76  H    0.026165
    77  H    0.209539
    78  H    0.036464
    79  H    0.058993
 Sum of Mulliken charges =   0.00000

 Dipole moment (field-independent basis, Debye):
    X=              2.3796    Y=              2.3505    Z=              3.4133  Tot=              4.7789
 Quadrupole moment (field-independent basis, Debye-Ang):
   XX=           -219.2553   YY=           -247.4304   ZZ=           -266.7822
   XY=            -16.1719   XZ=             32.9724   YZ=              4.8329

 Normal termination of Gaussian 09 at Wed Jul 10 04:11:27 2019.
