 Gaussian 09, Revision D.01,
 Gaussian 09:  ES64L-G09RevD.01 24-Apr-2013

 --------------------------
 # td=(NStates=1) B3LYP/SVP
 --------------------------

 --
 TD
 --
 Symbolic Z-matrix:
 Charge =  0 Multiplicity = 1

                         Standard orientation:
 ---------------------------------------------------------------------
 Center     Atomic      Atomic             Coordinates (Angstroms)
 Number     Number       Type             X           Y           Z
 ---------------------------------------------------------------------
      1          8           0        5.294375    0.073517   -3.247118
      2          8           0       -2.849177   -3.190539    3.227069
      3          8           0       -3.234930   -1.046546    3.097495
      4          8           0       -1.873423    7.329558    1.396522
      5          8           0       -0.675782    7.016125   -0.487968
      6          8           0       -1.798136   -4.006566   -0.134156
      7          7           0        2.386445    0.998540    0.628251
      8          7           0        4.387689   -0.493645   -1.092697
      9          7           0       -1.798983    0.641384   -0.422302
     10          7           0       -2.619254   -1.911617   -0.590587
     11          6           0        4.804377   -1.145761    0.121126
     12          6           0        4.452591   -0.248998    1.300460
     13          6           0        2.984063    0.088396    1.362298
     14          6           0        1.979281   -0.605455    2.134468
     15          6           0        0.782563   -0.065565    1.829499
     16          6           0        1.024600    0.979148    0.856649
     17          6           0        6.286309   -1.302742   -0.127739
     18          6           0       -0.593437   -0.222785    2.521330
     19          6           0        6.667195   -1.010046   -1.447321
     20          6           0        0.140909    1.966446    0.201702
     21          6           0       -1.125719    1.792984   -0.262485
     22          6           0        5.429403   -0.387366   -2.119114
     23          6           0       -1.940509    2.871971   -0.872141
     24          6           0        2.267586   -1.624474    3.162076
     25          6           0        7.150530   -1.801950    0.882155
     26          6           0       -3.094105    2.330467   -1.228676
     27          6           0       -0.957406   -1.833925    2.423985
     28          6           0       -3.049419    0.923360   -0.936191
     29          6           0       -1.459264    4.325192   -0.888613
     30          6           0        7.995687   -0.777466   -2.248324
     31          6           0       -1.789206    5.067385    0.382899
     32          6           0       -4.268810    3.042127   -1.784376
     33          6           0       -3.949256   -0.037329   -1.249476
     34          6           0       -2.414381   -1.857009    2.901381
     35          6           0       -3.807358   -1.379027   -0.994143
     36          6           0        9.133312   -1.048789   -1.613936
     37          6           0       -1.364770    6.525897    0.356739
     38          6           0       -4.697791   -2.559930   -1.353776
     39          6           0       -4.028901   -3.702571   -1.169713
     40          6           0       -2.733047   -3.237818   -0.562550
     41          6           0       -6.028577   -2.478134   -2.009745
     42          6           0       -4.219559   -5.158542   -1.265524
     43          6           0       -6.827723   -3.430663   -2.477407
     44          1           0        4.301714   -2.159155    0.167085
     45          1           0        4.978998    0.552629    1.156911
     46          1           0        4.625648   -0.675044    2.309951
     47          1           0        2.796376    1.656412    0.046742
     48          1           0        3.450838   -0.371304   -1.301947
     49          1           0       -0.698331   -0.040740    3.583261
     50          1           0       -1.257463    0.556796    1.894257
     51          1           0        0.603080    2.964200   -0.066863
     52          1           0        3.340391   -1.369569    3.594099
     53          1           0        1.560946   -1.479416    4.003071
     54          1           0        2.123571   -2.657082    2.754554
     55          1           0        6.412964   -2.539415    1.531465
     56          1           0        7.620818   -0.887701    1.479034
     57          1           0        7.941364   -2.266901    0.580394
     58          1           0       -1.180398   -2.222027    1.322108
     59          1           0       -0.210640   -2.565721    2.980920
     60          1           0       -1.608144   -0.353107   -0.282830
     61          1           0       -2.017857    4.935652   -1.756960
     62          1           0       -0.466854    4.369582   -1.187061
     63          1           0        7.727295   -0.831899   -3.230262
     64          1           0       -1.257668    4.558494    1.220039
     65          1           0       -2.795733    5.119603    0.824060
     66          1           0       -3.884870    4.023047   -2.176328
     67          1           0       -4.968048    3.207168   -1.064496
     68          1           0       -4.810137    2.509461   -2.596830
     69          1           0       -4.973802    0.495228   -1.703884
     70          1           0        9.347572   -1.025212   -0.617482
     71          1           0       10.223203   -0.879712   -2.152797
     72          1           0       -3.839018   -3.087201    3.417727
     73          1           0       -6.384038   -1.356609   -2.029048
     74          1           0       -4.424345   -5.680003   -2.279137
     75          1           0       -3.197365   -5.567151   -1.008639
     76          1           0       -5.159107   -5.543688   -0.848855
     77          1           0       -1.347014    8.077439    1.268619
     78          1           0       -7.914740   -3.005659   -2.714279
     79          1           0       -6.548895   -4.490585   -2.543103
 ---------------------------------------------------------------------

 SCF Done:  E(RB3LYP) =  -1947.85915317     A.U. after   19 cycles

 Excitation energies and oscillator strengths:

 Excited State   1:      Singlet-A      2.1223 eV  584.20 nm  f=0.4726  <S**2>=0.000
     154 ->156         0.12301
     155 ->156         0.69523
     155 <-156        -0.11991
 This state for optimization and/or second-order correction.
 Total Energy, E(TD-HF/TD-KS) =  -1947.78116044
 Copying the excited state density for this state as the 1-particle RhoCI density.

 The electronic state is 1-A.
 Alpha  occ. eigenvalues --  -19.18242 -19.14552 -19.13210 -19.11708 -19.11400
 Alpha  occ. eigenvalues --  -19.09307 -14.39898 -14.37047 -14.34560 -14.29247
 Alpha  occ. eigenvalues --  -10.33375 -10.30028 -10.29608 -10.25493 -10.25382
 Alpha  occ. eigenvalues --  -10.24707 -10.24504 -10.24183 -10.23664 -10.23609
 Alpha  occ. eigenvalues --  -10.22876 -10.22712 -10.22628 -10.22614 -10.21616
 Alpha  occ. eigenvalues --  -10.21495 -10.21472 -10.21425 -10.21354 -10.21260
 Alpha  occ. eigenvalues --  -10.21188 -10.20963 -10.20830 -10.20763 -10.20464
 Alpha  occ. eigenvalues --  -10.20269 -10.20122 -10.19889 -10.19715 -10.19702
 Alpha  occ. eigenvalues --  -10.19115 -10.18929 -10.18878  -1.10771  -1.07363
 Alpha  occ. eigenvalues --   -1.02189  -1.02158  -1.01380  -1.00045  -0.98531
 Alpha  occ. eigenvalues --   -0.95985  -0.93950  -0.91695  -0.84228  -0.82802
 Alpha  occ. eigenvalues --   -0.82577  -0.82377  -0.80714  -0.80247  -0.79318
 Alpha  occ. eigenvalues --   -0.78019  -0.76696  -0.75433  -0.74735  -0.73323
 Alpha  occ. eigenvalues --   -0.72052  -0.71863  -0.70430  -0.69660  -0.69319
 Alpha  occ. eigenvalues --   -0.66853  -0.66488  -0.64943  -0.61551  -0.60742
 Alpha  occ. eigenvalues --   -0.59998  -0.59431  -0.58643  -0.57535  -0.57331
 Alpha  occ. eigenvalues --   -0.56694  -0.56211  -0.55239  -0.54187  -0.53671
 Alpha  occ. eigenvalues --   -0.52580  -0.52061  -0.51575  -0.51350  -0.50551
 Alpha  occ. eigenvalues --   -0.49665  -0.49288  -0.48682  -0.48004  -0.47751
 Alpha  occ. eigenvalues --   -0.47397  -0.46904  -0.46704  -0.46130  -0.45926
 Alpha  occ. eigenvalues --   -0.45180  -0.44961  -0.44496  -0.44373  -0.44030
 Alpha  occ. eigenvalues --   -0.43805  -0.43763  -0.43528  -0.43252  -0.43214
 Alpha  occ. eigenvalues --   -0.42801  -0.42751  -0.42392  -0.42339  -0.41878
 Alpha  occ. eigenvalues --   -0.41613  -0.41106  -0.40613  -0.40550  -0.40070
 Alpha  occ. eigenvalues --   -0.39619  -0.39201  -0.39143  -0.38887  -0.38294
 Alpha  occ. eigenvalues --   -0.38228  -0.37929  -0.37802  -0.37655  -0.37094
 Alpha  occ. eigenvalues --   -0.36114  -0.35632  -0.35257  -0.34693  -0.34183
 Alpha  occ. eigenvalues --   -0.33724  -0.33707  -0.33571  -0.32784  -0.31771
 Alpha  occ. eigenvalues --   -0.31388  -0.29925  -0.29202  -0.28647  -0.27512
 Alpha  occ. eigenvalues --   -0.27083  -0.26740  -0.26536  -0.26025  -0.25544
 Alpha  occ. eigenvalues --   -0.24853  -0.24180  -0.23717  -0.22478  -0.19316
 Alpha virt. eigenvalues --   -0.11222  -0.06722  -0.05792  -0.01340  -0.00615
 Alpha virt. eigenvalues --   -0.00465   0.01194   0.02231   0.02717   0.02919
 Alpha virt. eigenvalues --    0.03591   0.04274   0.04769   0.05114   0.05996

 Mulliken charges:
               1
     1  O   -0.224521
     2  O   -0.289296
     3  O   -0.188720
     4  O   -0.192973
     5  O   -0.204947
     6  O   -0.283754
     7  N    0.037336
     8  N   -0.256716
     9  N   -0.039275
    10  N   -0.266278
    11  C    0.100058
    12  C    0.378462
    13  C   -0.203271
    14  C   -0.138901
    15  C   -0.038958
    16  C   -0.002941
    17  C   -0.214424
    18  C    0.035149
    19  C   -0.119738
    20  C   -0.107388
    21  C    0.080217
    22  C    0.188296
    23  C   -0.075467
    24  C    0.054784
    25  C    0.117370
    26  C   -0.130996
    27  C   -0.095562
    28  C    0.070742
    29  C    0.100938
    30  C    0.120990
    31  C    0.020686
    32  C    0.146765
    33  C   -0.162236
    34  C    0.134127
    35  C    0.150787
    36  C   -0.038477
    37  C    0.128088
    38  C    0.015232
    39  C   -0.147299
    40  C    0.134972
    41  C   -0.031835
    42  C    0.048148
    43  C   -0.041865
    44  H    0.038051
    45  H   -0.091088
    46  H   -0.009471
    47  H    0.094297
    48  H    0.098869
    49  H    0.023525
    50  H    0.051355
    51  H   -0.000697
    52  H    0.027126
    53  H    0.023422
    54  H    0.055579
    55  H    0.042966
    56  H    0.049936
    57  H   -0.021148
    58  H    0.117992
    59  H    0.071610
    60  H    0.143277
    61  H    0.033162
    62  H    0.004880
    63  H    0.001603
    64  H    0.039928
    65  H    0.038107
    66  H    0.014652
    67  H    0.004487
    68  H    0.027663
    69  H    0.024608
    70  H    0.001474
    71  H    0.038573
    72  H    0.181509
    73  H    0.001126
    74  H    0.019140
    75  H    0.054499
    76  H    0.022845
    77  H    0.149923
    78  H    0.044901
    79  H    0.014011
 Sum of Mulliken charges =   0.00000

 Dipole moment (field-independent basis, Debye):
    X=              2.3349    Y=              3.9650    Z=              2.8252  Tot=              5.3995
 Quadrupole moment (field-independent basis, Debye-Ang):
   XX=           -217.5120   YY=           -257.5712   ZZ=           -267.9154
   XY=            -11.8443   XZ=             33.5816   YZ=              6.1106

 Normal termination of Gaussian 09 at Wed Jul 10 11:01:26 2019.
