 Gaussian 09, Revision D.01,
 Gaussian 09:  ES64L-G09RevD.01 24-Apr-2013

 --------------------------
 # td=(NStates=1) B3LYP/SVP
 --------------------------

 --
 TD
 --
 Symbolic Z-matrix:
 Charge =  0 Multiplicity = 1

                         Standard orientation:
 ---------------------------------------------------------------------
 Center     Atomic      Atomic             Coordinates (Angstroms)
 Number     Number       Type             X           Y           Z
 ---------------------------------------------------------------------
      1          8           0        5.128294    0.001839   -3.313767
      2          8           0       -2.874858   -3.069457    3.183199
      3          8           0       -3.088776   -0.854653    3.463268
      4          8           0       -1.363366    7.160170    1.640668
      5          8           0       -0.883924    7.043276   -0.600490
      6          8           0       -1.802864   -4.031898    0.000725
      7          7           0        2.403820    0.986180    0.671304
      8          7           0        4.294872   -0.558858   -1.183128
      9          7           0       -1.933902    0.625888   -0.377554
     10          7           0       -2.564721   -1.794734   -0.583250
     11          6           0        4.778405   -1.280376    0.065573
     12          6           0        4.531131   -0.216485    1.270507
     13          6           0        3.037862   -0.007139    1.448240
     14          6           0        2.038120   -0.562937    2.250234
     15          6           0        0.772806    0.019266    1.864483
     16          6           0        1.001943    0.982227    0.879182
     17          6           0        6.329049   -1.369262   -0.267094
     18          6           0       -0.515055   -0.297829    2.644142
     19          6           0        6.580049   -0.898763   -1.444120
     20          6           0        0.157597    1.834723    0.104973
     21          6           0       -1.170546    1.770664   -0.296537
     22          6           0        5.265890   -0.460877   -2.114439
     23          6           0       -1.974897    2.896372   -0.880346
     24          6           0        2.369207   -1.514914    3.367892
     25          6           0        7.200054   -1.929678    0.727017
     26          6           0       -3.118228    2.299515   -1.377319
     27          6           0       -1.095153   -1.720397    2.501995
     28          6           0       -3.075580    0.929069   -1.034905
     29          6           0       -1.471579    4.349313   -0.906514
     30          6           0        7.801544   -0.821876   -2.265082
     31          6           0       -1.676584    5.106166    0.550551
     32          6           0       -4.303724    3.055052   -2.095467
     33          6           0       -4.067983   -0.121801   -1.324138
     34          6           0       -2.406558   -1.831257    3.104477
     35          6           0       -3.789795   -1.460720   -1.077238
     36          6           0        9.101201   -0.843080   -1.894649
     37          6           0       -1.271088    6.605234    0.473916
     38          6           0       -4.676718   -2.647656   -1.486414
     39          6           0       -4.008361   -3.748629   -0.994159
     40          6           0       -2.594586   -3.260604   -0.468831
     41          6           0       -5.931716   -2.397872   -2.039180
     42          6           0       -4.428064   -5.189825   -1.103122
     43          6           0       -6.653036   -3.191516   -2.756418
     44          1           0        4.154199   -2.301835    0.385366
     45          1           0        5.033500    0.847156    1.060327
     46          1           0        4.947933   -0.806185    2.412362
     47          1           0        2.801116    1.567323   -0.035179
     48          1           0        3.207037   -0.411447   -1.470641
     49          1           0       -0.603115   -0.194972    3.828834
     50          1           0       -1.157310    0.410834    2.284359
     51          1           0        0.653544    2.676599   -0.234676
     52          1           0        3.434285   -1.630196    3.837298
     53          1           0        1.504685   -1.584542    4.078732
     54          1           0        2.303983   -2.689482    3.038336
     55          1           0        6.625128   -2.672833    1.362031
     56          1           0        7.882289   -1.147432    1.201873
     57          1           0        7.987867   -2.653821    0.238190
     58          1           0       -1.172726   -2.105056    1.549843
     59          1           0       -0.336749   -2.500165    2.846974
     60          1           0       -1.664812   -0.273708   -0.312848
     61          1           0       -2.041814    5.009663   -1.720270
     62          1           0       -0.482282    4.133341   -1.169421
     63          1           0        7.503746   -0.462436   -3.334634
     64          1           0       -1.175602    4.609713    1.362557
     65          1           0       -2.788730    4.936226    0.700303
     66          1           0       -4.368756    4.148149   -2.401399
     67          1           0       -5.330869    2.903777   -1.564764
     68          1           0       -4.638302    2.661706   -3.098997
     69          1           0       -5.103741    0.211372   -1.990395
     70          1           0        9.477541   -1.252329   -0.888217
     71          1           0        9.880148   -0.623401   -2.501504
     72          1           0       -4.006558   -2.972445    3.124946
     73          1           0       -6.112782   -1.460826   -1.992221
     74          1           0       -4.223549   -5.512933   -2.144558
     75          1           0       -3.937337   -5.803763   -0.263457
     76          1           0       -5.588249   -5.186926   -1.032307
     77          1           0       -1.302843    8.199588    1.500645
     78          1           0       -7.578481   -3.006784   -3.002687
     79          1           0       -6.512590   -4.310141   -2.898503
 ---------------------------------------------------------------------

 SCF Done:  E(RB3LYP) =  -1947.80446616     A.U. after   16 cycles

 Excitation energies and oscillator strengths:

 Excited State   1:      Singlet-A      2.1411 eV  579.07 nm  f=0.4765  <S**2>=0.000
     154 ->156         0.15122
     155 ->156         0.69110
     155 <-156        -0.11790
 This state for optimization and/or second-order correction.
 Total Energy, E(TD-HF/TD-KS) =  -1947.72578236
 Copying the excited state density for this state as the 1-particle RhoCI density.

 The electronic state is 1-A.
 Alpha  occ. eigenvalues --  -19.21715 -19.17507 -19.13418 -19.10913 -19.10270
 Alpha  occ. eigenvalues --  -19.09859 -14.38744 -14.37604 -14.36311 -14.29123
 Alpha  occ. eigenvalues --  -10.33385 -10.30039 -10.29091 -10.28220 -10.27114
 Alpha  occ. eigenvalues --  -10.25748 -10.25278 -10.24983 -10.24290 -10.24139
 Alpha  occ. eigenvalues --  -10.22864 -10.22254 -10.22235 -10.22134 -10.22014
 Alpha  occ. eigenvalues --  -10.21966 -10.21931 -10.21930 -10.21824 -10.21740
 Alpha  occ. eigenvalues --  -10.20862 -10.20498 -10.20470 -10.20430 -10.20259
 Alpha  occ. eigenvalues --  -10.19739 -10.19672 -10.19643 -10.19304 -10.19055
 Alpha  occ. eigenvalues --  -10.18247 -10.17804 -10.17676  -1.12102  -1.06947
 Alpha  occ. eigenvalues --   -1.02086  -1.01890  -0.99767  -0.99540  -0.97821
 Alpha  occ. eigenvalues --   -0.96738  -0.92373  -0.89925  -0.83015  -0.82443
 Alpha  occ. eigenvalues --   -0.81637  -0.81267  -0.81149  -0.78690  -0.77060
 Alpha  occ. eigenvalues --   -0.76772  -0.76288  -0.75495  -0.74023  -0.72125
 Alpha  occ. eigenvalues --   -0.71495  -0.70837  -0.69371  -0.69205  -0.68504
 Alpha  occ. eigenvalues --   -0.66984  -0.65515  -0.63043  -0.61783  -0.61407
 Alpha  occ. eigenvalues --   -0.60847  -0.59101  -0.58183  -0.57752  -0.57408
 Alpha  occ. eigenvalues --   -0.56210  -0.55814  -0.55168  -0.53595  -0.52748
 Alpha  occ. eigenvalues --   -0.52034  -0.50924  -0.50524  -0.50490  -0.50089
 Alpha  occ. eigenvalues --   -0.49605  -0.49080  -0.48644  -0.47960  -0.47429
 Alpha  occ. eigenvalues --   -0.47101  -0.46834  -0.46265  -0.45989  -0.45384
 Alpha  occ. eigenvalues --   -0.45120  -0.44827  -0.44649  -0.44191  -0.44016
 Alpha  occ. eigenvalues --   -0.43680  -0.43618  -0.42651  -0.42289  -0.42062
 Alpha  occ. eigenvalues --   -0.41955  -0.41691  -0.41370  -0.41212  -0.40527
 Alpha  occ. eigenvalues --   -0.40233  -0.39765  -0.39218  -0.38848  -0.38810
 Alpha  occ. eigenvalues --   -0.38528  -0.38167  -0.37992  -0.37820  -0.37597
 Alpha  occ. eigenvalues --   -0.37488  -0.37319  -0.37070  -0.36997  -0.36677
 Alpha  occ. eigenvalues --   -0.36338  -0.36145  -0.35557  -0.35334  -0.34892
 Alpha  occ. eigenvalues --   -0.34476  -0.33834  -0.33812  -0.32378  -0.32007
 Alpha  occ. eigenvalues --   -0.31300  -0.29949  -0.29206  -0.28783  -0.28391
 Alpha  occ. eigenvalues --   -0.26697  -0.26381  -0.26068  -0.25138  -0.24989
 Alpha  occ. eigenvalues --   -0.24765  -0.24007  -0.23389  -0.22032  -0.19171
 Alpha virt. eigenvalues --   -0.10881  -0.06072  -0.05828  -0.00820  -0.00493
 Alpha virt. eigenvalues --   -0.00028   0.00130   0.00585   0.01111   0.01760
 Alpha virt. eigenvalues --    0.02600   0.03090   0.03219   0.03603   0.04238

 Mulliken charges:
               1
     1  O   -0.302823
     2  O   -0.240485
     3  O   -0.277310
     4  O   -0.162055
     5  O   -0.237697
     6  O   -0.189985
     7  N   -0.119716
     8  N   -0.241852
     9  N    0.041632
    10  N   -0.366851
    11  C    0.034056
    12  C    0.044561
    13  C   -0.023825
    14  C   -0.076990
    15  C   -0.106100
    16  C    0.090068
    17  C   -0.160130
    18  C    0.105939
    19  C   -0.003205
    20  C   -0.044557
    21  C    0.082118
    22  C    0.179071
    23  C   -0.117151
    24  C    0.003253
    25  C    0.035249
    26  C   -0.060779
    27  C    0.046418
    28  C    0.056174
    29  C    0.099698
    30  C   -0.013424
    31  C   -0.043415
    32  C    0.008588
    33  C   -0.157066
    34  C    0.142310
    35  C    0.088608
    36  C   -0.021235
    37  C    0.150935
    38  C    0.076792
    39  C   -0.236946
    40  C    0.195523
    41  C    0.073978
    42  C    0.043063
    43  C    0.035013
    44  H    0.080044
    45  H    0.043472
    46  H    0.046504
    47  H    0.106583
    48  H    0.184499
    49  H    0.036027
    50  H   -0.028781
    51  H   -0.048173
    52  H    0.039407
    53  H    0.026833
    54  H    0.023059
    55  H    0.029825
    56  H    0.061551
    57  H    0.041183
    58  H    0.008297
    59  H    0.019975
    60  H    0.083030
    61  H    0.050773
    62  H    0.011085
    63  H    0.045786
    64  H    0.037572
    65  H    0.056091
    66  H    0.030792
    67  H    0.029104
    68  H    0.020145
    69  H    0.042801
    70  H    0.021095
    71  H    0.002068
    72  H    0.252050
    73  H   -0.113870
    74  H    0.046047
    75  H    0.051129
    76  H    0.029068
    77  H    0.223179
    78  H   -0.032971
    79  H    0.015273
 Sum of Mulliken charges =   0.00000

 Dipole moment (field-independent basis, Debye):
    X=              0.7037    Y=              3.3588    Z=              2.9939  Tot=              4.5541
 Quadrupole moment (field-independent basis, Debye-Ang):
   XX=           -216.7384   YY=           -232.7572   ZZ=           -274.2767
   XY=            -14.7932   XZ=             34.5385   YZ=              7.3089

 Normal termination of Gaussian 09 at Mon Jul  8 18:52:39 2019.
