 Gaussian 09, Revision D.01,
 Gaussian 09:  ES64L-G09RevD.01 24-Apr-2013

 --------------------------
 # td=(NStates=1) B3LYP/SVP
 --------------------------

 --
 TD
 --
 Symbolic Z-matrix:
 Charge =  0 Multiplicity = 1

                         Standard orientation:
 ---------------------------------------------------------------------
 Center     Atomic      Atomic             Coordinates (Angstroms)
 Number     Number       Type             X           Y           Z
 ---------------------------------------------------------------------
      1          8           0        5.317210   -0.355841   -3.398427
      2          8           0       -2.572669   -3.225504    3.416587
      3          8           0       -2.970800   -0.925171    3.698203
      4          8           0       -2.083585    7.348347    1.208634
      5          8           0       -0.180237    6.826113   -0.346618
      6          8           0       -1.894914   -4.108625   -0.077084
      7          7           0        2.356569    1.027190    0.519111
      8          7           0        4.342076   -0.539990   -1.225426
      9          7           0       -1.922271    0.728490   -0.355144
     10          7           0       -2.710729   -1.854683   -0.447581
     11          6           0        4.878766   -1.067311    0.058015
     12          6           0        4.469954   -0.063922    1.201581
     13          6           0        2.993469    0.134133    1.284325
     14          6           0        2.112061   -0.452756    2.181689
     15          6           0        0.808095    0.089338    1.855546
     16          6           0        0.997537    0.892676    0.770222
     17          6           0        6.304402   -1.228822   -0.249938
     18          6           0       -0.485012   -0.219174    2.561324
     19          6           0        6.690160   -0.835259   -1.419754
     20          6           0        0.181245    1.832613    0.085213
     21          6           0       -1.214854    1.806979   -0.252716
     22          6           0        5.440777   -0.532569   -2.236973
     23          6           0       -2.017742    2.861690   -0.820374
     24          6           0        2.363233   -1.410792    3.308150
     25          6           0        7.168354   -1.760557    0.890421
     26          6           0       -3.275646    2.337400   -1.204124
     27          6           0       -0.914475   -1.619349    2.600439
     28          6           0       -3.149644    0.908127   -0.885759
     29          6           0       -1.607237    4.308775   -1.018403
     30          6           0        7.895417   -0.886421   -2.229461
     31          6           0       -1.965433    5.214519    0.280124
     32          6           0       -4.377096    2.993996   -1.909432
     33          6           0       -4.109764   -0.040044   -1.403982
     34          6           0       -2.299699   -1.871888    3.227187
     35          6           0       -3.832597   -1.442248   -1.088967
     36          6           0        9.211376   -0.984213   -1.696043
     37          6           0       -1.368168    6.586715    0.265408
     38          6           0       -4.758509   -2.582012   -1.452768
     39          6           0       -4.041978   -3.713150   -1.127327
     40          6           0       -2.711195   -3.257290   -0.395926
     41          6           0       -6.073119   -2.473380   -2.178436
     42          6           0       -4.341698   -5.261829   -1.204883
     43          6           0       -6.870251   -3.532970   -2.595302
     44          1           0        4.280579   -2.023871    0.391370
     45          1           0        5.158860    0.911729    1.015064
     46          1           0        4.594018   -0.458191    2.239396
     47          1           0        2.670650    1.518091   -0.185317
     48          1           0        3.418405   -0.602474   -1.661394
     49          1           0       -0.213218    0.195077    3.611048
     50          1           0       -1.411776    0.573298    2.293279
     51          1           0        0.523627    2.917196   -0.076173
     52          1           0        3.455817   -1.112414    3.858993
     53          1           0        1.371832   -1.269440    4.023110
     54          1           0        2.477174   -2.445183    2.758196
     55          1           0        6.759772   -2.398014    1.522895
     56          1           0        7.965659   -0.922481    1.522840
     57          1           0        8.022190   -2.518121    0.481415
     58          1           0       -0.731103   -1.972458    1.740108
     59          1           0       -0.440603   -2.391090    3.240944
     60          1           0       -1.780158   -0.269153   -0.264926
     61          1           0       -1.978091    4.839041   -1.975909
     62          1           0       -0.501390    4.484484   -1.302830
     63          1           0        7.945242   -0.847188   -3.234288
     64          1           0       -1.476546    4.586525    1.229072
     65          1           0       -3.269307    5.254792    0.350591
     66          1           0       -4.056510    3.950455   -2.504066
     67          1           0       -4.948912    3.447063   -1.034091
     68          1           0       -4.603671    2.182616   -2.641740
     69          1           0       -5.132370    0.158066   -1.819874
     70          1           0        9.398307   -1.018589   -0.587302
     71          1           0        9.879280   -1.336442   -2.536955
     72          1           0       -3.477692   -3.422532    3.775589
     73          1           0       -6.320208   -1.490609   -2.511868
     74          1           0       -4.501917   -5.631487   -2.187694
     75          1           0       -3.735451   -6.063793   -0.640042
     76          1           0       -5.437564   -5.462329   -1.093304
     77          1           0       -1.591652    8.118008    1.237713
     78          1           0       -7.773971   -3.270385   -3.242301
     79          1           0       -6.523212   -4.597848   -2.433094
 ---------------------------------------------------------------------

 SCF Done:  E(RB3LYP) =  -1947.73382287     A.U. after   17 cycles

 Excitation energies and oscillator strengths:

 Excited State   1:      Singlet-A      2.1766 eV  569.62 nm  f=0.5418  <S**2>=0.000
     154 ->156         0.16452
     155 ->156         0.68526
     155 <-156        -0.12561
 This state for optimization and/or second-order correction.
 Total Energy, E(TD-HF/TD-KS) =  -1947.65383404
 Copying the excited state density for this state as the 1-particle RhoCI density.

 The electronic state is 1-A.
 Alpha  occ. eigenvalues --  -19.21038 -19.17634 -19.14983 -19.12156 -19.11915
 Alpha  occ. eigenvalues --  -19.10490 -14.37437 -14.36512 -14.34610 -14.29602
 Alpha  occ. eigenvalues --  -10.35278 -10.32088 -10.29227 -10.26938 -10.26048
 Alpha  occ. eigenvalues --  -10.25000 -10.24965 -10.24327 -10.24161 -10.23218
 Alpha  occ. eigenvalues --  -10.23184 -10.22741 -10.22678 -10.22648 -10.22468
 Alpha  occ. eigenvalues --  -10.22332 -10.22234 -10.21346 -10.21180 -10.21084
 Alpha  occ. eigenvalues --  -10.21007 -10.20682 -10.20672 -10.20594 -10.20572
 Alpha  occ. eigenvalues --  -10.20393 -10.20347 -10.20283 -10.20022 -10.19833
 Alpha  occ. eigenvalues --  -10.19457 -10.19281 -10.18575  -1.09838  -1.06015
 Alpha  occ. eigenvalues --   -1.05042  -1.01115  -1.00730  -1.00414  -0.98086
 Alpha  occ. eigenvalues --   -0.97216  -0.92873  -0.91032  -0.82948  -0.82442
 Alpha  occ. eigenvalues --   -0.82021  -0.81560  -0.79692  -0.78662  -0.77955
 Alpha  occ. eigenvalues --   -0.77133  -0.76566  -0.74774  -0.73247  -0.72487
 Alpha  occ. eigenvalues --   -0.71560  -0.71122  -0.69711  -0.68996  -0.68713
 Alpha  occ. eigenvalues --   -0.67883  -0.66239  -0.63153  -0.61185  -0.60402
 Alpha  occ. eigenvalues --   -0.60246  -0.59242  -0.58236  -0.58110  -0.57328
 Alpha  occ. eigenvalues --   -0.56073  -0.55483  -0.55441  -0.53776  -0.53139
 Alpha  occ. eigenvalues --   -0.52025  -0.51892  -0.50841  -0.50589  -0.50325
 Alpha  occ. eigenvalues --   -0.49468  -0.48770  -0.48202  -0.47632  -0.47194
 Alpha  occ. eigenvalues --   -0.46754  -0.46541  -0.46336  -0.46059  -0.45782
 Alpha  occ. eigenvalues --   -0.44951  -0.44654  -0.44387  -0.43581  -0.43191
 Alpha  occ. eigenvalues --   -0.42868  -0.42805  -0.42524  -0.42173  -0.42019
 Alpha  occ. eigenvalues --   -0.41845  -0.41529  -0.41423  -0.41017  -0.40848
 Alpha  occ. eigenvalues --   -0.40626  -0.40597  -0.40243  -0.40071  -0.39694
 Alpha  occ. eigenvalues --   -0.39263  -0.39098  -0.38510  -0.38317  -0.37936
 Alpha  occ. eigenvalues --   -0.37799  -0.37474  -0.37164  -0.36521  -0.36389
 Alpha  occ. eigenvalues --   -0.36152  -0.36075  -0.35382  -0.35212  -0.34687
 Alpha  occ. eigenvalues --   -0.33862  -0.33303  -0.32302  -0.32175  -0.31955
 Alpha  occ. eigenvalues --   -0.31072  -0.30317  -0.28901  -0.28379  -0.28007
 Alpha  occ. eigenvalues --   -0.27048  -0.26916  -0.26109  -0.25515  -0.25171
 Alpha  occ. eigenvalues --   -0.24627  -0.23946  -0.23252  -0.21955  -0.18970
 Alpha virt. eigenvalues --   -0.10817  -0.06851  -0.06114  -0.06010  -0.01018
 Alpha virt. eigenvalues --   -0.00166   0.00278   0.00648   0.01603   0.02175
 Alpha virt. eigenvalues --    0.03511   0.03751   0.04677   0.05117   0.05345

 Mulliken charges:
               1
     1  O   -0.162072
     2  O   -0.233120
     3  O   -0.260281
     4  O   -0.150153
     5  O   -0.328296
     6  O   -0.209305
     7  N    0.040925
     8  N   -0.307936
     9  N    0.046667
    10  N   -0.320458
    11  C    0.095778
    12  C    0.156319
    13  C   -0.100014
    14  C   -0.130413
    15  C   -0.072282
    16  C    0.088284
    17  C   -0.102398
    18  C    0.003504
    19  C    0.015907
    20  C   -0.110335
    21  C    0.003999
    22  C    0.150395
    23  C   -0.050092
    24  C   -0.035850
    25  C    0.025551
    26  C   -0.155589
    27  C    0.103816
    28  C    0.069402
    29  C   -0.004124
    30  C   -0.020687
    31  C   -0.097547
    32  C    0.064469
    33  C   -0.122923
    34  C    0.190832
    35  C    0.057559
    36  C   -0.042956
    37  C    0.235854
    38  C    0.033582
    39  C   -0.198520
    40  C    0.180007
    41  C   -0.000707
    42  C    0.078855
    43  C   -0.047368
    44  H    0.033474
    45  H    0.021717
    46  H   -0.007948
    47  H    0.051857
    48  H    0.131684
    49  H    0.020694
    50  H    0.064245
    51  H    0.025094
    52  H    0.052849
    53  H    0.067584
    54  H    0.063312
    55  H   -0.020026
    56  H    0.064509
    57  H    0.035228
    58  H   -0.027291
    59  H    0.031836
    60  H    0.125165
    61  H    0.024484
    62  H    0.038234
    63  H   -0.023823
    64  H    0.095976
    65  H    0.070809
    66  H    0.025010
    67  H    0.055173
    68  H    0.058377
    69  H    0.016809
    70  H    0.035453
    71  H    0.044336
    72  H    0.202706
    73  H   -0.025821
    74  H   -0.004581
    75  H    0.058186
    76  H    0.000403
    77  H    0.155252
    78  H    0.039436
    79  H    0.021315
 Sum of Mulliken charges =   0.00000

 Dipole moment (field-independent basis, Debye):
    X=              0.8398    Y=              2.4235    Z=              2.2554  Tot=              3.4155
 Quadrupole moment (field-independent basis, Debye-Ang):
   XX=           -224.9284   YY=           -241.6120   ZZ=           -262.7782
   XY=            -16.4433   XZ=             27.8409   YZ=             -0.1770

 Normal termination of Gaussian 09 at Mon Jul  8 04:25:49 2019.
