 Gaussian 09, Revision D.01,
 Gaussian 09:  ES64L-G09RevD.01 24-Apr-2013

 --------------------------
 # td=(NStates=1) B3LYP/SVP
 --------------------------

 --
 TD
 --
 Symbolic Z-matrix:
 Charge =  0 Multiplicity = 1

                         Standard orientation:
 ---------------------------------------------------------------------
 Center     Atomic      Atomic             Coordinates (Angstroms)
 Number     Number       Type             X           Y           Z
 ---------------------------------------------------------------------
      1          8           0        5.426346   -0.292370   -3.354959
      2          8           0       -2.820099   -2.900044    3.276623
      3          8           0       -3.193416   -0.734863    3.358520
      4          8           0       -1.734536    6.974842    1.560064
      5          8           0       -1.088231    7.048085   -0.642245
      6          8           0       -1.803160   -4.078989    0.172705
      7          7           0        2.408803    1.093122    0.490402
      8          7           0        4.430442   -0.518589   -1.231001
      9          7           0       -1.907302    0.591201   -0.439739
     10          7           0       -2.633647   -1.946095   -0.477219
     11          6           0        4.893996   -1.005983    0.104204
     12          6           0        4.504132   -0.122157    1.196458
     13          6           0        2.977728    0.140326    1.234789
     14          6           0        2.101609   -0.462130    2.095886
     15          6           0        0.762490    0.002648    1.744457
     16          6           0        1.018391    1.077880    0.722585
     17          6           0        6.400270   -1.150322   -0.113057
     18          6           0       -0.540930   -0.115175    2.424048
     19          6           0        6.751447   -0.744694   -1.351667
     20          6           0        0.131958    1.960126    0.025555
     21          6           0       -1.184742    1.775921   -0.431144
     22          6           0        5.497479   -0.545174   -2.143356
     23          6           0       -2.018939    2.884942   -0.957305
     24          6           0        2.348724   -1.380940    3.206895
     25          6           0        7.216144   -1.724501    0.907563
     26          6           0       -3.239157    2.193683   -1.362447
     27          6           0       -0.974274   -1.605304    2.612299
     28          6           0       -3.078102    0.778059   -1.140020
     29          6           0       -1.666975    4.310286   -1.029346
     30          6           0        8.019019   -0.863868   -1.994172
     31          6           0       -1.896744    5.031019    0.307792
     32          6           0       -4.445534    2.845176   -1.927007
     33          6           0       -3.953922   -0.219813   -1.302507
     34          6           0       -2.409321   -1.619474    3.128108
     35          6           0       -3.716382   -1.502506   -1.019256
     36          6           0        9.310260   -0.800991   -1.517156
     37          6           0       -1.605989    6.422615    0.346890
     38          6           0       -4.629057   -2.826094   -1.377704
     39          6           0       -3.968145   -3.845903   -1.007768
     40          6           0       -2.650486   -3.362088   -0.309195
     41          6           0       -5.976706   -2.475533   -1.944239
     42          6           0       -4.272714   -5.305519   -1.245077
     43          6           0       -6.827396   -3.443617   -2.397520
     44          1           0        4.561299   -1.995852    0.191055
     45          1           0        4.970759    0.793712    1.246730
     46          1           0        4.930530   -0.545544    2.256240
     47          1           0        2.738522    1.577178   -0.270498
     48          1           0        3.456950   -0.771629   -1.481126
     49          1           0       -0.592345    0.491790    3.338258
     50          1           0       -1.390077    0.440771    1.692789
     51          1           0        0.705743    2.864103   -0.269518
     52          1           0        3.546581   -1.761784    3.342697
     53          1           0        1.984738   -1.044628    4.042117
     54          1           0        2.058717   -2.420110    2.947832
     55          1           0        6.736417   -2.450239    1.568510
     56          1           0        7.559167   -0.786025    1.688942
     57          1           0        8.173769   -2.121527    0.572880
     58          1           0       -1.065389   -2.070725    1.586524
     59          1           0       -0.288483   -2.421329    3.088792
     60          1           0       -1.699092   -0.411395   -0.101699
     61          1           0       -2.452436    4.634029   -1.788219
     62          1           0       -0.634880    4.433955   -1.456230
     63          1           0        7.826681   -1.080385   -3.258473
     64          1           0       -1.237147    4.534705    1.142530
     65          1           0       -3.023893    4.883501    0.920273
     66          1           0       -4.255273    3.953289   -2.034834
     67          1           0       -5.237491    2.693104   -1.238851
     68          1           0       -4.713912    2.496830   -2.898402
     69          1           0       -4.843628    0.074023   -1.972074
     70          1           0        9.457180   -0.431498   -0.449940
     71          1           0       10.204180   -0.975627   -2.265180
     72          1           0       -3.701821   -3.048462    3.512142
     73          1           0       -6.426477   -1.333243   -2.236827
     74          1           0       -4.372574   -5.608171   -2.310817
     75          1           0       -3.575896   -6.013019   -0.736955
     76          1           0       -5.180710   -5.564260   -0.644548
     77          1           0       -1.615057    8.026845    1.285724
     78          1           0       -7.681792   -2.875752   -3.014637
     79          1           0       -6.574953   -4.642759   -2.283480
 ---------------------------------------------------------------------

 SCF Done:  E(RB3LYP) =  -1947.83275139     A.U. after   17 cycles

 Excitation energies and oscillator strengths:

 Excited State   1:      Singlet-A      2.1957 eV  564.68 nm  f=0.5471  <S**2>=0.000
     155 ->156         0.70786
     155 <-156        -0.12722
 This state for optimization and/or second-order correction.
 Total Energy, E(TD-HF/TD-KS) =  -1947.75206209
 Copying the excited state density for this state as the 1-particle RhoCI density.

 The electronic state is 1-A.
 Alpha  occ. eigenvalues --  -19.20273 -19.15166 -19.12707 -19.11280 -19.11113
 Alpha  occ. eigenvalues --  -19.10368 -14.39001 -14.36161 -14.35839 -14.29367
 Alpha  occ. eigenvalues --  -10.32654 -10.30714 -10.29130 -10.27525 -10.24560
 Alpha  occ. eigenvalues --  -10.24546 -10.23736 -10.23719 -10.23711 -10.23689
 Alpha  occ. eigenvalues --  -10.22550 -10.22385 -10.22322 -10.22263 -10.22215
 Alpha  occ. eigenvalues --  -10.22122 -10.21880 -10.21818 -10.21724 -10.21322
 Alpha  occ. eigenvalues --  -10.21273 -10.21031 -10.20618 -10.20573 -10.20444
 Alpha  occ. eigenvalues --  -10.20301 -10.20066 -10.19822 -10.19712 -10.19565
 Alpha  occ. eigenvalues --  -10.19168 -10.18700 -10.18007  -1.09263  -1.08110
 Alpha  occ. eigenvalues --   -1.02114  -1.01460  -0.99635  -0.98841  -0.98080
 Alpha  occ. eigenvalues --   -0.97472  -0.93799  -0.92261  -0.83219  -0.82969
 Alpha  occ. eigenvalues --   -0.82101  -0.81710  -0.80481  -0.79852  -0.78236
 Alpha  occ. eigenvalues --   -0.77624  -0.76456  -0.75396  -0.74400  -0.73085
 Alpha  occ. eigenvalues --   -0.71989  -0.71741  -0.70089  -0.69040  -0.68475
 Alpha  occ. eigenvalues --   -0.67744  -0.66404  -0.63737  -0.61306  -0.60654
 Alpha  occ. eigenvalues --   -0.59177  -0.58647  -0.58536  -0.57943  -0.57044
 Alpha  occ. eigenvalues --   -0.56263  -0.54929  -0.54825  -0.53897  -0.52842
 Alpha  occ. eigenvalues --   -0.51765  -0.50806  -0.50556  -0.50006  -0.49337
 Alpha  occ. eigenvalues --   -0.49081  -0.48851  -0.48798  -0.48201  -0.47946
 Alpha  occ. eigenvalues --   -0.47329  -0.46556  -0.46168  -0.45944  -0.45868
 Alpha  occ. eigenvalues --   -0.45448  -0.45361  -0.44946  -0.44379  -0.44071
 Alpha  occ. eigenvalues --   -0.43565  -0.43256  -0.42915  -0.42586  -0.42405
 Alpha  occ. eigenvalues --   -0.42164  -0.41996  -0.41875  -0.41554  -0.41442
 Alpha  occ. eigenvalues --   -0.41198  -0.40650  -0.40202  -0.39951  -0.39796
 Alpha  occ. eigenvalues --   -0.39500  -0.39121  -0.39036  -0.38871  -0.38524
 Alpha  occ. eigenvalues --   -0.37635  -0.37389  -0.37084  -0.36665  -0.35806
 Alpha  occ. eigenvalues --   -0.35718  -0.35356  -0.34803  -0.34767  -0.34353
 Alpha  occ. eigenvalues --   -0.33814  -0.33312  -0.31794  -0.31747  -0.31540
 Alpha  occ. eigenvalues --   -0.31298  -0.30616  -0.29184  -0.28121  -0.27166
 Alpha  occ. eigenvalues --   -0.26811  -0.26700  -0.25897  -0.25331  -0.24958
 Alpha  occ. eigenvalues --   -0.24638  -0.24199  -0.24000  -0.23211  -0.18730
 Alpha virt. eigenvalues --   -0.10436  -0.06221  -0.05434  -0.02734  -0.00450
 Alpha virt. eigenvalues --   -0.00085   0.00793   0.01365   0.01760   0.01898
 Alpha virt. eigenvalues --    0.02862   0.03587   0.03713   0.04450   0.04710

 Mulliken charges:
               1
     1  O   -0.236364
     2  O   -0.173251
     3  O   -0.219315
     4  O   -0.222419
     5  O   -0.302507
     6  O   -0.191346
     7  N    0.001530
     8  N   -0.244506
     9  N   -0.130639
    10  N   -0.293618
    11  C    0.154899
    12  C    0.201887
    13  C   -0.091811
    14  C   -0.123333
    15  C   -0.051123
    16  C    0.004258
    17  C   -0.182187
    18  C   -0.012043
    19  C   -0.016547
    20  C   -0.104661
    21  C    0.131501
    22  C    0.171512
    23  C   -0.110698
    24  C    0.108905
    25  C    0.044999
    26  C   -0.166296
    27  C   -0.055791
    28  C    0.127968
    29  C    0.146922
    30  C   -0.090849
    31  C   -0.087886
    32  C    0.139757
    33  C   -0.154352
    34  C    0.132462
    35  C    0.073100
    36  C   -0.080017
    37  C    0.172066
    38  C    0.104425
    39  C   -0.241354
    40  C    0.188130
    41  C   -0.084581
    42  C    0.063097
    43  C   -0.092712
    44  H   -0.004393
    45  H   -0.036434
    46  H    0.022885
    47  H    0.091280
    48  H    0.144423
    49  H    0.029904
    50  H    0.054323
    51  H   -0.007094
    52  H   -0.000132
    53  H   -0.003915
    54  H    0.036677
    55  H    0.024460
    56  H    0.050013
    57  H    0.032055
    58  H    0.068709
    59  H    0.053236
    60  H    0.181202
    61  H    0.027058
    62  H    0.043200
    63  H    0.064950
    64  H    0.071045
    65  H    0.078420
    66  H    0.006540
    67  H    0.019430
    68  H    0.023091
    69  H   -0.009458
    70  H    0.036439
    71  H    0.060519
    72  H    0.152679
    73  H    0.053223
    74  H    0.046303
    75  H    0.014904
    76  H    0.021310
    77  H    0.237165
    78  H    0.043393
    79  H    0.065381
 Sum of Mulliken charges =   0.00000

 Dipole moment (field-independent basis, Debye):
    X=              0.7756    Y=              1.6343    Z=              3.3598  Tot=              3.8158
 Quadrupole moment (field-independent basis, Debye-Ang):
   XX=           -225.5929   YY=           -248.0880   ZZ=           -266.8781
   XY=            -11.9219   XZ=             35.5724   YZ=              4.7701

 Normal termination of Gaussian 09 at Wed Jul 10 13:12:02 2019.
