 Gaussian 09, Revision D.01,
 Gaussian 09:  ES64L-G09RevD.01 24-Apr-2013

 --------------------------
 # td=(NStates=1) B3LYP/SVP
 --------------------------

 --
 TD
 --
 Symbolic Z-matrix:
 Charge =  0 Multiplicity = 1

                         Standard orientation:
 ---------------------------------------------------------------------
 Center     Atomic      Atomic             Coordinates (Angstroms)
 Number     Number       Type             X           Y           Z
 ---------------------------------------------------------------------
      1          8           0        5.340243   -0.180040   -3.312919
      2          8           0       -3.046053   -3.029634    3.193956
      3          8           0       -3.299811   -0.801145    2.953432
      4          8           0       -1.148235    7.285485    1.413593
      5          8           0       -0.318552    6.962982   -0.530648
      6          8           0       -2.065306   -4.081440   -0.267613
      7          7           0        2.430239    0.836312    0.601114
      8          7           0        4.408231   -0.706739   -1.342945
      9          7           0       -1.835186    0.687033   -0.435500
     10          7           0       -2.806257   -1.828722   -0.510348
     11          6           0        4.835346   -1.292552    0.032328
     12          6           0        4.466892   -0.293818    1.122710
     13          6           0        2.958285   -0.089096    1.360836
     14          6           0        2.010698   -0.686060    2.125051
     15          6           0        0.756701    0.023894    1.852594
     16          6           0        1.103328    0.926155    0.839631
     17          6           0        6.362288   -1.414000   -0.171753
     18          6           0       -0.547648   -0.266053    2.460626
     19          6           0        6.714386   -1.060106   -1.450177
     20          6           0        0.247390    1.874576    0.117977
     21          6           0       -0.986338    1.813444   -0.334235
     22          6           0        5.374228   -0.594770   -2.213934
     23          6           0       -1.814569    2.947705   -0.768436
     24          6           0        2.228630   -1.654636    3.221744
     25          6           0        7.095361   -2.112923    0.990702
     26          6           0       -3.039615    2.414214   -1.013781
     27          6           0       -0.972262   -1.813823    2.552801
     28          6           0       -3.069279    0.991398   -0.963225
     29          6           0       -1.410000    4.382073   -0.903135
     30          6           0        7.967239   -0.963220   -2.195897
     31          6           0       -1.458570    5.141152    0.400085
     32          6           0       -4.182000    3.080532   -1.651674
     33          6           0       -4.024363    0.034497   -1.201904
     34          6           0       -2.555970   -1.818444    2.949022
     35          6           0       -3.901158   -1.328046   -1.030538
     36          6           0        9.118116   -1.158324   -1.530560
     37          6           0       -0.964885    6.534232    0.359350
     38          6           0       -4.913882   -2.405446   -1.382800
     39          6           0       -4.273449   -3.570233   -1.110564
     40          6           0       -2.899494   -3.240445   -0.564074
     41          6           0       -6.202992   -2.051863   -1.949330
     42          6           0       -4.716723   -4.896519   -1.268305
     43          6           0       -7.122976   -2.980713   -2.438462
     44          1           0        4.426108   -2.499817    0.122623
     45          1           0        5.256690    0.781860    1.333112
     46          1           0        4.601571   -0.724062    2.105237
     47          1           0        2.851238    1.575935   -0.010057
     48          1           0        3.264408   -0.496754   -1.441913
     49          1           0       -0.501286   -0.080619    3.651279
     50          1           0       -1.297468    0.247631    2.046480
     51          1           0        0.672688    2.784605   -0.095863
     52          1           0        3.228724   -2.155854    3.414686
     53          1           0        1.814517   -1.349900    4.155207
     54          1           0        1.520629   -2.613915    3.105550
     55          1           0        6.463874   -2.664361    1.673309
     56          1           0        7.965246   -1.524111    1.563537
     57          1           0        7.760947   -3.117137    0.851386
     58          1           0       -0.814091   -2.138190    1.389467
     59          1           0       -0.581759   -2.358933    3.559066
     60          1           0       -1.528706   -0.128797   -0.230792
     61          1           0       -1.942747    5.003653   -1.664857
     62          1           0       -0.381564    4.197967   -1.250016
     63          1           0        7.995191   -1.079888   -3.355358
     64          1           0       -0.879045    4.559972    1.135287
     65          1           0       -2.554134    5.422123    0.837066
     66          1           0       -3.868639    4.090660   -1.842351
     67          1           0       -5.156524    3.087692   -1.122531
     68          1           0       -4.386009    2.535542   -2.524301
     69          1           0       -4.909316    0.339752   -1.635901
     70          1           0        9.251210   -0.939463   -0.425016
     71          1           0       10.074181   -1.318819   -2.005411
     72          1           0       -3.949327   -2.656372    3.407544
     73          1           0       -6.346196   -1.026427   -2.169621
     74          1           0       -5.329026   -5.150788   -2.280152
     75          1           0       -3.832112   -5.734760   -1.164338
     76          1           0       -5.552277   -5.275271   -0.515573
     77          1           0       -0.623145    8.064006    1.393708
     78          1           0       -8.010417   -2.497546   -2.936587
     79          1           0       -6.877209   -4.161149   -2.314592
 ---------------------------------------------------------------------

 SCF Done:  E(RB3LYP) =  -1947.79431189     A.U. after   15 cycles

 Excitation energies and oscillator strengths:

 Excited State   1:      Singlet-A      2.2394 eV  553.65 nm  f=0.3740  <S**2>=0.000
     154 ->156         0.18283
     155 ->156         0.67554
 This state for optimization and/or second-order correction.
 Total Energy, E(TD-HF/TD-KS) =  -1947.71201591
 Copying the excited state density for this state as the 1-particle RhoCI density.

 The electronic state is 1-A.
 Alpha  occ. eigenvalues --  -19.18859 -19.18499 -19.12055 -19.12051 -19.11022
 Alpha  occ. eigenvalues --  -19.08885 -14.38764 -14.36050 -14.35803 -14.28803
 Alpha  occ. eigenvalues --  -10.31916 -10.31890 -10.27438 -10.27131 -10.26796
 Alpha  occ. eigenvalues --  -10.24869 -10.24421 -10.23431 -10.22961 -10.22849
 Alpha  occ. eigenvalues --  -10.22729 -10.22687 -10.22519 -10.22344 -10.22153
 Alpha  occ. eigenvalues --  -10.22071 -10.21630 -10.21356 -10.21254 -10.20703
 Alpha  occ. eigenvalues --  -10.20588 -10.20528 -10.20526 -10.20448 -10.20110
 Alpha  occ. eigenvalues --  -10.19908 -10.19549 -10.19452 -10.19429 -10.19189
 Alpha  occ. eigenvalues --  -10.19164 -10.19127 -10.18312  -1.12783  -1.10125
 Alpha  occ. eigenvalues --   -1.03616  -1.01910  -1.01479  -1.01242  -0.98968
 Alpha  occ. eigenvalues --   -0.97911  -0.92494  -0.92446  -0.84445  -0.83064
 Alpha  occ. eigenvalues --   -0.81500  -0.80846  -0.80586  -0.80196  -0.79147
 Alpha  occ. eigenvalues --   -0.77474  -0.76233  -0.75065  -0.74546  -0.73287
 Alpha  occ. eigenvalues --   -0.71431  -0.70751  -0.70034  -0.69359  -0.68822
 Alpha  occ. eigenvalues --   -0.66549  -0.66047  -0.63943  -0.62633  -0.60496
 Alpha  occ. eigenvalues --   -0.59815  -0.58714  -0.58327  -0.57952  -0.57770
 Alpha  occ. eigenvalues --   -0.56691  -0.55893  -0.55149  -0.54362  -0.53140
 Alpha  occ. eigenvalues --   -0.52413  -0.52291  -0.51850  -0.50402  -0.49565
 Alpha  occ. eigenvalues --   -0.49045  -0.48763  -0.48256  -0.48111  -0.47975
 Alpha  occ. eigenvalues --   -0.47767  -0.47125  -0.46776  -0.46682  -0.45816
 Alpha  occ. eigenvalues --   -0.45620  -0.45002  -0.44764  -0.44033  -0.43251
 Alpha  occ. eigenvalues --   -0.43208  -0.42961  -0.42844  -0.42530  -0.42477
 Alpha  occ. eigenvalues --   -0.42191  -0.42092  -0.41874  -0.41754  -0.41182
 Alpha  occ. eigenvalues --   -0.40883  -0.40606  -0.40579  -0.39985  -0.39707
 Alpha  occ. eigenvalues --   -0.39522  -0.38973  -0.38750  -0.38340  -0.38191
 Alpha  occ. eigenvalues --   -0.37876  -0.37551  -0.37307  -0.36861  -0.36419
 Alpha  occ. eigenvalues --   -0.36277  -0.35460  -0.35161  -0.34897  -0.34255
 Alpha  occ. eigenvalues --   -0.34111  -0.33665  -0.33219  -0.33162  -0.31613
 Alpha  occ. eigenvalues --   -0.31217  -0.31122  -0.29143  -0.28039  -0.27541
 Alpha  occ. eigenvalues --   -0.27099  -0.26435  -0.26299  -0.25011  -0.24337
 Alpha  occ. eigenvalues --   -0.24189  -0.23956  -0.23222  -0.22217  -0.19963
 Alpha virt. eigenvalues --   -0.10834  -0.06369  -0.05544  -0.01051   0.00085
 Alpha virt. eigenvalues --    0.00472   0.00624   0.01843   0.01889   0.02500
 Alpha virt. eigenvalues --    0.03204   0.03549   0.04058   0.04617   0.05008

 Mulliken charges:
               1
     1  O   -0.183968
     2  O   -0.151745
     3  O   -0.297580
     4  O   -0.132913
     5  O   -0.208358
     6  O   -0.191565
     7  N   -0.000428
     8  N   -0.241890
     9  N   -0.002556
    10  N   -0.263969
    11  C    0.066051
    12  C    0.098804
    13  C   -0.122590
    14  C   -0.093148
    15  C   -0.064620
    16  C    0.014573
    17  C   -0.098417
    18  C    0.093423
    19  C   -0.076570
    20  C   -0.069137
    21  C    0.094647
    22  C    0.118157
    23  C   -0.078402
    24  C    0.042624
    25  C   -0.022853
    26  C   -0.139204
    27  C   -0.110680
    28  C    0.137653
    29  C    0.109590
    30  C   -0.012984
    31  C   -0.019008
    32  C    0.149043
    33  C   -0.046722
    34  C    0.170452
    35  C    0.047361
    36  C   -0.043963
    37  C    0.070163
    38  C    0.092107
    39  C   -0.137059
    40  C    0.170080
    41  C   -0.026241
    42  C   -0.086103
    43  C   -0.054670
    44  H    0.079267
    45  H    0.059860
    46  H   -0.003627
    47  H    0.138360
    48  H    0.176975
    49  H    0.013314
    50  H   -0.020976
    51  H   -0.063754
    52  H    0.022347
    53  H    0.001259
    54  H    0.026612
    55  H    0.011313
    56  H    0.052609
    57  H    0.032769
    58  H    0.121293
    59  H    0.063818
    60  H    0.039689
    61  H    0.029557
    62  H    0.021859
    63  H    0.048424
    64  H    0.046640
    65  H    0.056535
    66  H   -0.007944
    67  H    0.019945
    68  H    0.012070
    69  H   -0.086279
    70  H    0.029137
    71  H    0.018474
    72  H    0.175991
    73  H   -0.022694
    74  H    0.043131
    75  H    0.058003
    76  H    0.046114
    77  H    0.170680
    78  H    0.036255
    79  H    0.055584
 Sum of Mulliken charges =   0.00000

 Dipole moment (field-independent basis, Debye):
    X=             -0.1463    Y=              3.1222    Z=              3.9103  Tot=              5.0060
 Quadrupole moment (field-independent basis, Debye-Ang):
   XX=           -226.4273   YY=           -247.2778   ZZ=           -261.9091
   XY=            -10.4002   XZ=             33.7549   YZ=              2.8235

 Normal termination of Gaussian 09 at Mon Jul  8 20:22:00 2019.
