 Gaussian 09, Revision D.01,
 Gaussian 09:  ES64L-G09RevD.01 24-Apr-2013

 --------------------------
 # td=(NStates=1) B3LYP/SVP
 --------------------------

 --
 TD
 --
 Symbolic Z-matrix:
 Charge =  0 Multiplicity = 1

                         Standard orientation:
 ---------------------------------------------------------------------
 Center     Atomic      Atomic             Coordinates (Angstroms)
 Number     Number       Type             X           Y           Z
 ---------------------------------------------------------------------
      1          8           0        5.203301   -0.213936   -3.399182
      2          8           0       -2.802232   -3.054387    3.423125
      3          8           0       -3.310738   -0.889560    3.158701
      4          8           0       -1.649184    7.260717    1.417067
      5          8           0       -0.783705    7.178418   -0.590142
      6          8           0       -1.650026   -4.057864   -0.025755
      7          7           0        2.323820    0.999307    0.562298
      8          7           0        4.340085   -0.698914   -1.250336
      9          7           0       -1.791804    0.675901   -0.384482
     10          7           0       -2.536561   -1.903649   -0.471969
     11          6           0        4.714848   -1.204456   -0.016677
     12          6           0        4.415276   -0.272069    1.178232
     13          6           0        2.895233    0.123264    1.311184
     14          6           0        2.009182   -0.521939    2.170944
     15          6           0        0.743377    0.021929    1.795236
     16          6           0        0.986611    1.026071    0.793843
     17          6           0        6.275747   -1.323133   -0.171852
     18          6           0       -0.596791   -0.223398    2.439626
     19          6           0        6.652412   -0.923036   -1.390145
     20          6           0        0.169176    2.054531    0.218922
     21          6           0       -1.115635    1.865786   -0.307972
     22          6           0        5.370328   -0.491394   -2.198325
     23          6           0       -1.966833    2.921933   -0.930339
     24          6           0        2.245047   -1.601193    3.201028
     25          6           0        7.103027   -1.779512    1.006439
     26          6           0       -3.117728    2.306700   -1.268351
     27          6           0       -1.171606   -1.585508    2.538298
     28          6           0       -3.087984    0.895103   -0.999242
     29          6           0       -1.507623    4.322316   -0.980909
     30          6           0        7.937684   -0.812190   -1.976343
     31          6           0       -1.805833    5.077529    0.370621
     32          6           0       -4.385883    2.886220   -1.793407
     33          6           0       -3.996875   -0.154252   -1.309378
     34          6           0       -2.500849   -1.776130    3.078015
     35          6           0       -3.654003   -1.492609   -1.080339
     36          6           0        9.140854   -0.696422   -1.411841
     37          6           0       -1.423311    6.594198    0.326271
     38          6           0       -4.538541   -2.710995   -1.487189
     39          6           0       -3.808090   -3.766717   -1.036027
     40          6           0       -2.576533   -3.321279   -0.463812
     41          6           0       -5.888694   -2.624403   -2.051048
     42          6           0       -4.336795   -5.178951   -1.027008
     43          6           0       -6.537846   -3.565071   -2.692901
     44          1           0        4.338654   -2.184309    0.118201
     45          1           0        4.999744    0.568404    0.924349
     46          1           0        4.884554   -0.798334    2.036223
     47          1           0        2.709815    1.288474   -0.331063
     48          1           0        3.334307   -0.762529   -1.659459
     49          1           0       -0.481485    0.385654    3.324319
     50          1           0       -1.353262    0.386727    1.852773
     51          1           0        0.665105    2.953160    0.031087
     52          1           0        3.132706   -1.675601    3.626592
     53          1           0        1.562442   -1.461723    4.074784
     54          1           0        1.740846   -2.404755    2.711600
     55          1           0        6.660807   -2.356632    1.378332
     56          1           0        7.337615   -0.984838    1.839009
     57          1           0        8.233659   -2.114469    0.627587
     58          1           0       -0.963881   -2.119887    1.392294
     59          1           0       -0.545204   -1.955714    3.302643
     60          1           0       -1.432370   -0.286797   -0.263469
     61          1           0       -2.181768    4.906749   -1.759133
     62          1           0       -0.469611    4.457877   -1.502556
     63          1           0        7.866462   -0.783953   -3.072544
     64          1           0       -1.207442    4.512639    1.203482
     65          1           0       -2.936764    5.111536    0.783258
     66          1           0       -4.488975    4.094011   -2.111027
     67          1           0       -5.207543    2.853241   -1.238024
     68          1           0       -4.409449    2.459165   -2.831232
     69          1           0       -4.914597    0.165438   -1.733381
     70          1           0        9.300611   -0.831432   -0.452600
     71          1           0       10.039107   -0.747752   -1.933475
     72          1           0       -3.810546   -3.011094    3.431306
     73          1           0       -6.213803   -1.544437   -1.951328
     74          1           0       -4.227702   -5.398536   -1.996702
     75          1           0       -3.826041   -5.827719   -0.397932
     76          1           0       -5.394512   -5.113654   -0.858984
     77          1           0       -1.480164    8.340716    1.465136
     78          1           0       -7.439891   -3.343106   -3.152234
     79          1           0       -6.077645   -4.497669   -2.950242
 ---------------------------------------------------------------------

 SCF Done:  E(RB3LYP) =  -1947.78036100     A.U. after   17 cycles

 Excitation energies and oscillator strengths:

 Excited State   1:      Singlet-A      2.0417 eV  607.25 nm  f=0.4441  <S**2>=0.000
     155 ->156         0.69936
     155 <-156        -0.12249
 This state for optimization and/or second-order correction.
 Total Energy, E(TD-HF/TD-KS) =  -1947.70532838
 Copying the excited state density for this state as the 1-particle RhoCI density.

 The electronic state is 1-A.
 Alpha  occ. eigenvalues --  -19.19396 -19.16682 -19.11448 -19.11439 -19.10805
 Alpha  occ. eigenvalues --  -19.10179 -14.38698 -14.36583 -14.36457 -14.29171
 Alpha  occ. eigenvalues --  -10.32736 -10.30073 -10.29959 -10.26191 -10.25345
 Alpha  occ. eigenvalues --  -10.24517 -10.24201 -10.24193 -10.23553 -10.23023
 Alpha  occ. eigenvalues --  -10.22708 -10.22399 -10.22300 -10.21706 -10.21528
 Alpha  occ. eigenvalues --  -10.21376 -10.21005 -10.20698 -10.20680 -10.20632
 Alpha  occ. eigenvalues --  -10.20623 -10.19967 -10.19822 -10.19566 -10.19548
 Alpha  occ. eigenvalues --  -10.18933 -10.18858 -10.18818 -10.18735 -10.18679
 Alpha  occ. eigenvalues --  -10.18111 -10.18039 -10.16719  -1.09493  -1.08052
 Alpha  occ. eigenvalues --   -1.01898  -1.01550  -0.99212  -0.98749  -0.97268
 Alpha  occ. eigenvalues --   -0.96841  -0.94896  -0.91295  -0.82890  -0.82687
 Alpha  occ. eigenvalues --   -0.81903  -0.81550  -0.80890  -0.79686  -0.78163
 Alpha  occ. eigenvalues --   -0.77207  -0.77179  -0.76031  -0.75273  -0.72972
 Alpha  occ. eigenvalues --   -0.72815  -0.72021  -0.70078  -0.69683  -0.68339
 Alpha  occ. eigenvalues --   -0.67427  -0.66205  -0.64640  -0.62781  -0.61709
 Alpha  occ. eigenvalues --   -0.60866  -0.59055  -0.58750  -0.58258  -0.57734
 Alpha  occ. eigenvalues --   -0.56812  -0.55460  -0.54921  -0.54246  -0.53784
 Alpha  occ. eigenvalues --   -0.52498  -0.52010  -0.51630  -0.50388  -0.49555
 Alpha  occ. eigenvalues --   -0.48691  -0.48235  -0.47943  -0.47759  -0.47507
 Alpha  occ. eigenvalues --   -0.47050  -0.46970  -0.46685  -0.46391  -0.46181
 Alpha  occ. eigenvalues --   -0.46066  -0.45825  -0.45662  -0.44993  -0.44613
 Alpha  occ. eigenvalues --   -0.44289  -0.43975  -0.43761  -0.43486  -0.43118
 Alpha  occ. eigenvalues --   -0.42493  -0.42095  -0.42010  -0.41547  -0.41165
 Alpha  occ. eigenvalues --   -0.40969  -0.40901  -0.40529  -0.40296  -0.40026
 Alpha  occ. eigenvalues --   -0.39840  -0.39533  -0.39083  -0.38928  -0.38461
 Alpha  occ. eigenvalues --   -0.38230  -0.38079  -0.37004  -0.36653  -0.36505
 Alpha  occ. eigenvalues --   -0.35696  -0.35461  -0.34813  -0.34552  -0.33726
 Alpha  occ. eigenvalues --   -0.33565  -0.33367  -0.32355  -0.31557  -0.31133
 Alpha  occ. eigenvalues --   -0.30972  -0.30776  -0.28817  -0.27320  -0.27079
 Alpha  occ. eigenvalues --   -0.26983  -0.26358  -0.26316  -0.26000  -0.24935
 Alpha  occ. eigenvalues --   -0.24731  -0.24007  -0.23923  -0.22493  -0.18876
 Alpha virt. eigenvalues --   -0.11012  -0.06343  -0.05865  -0.00937  -0.00392
 Alpha virt. eigenvalues --    0.00036   0.00104   0.01151   0.01828   0.03120
 Alpha virt. eigenvalues --    0.03428   0.03699   0.05049   0.05640   0.05728

 Mulliken charges:
               1
     1  O   -0.235522
     2  O   -0.206200
     3  O   -0.228054
     4  O   -0.213471
     5  O   -0.286721
     6  O   -0.246672
     7  N    0.052554
     8  N   -0.235399
     9  N   -0.124501
    10  N   -0.289675
    11  C    0.081243
    12  C    0.224709
    13  C   -0.157904
    14  C   -0.168837
    15  C   -0.111339
    16  C    0.016450
    17  C   -0.223811
    18  C    0.049505
    19  C   -0.021887
    20  C   -0.078967
    21  C    0.080989
    22  C    0.189517
    23  C   -0.043287
    24  C    0.205803
    25  C    0.242614
    26  C   -0.087478
    27  C    0.032457
    28  C    0.099519
    29  C    0.035768
    30  C   -0.034400
    31  C   -0.074474
    32  C    0.052285
    33  C   -0.088131
    34  C    0.113479
    35  C    0.114350
    36  C    0.060055
    37  C    0.155117
    38  C   -0.003565
    39  C   -0.221067
    40  C    0.158867
    41  C   -0.013250
    42  C    0.217064
    43  C    0.022854
    44  H    0.007633
    45  H   -0.034437
    46  H   -0.000305
    47  H    0.121703
    48  H    0.158938
    49  H    0.003201
    50  H    0.007814
    51  H   -0.028748
    52  H   -0.031268
    53  H    0.006594
    54  H    0.035098
    55  H   -0.146802
    56  H    0.050060
    57  H    0.054451
    58  H    0.133846
    59  H   -0.014635
    60  H    0.157116
    61  H    0.026572
    62  H    0.062671
    63  H    0.008473
    64  H    0.068432
    65  H    0.068471
    66  H    0.019781
    67  H    0.011967
    68  H    0.040022
    69  H   -0.040311
    70  H   -0.047606
    71  H    0.008193
    72  H    0.191888
    73  H    0.003044
    74  H   -0.007659
    75  H    0.004855
    76  H    0.010483
    77  H    0.259367
    78  H    0.003774
    79  H    0.016738
 Sum of Mulliken charges =   0.00000

 Dipole moment (field-independent basis, Debye):
    X=              0.1213    Y=              2.6747    Z=              2.7937  Tot=              3.8695
 Quadrupole moment (field-independent basis, Debye-Ang):
   XX=           -215.0532   YY=           -245.3945   ZZ=           -263.7406
   XY=            -14.8048   XZ=             34.8061   YZ=             12.1883

 Normal termination of Gaussian 09 at Mon Jul  8 12:54:03 2019.
