 Gaussian 09, Revision D.01,
 Gaussian 09:  ES64L-G09RevD.01 24-Apr-2013

 --------------------------
 # td=(NStates=1) B3LYP/SVP
 --------------------------

 --
 TD
 --
 Symbolic Z-matrix:
 Charge =  0 Multiplicity = 1

                         Standard orientation:
 ---------------------------------------------------------------------
 Center     Atomic      Atomic             Coordinates (Angstroms)
 Number     Number       Type             X           Y           Z
 ---------------------------------------------------------------------
      1          8           0        5.314151   -0.046757   -3.262629
      2          8           0       -2.824930   -3.217539    3.049166
      3          8           0       -3.192577   -0.972956    3.463777
      4          8           0       -1.606968    7.142106    1.643304
      5          8           0       -0.783658    7.198841   -0.389172
      6          8           0       -1.947889   -4.128552   -0.076595
      7          7           0        2.343438    0.834782    0.669180
      8          7           0        4.318536   -0.827554   -1.334664
      9          7           0       -1.778255    0.708158   -0.511465
     10          7           0       -2.552806   -1.819140   -0.616417
     11          6           0        4.823650   -1.341712    0.006908
     12          6           0        4.342916   -0.483008    1.128647
     13          6           0        2.936701   -0.127347    1.300993
     14          6           0        1.903682   -0.770043    2.122295
     15          6           0        0.675799   -0.081977    1.787896
     16          6           0        0.933186    0.896560    0.867928
     17          6           0        6.355808   -1.285532   -0.180778
     18          6           0       -0.655015   -0.315668    2.428089
     19          6           0        6.627069   -0.794864   -1.422734
     20          6           0        0.208731    1.937109    0.196166
     21          6           0       -1.056704    1.860434   -0.306359
     22          6           0        5.365238   -0.475486   -2.061799
     23          6           0       -1.822901    2.932214   -0.710883
     24          6           0        2.211572   -1.845248    3.122927
     25          6           0        7.159801   -1.886219    0.906639
     26          6           0       -2.988150    2.417548   -1.293470
     27          6           0       -1.163046   -1.778931    2.462644
     28          6           0       -2.957966    0.950580   -1.047591
     29          6           0       -1.338644    4.386743   -0.848663
     30          6           0        7.884666   -0.532108   -2.082727
     31          6           0       -1.660156    5.031486    0.523253
     32          6           0       -4.239976    3.112263   -1.906703
     33          6           0       -3.970184    0.002785   -1.311642
     34          6           0       -2.503358   -1.876149    3.007263
     35          6           0       -3.652160   -1.349109   -1.088387
     36          6           0        9.137035   -0.580862   -1.535109
     37          6           0       -1.307900    6.518630    0.465850
     38          6           0       -4.614436   -2.409192   -1.560142
     39          6           0       -4.013264   -3.597092   -1.210697
     40          6           0       -2.642412   -3.232040   -0.580669
     41          6           0       -5.988924   -2.232601   -2.048087
     42          6           0       -4.460541   -4.978830   -1.356389
     43          6           0       -6.827216   -3.195559   -2.512379
     44          1           0        4.528753   -2.490307    0.053617
     45          1           0        4.958305    0.500785    1.006644
     46          1           0        4.734845   -0.797926    2.122900
     47          1           0        2.862146    1.316599   -0.089575
     48          1           0        3.258558   -0.850456   -1.361672
     49          1           0       -0.474626    0.073389    3.541869
     50          1           0       -1.650969    0.215214    1.938284
     51          1           0        0.720497    2.805769   -0.126966
     52          1           0        3.246719   -1.980944    3.077374
     53          1           0        1.888633   -1.416324    4.177515
     54          1           0        1.635564   -2.914565    2.970179
     55          1           0        6.822892   -3.017209    1.277851
     56          1           0        7.198111   -1.159858    2.018541
     57          1           0        8.151833   -2.151793    0.428327
     58          1           0       -1.181136   -2.452150    1.642874
     59          1           0       -0.671162   -2.565833    3.195780
     60          1           0       -1.618562   -0.281952   -0.201232
     61          1           0       -1.698245    5.017168   -1.540562
     62          1           0       -0.235062    4.416890   -0.861998
     63          1           0        7.528889   -0.538288   -3.209091
     64          1           0       -1.091180    4.497071    1.337633
     65          1           0       -2.631955    5.036874    0.916594
     66          1           0       -4.046260    4.168161   -2.355003
     67          1           0       -5.087302    2.977349   -1.135482
     68          1           0       -4.521515    2.803072   -2.932561
     69          1           0       -4.990430    0.357079   -1.491127
     70          1           0        9.620782   -0.709125   -0.347507
     71          1           0       10.185282   -0.462629   -2.069056
     72          1           0       -3.760413   -3.395239    3.352507
     73          1           0       -6.252474   -1.133348   -2.007859
     74          1           0       -4.644607   -5.450159   -2.216211
     75          1           0       -3.695443   -5.660927   -0.990342
     76          1           0       -5.352950   -5.139912   -0.652153
     77          1           0       -1.407896    8.149343    1.603181
     78          1           0       -7.791897   -2.846856   -2.882273
     79          1           0       -6.736577   -4.254469   -2.633961
 ---------------------------------------------------------------------

 SCF Done:  E(RB3LYP) =  -1947.85378974     A.U. after   17 cycles

 Excitation energies and oscillator strengths:

 Excited State   1:      Singlet-A      2.2243 eV  557.41 nm  f=0.5270  <S**2>=0.000
     154 ->156         0.15445
     155 ->156         0.68904
     155 <-156        -0.11091
 This state for optimization and/or second-order correction.
 Total Energy, E(TD-HF/TD-KS) =  -1947.77204926
 Copying the excited state density for this state as the 1-particle RhoCI density.

 The electronic state is 1-A.
 Alpha  occ. eigenvalues --  -19.17675 -19.16393 -19.13156 -19.11464 -19.11096
 Alpha  occ. eigenvalues --  -19.09016 -14.39630 -14.37374 -14.36660 -14.29731
 Alpha  occ. eigenvalues --  -10.32479 -10.30535 -10.28878 -10.27399 -10.26471
 Alpha  occ. eigenvalues --  -10.24544 -10.24450 -10.24271 -10.23884 -10.23633
 Alpha  occ. eigenvalues --  -10.23503 -10.23164 -10.23151 -10.23070 -10.22274
 Alpha  occ. eigenvalues --  -10.21885 -10.21855 -10.21829 -10.21717 -10.21492
 Alpha  occ. eigenvalues --  -10.21308 -10.21302 -10.21269 -10.21102 -10.20594
 Alpha  occ. eigenvalues --  -10.20412 -10.20272 -10.19115 -10.19001 -10.18946
 Alpha  occ. eigenvalues --  -10.18902 -10.18898 -10.17209  -1.09014  -1.06501
 Alpha  occ. eigenvalues --   -1.01179  -1.00697  -1.00571  -1.00086  -0.99413
 Alpha  occ. eigenvalues --   -0.98530  -0.93519  -0.93133  -0.84140  -0.83247
 Alpha  occ. eigenvalues --   -0.82835  -0.81270  -0.80409  -0.79833  -0.78325
 Alpha  occ. eigenvalues --   -0.77440  -0.77306  -0.75754  -0.74484  -0.73332
 Alpha  occ. eigenvalues --   -0.71614  -0.71494  -0.69690  -0.69145  -0.68535
 Alpha  occ. eigenvalues --   -0.67982  -0.66487  -0.64288  -0.62804  -0.60790
 Alpha  occ. eigenvalues --   -0.59603  -0.59020  -0.58762  -0.58575  -0.57689
 Alpha  occ. eigenvalues --   -0.57372  -0.56281  -0.55059  -0.54342  -0.53579
 Alpha  occ. eigenvalues --   -0.52722  -0.52406  -0.50781  -0.50534  -0.50000
 Alpha  occ. eigenvalues --   -0.49516  -0.49056  -0.48497  -0.47963  -0.47623
 Alpha  occ. eigenvalues --   -0.47209  -0.46998  -0.46434  -0.46283  -0.45823
 Alpha  occ. eigenvalues --   -0.45209  -0.44911  -0.44733  -0.44704  -0.43987
 Alpha  occ. eigenvalues --   -0.43780  -0.43528  -0.43062  -0.42421  -0.42373
 Alpha  occ. eigenvalues --   -0.42262  -0.42039  -0.41485  -0.41106  -0.41028
 Alpha  occ. eigenvalues --   -0.40742  -0.40547  -0.40237  -0.40068  -0.39811
 Alpha  occ. eigenvalues --   -0.39475  -0.39329  -0.39086  -0.38575  -0.38467
 Alpha  occ. eigenvalues --   -0.38311  -0.37778  -0.37034  -0.36856  -0.36786
 Alpha  occ. eigenvalues --   -0.36629  -0.36416  -0.35148  -0.34537  -0.34301
 Alpha  occ. eigenvalues --   -0.33508  -0.32693  -0.32239  -0.32179  -0.31646
 Alpha  occ. eigenvalues --   -0.31364  -0.30891  -0.29468  -0.28623  -0.28073
 Alpha  occ. eigenvalues --   -0.26917  -0.26564  -0.26384  -0.25477  -0.24988
 Alpha  occ. eigenvalues --   -0.24690  -0.23884  -0.23710  -0.22089  -0.19399
 Alpha virt. eigenvalues --   -0.10814  -0.07418  -0.06373  -0.00648  -0.00384
 Alpha virt. eigenvalues --   -0.00001   0.00174   0.01305   0.01937   0.02981
 Alpha virt. eigenvalues --    0.03051   0.03623   0.04179   0.04208   0.04617

 Mulliken charges:
               1
     1  O   -0.298497
     2  O   -0.238062
     3  O   -0.242443
     4  O   -0.237954
     5  O   -0.225717
     6  O   -0.226983
     7  N   -0.036503
     8  N   -0.178518
     9  N   -0.030481
    10  N   -0.268227
    11  C    0.030419
    12  C    0.140930
    13  C   -0.120380
    14  C   -0.139645
    15  C   -0.034844
    16  C    0.090856
    17  C   -0.134078
    18  C    0.001155
    19  C   -0.041135
    20  C   -0.091886
    21  C    0.108846
    22  C    0.162211
    23  C   -0.089239
    24  C    0.058548
    25  C   -0.056646
    26  C   -0.135870
    27  C   -0.009993
    28  C    0.061368
    29  C    0.207875
    30  C    0.047237
    31  C   -0.039603
    32  C    0.036804
    33  C   -0.143695
    34  C    0.138456
    35  C    0.106053
    36  C   -0.151537
    37  C    0.134323
    38  C    0.004223
    39  C   -0.209400
    40  C    0.197059
    41  C    0.001127
    42  C    0.126094
    43  C   -0.018622
    44  H    0.052538
    45  H    0.008292
    46  H    0.022577
    47  H    0.124117
    48  H    0.165109
    49  H    0.043745
    50  H    0.067448
    51  H   -0.027781
    52  H   -0.020475
    53  H    0.039063
    54  H    0.061931
    55  H    0.053359
    56  H    0.072977
    57  H    0.045452
    58  H    0.029260
    59  H    0.040066
    60  H    0.157856
    61  H   -0.016046
    62  H    0.011879
    63  H    0.065185
    64  H    0.053821
    65  H    0.025999
    66  H    0.022597
    67  H    0.065562
    68  H    0.025401
    69  H   -0.004650
    70  H    0.060701
    71  H    0.052862
    72  H    0.192748
    73  H   -0.002710
    74  H   -0.004716
    75  H   -0.000817
    76  H    0.024100
    77  H    0.209712
    78  H    0.014047
    79  H    0.015166
 Sum of Mulliken charges =   0.00000

 Dipole moment (field-independent basis, Debye):
    X=              1.4485    Y=              1.4621    Z=              3.7328  Tot=              4.2626
 Quadrupole moment (field-independent basis, Debye-Ang):
   XX=           -221.6819   YY=           -249.8954   ZZ=           -270.5442
   XY=            -13.5401   XZ=             35.1920   YZ=              2.9108

 Normal termination of Gaussian 09 at Wed Jul 10 18:11:25 2019.
