 Gaussian 09, Revision D.01,
 Gaussian 09:  ES64L-G09RevD.01 24-Apr-2013

 --------------------------
 # td=(NStates=1) B3LYP/SVP
 --------------------------

 --
 TD
 --
 Symbolic Z-matrix:
 Charge =  0 Multiplicity = 1

                         Standard orientation:
 ---------------------------------------------------------------------
 Center     Atomic      Atomic             Coordinates (Angstroms)
 Number     Number       Type             X           Y           Z
 ---------------------------------------------------------------------
      1          8           0        5.445490   -0.399975   -3.397271
      2          8           0       -3.086725   -2.969167    3.084592
      3          8           0       -3.254104   -0.704517    3.141842
      4          8           0       -1.272424    7.312159    1.379019
      5          8           0        0.037410    6.765205   -0.392537
      6          8           0       -2.182898   -4.060134   -0.188121
      7          7           0        2.452255    0.777570    0.624484
      8          7           0        4.495677   -0.719017   -1.278487
      9          7           0       -1.934963    0.716807   -0.401045
     10          7           0       -2.798375   -1.787717   -0.499286
     11          6           0        4.922318   -1.349983   -0.031627
     12          6           0        4.391959   -0.538803    1.268469
     13          6           0        3.026494   -0.209411    1.384787
     14          6           0        2.059674   -0.760301    2.116425
     15          6           0        0.775947   -0.128015    1.844645
     16          6           0        0.988335    0.827022    0.883047
     17          6           0        6.374537   -1.456282   -0.162308
     18          6           0       -0.496063   -0.309088    2.546685
     19          6           0        6.757670   -1.114714   -1.416949
     20          6           0        0.263794    1.801262    0.106909
     21          6           0       -1.078875    1.802719   -0.308524
     22          6           0        5.531112   -0.758805   -2.229638
     23          6           0       -1.864728    2.932568   -0.828621
     24          6           0        2.283404   -1.785064    3.261920
     25          6           0        7.320778   -1.968652    0.917561
     26          6           0       -3.161314    2.542744   -1.165739
     27          6           0       -1.199204   -1.734150    2.480893
     28          6           0       -3.106786    1.080685   -0.816700
     29          6           0       -1.295959    4.296734   -0.836595
     30          6           0        8.102332   -0.865321   -2.084951
     31          6           0       -1.641544    5.150307    0.349895
     32          6           0       -4.245808    3.184847   -1.828786
     33          6           0       -4.184044    0.141270   -1.152577
     34          6           0       -2.641130   -1.654723    2.925230
     35          6           0       -3.933639   -1.315204   -1.002133
     36          6           0        9.290238   -0.714865   -1.540772
     37          6           0       -0.936387    6.523861    0.371642
     38          6           0       -4.953272   -2.332563   -1.491341
     39          6           0       -4.351912   -3.539457   -1.144883
     40          6           0       -3.025899   -3.216082   -0.548705
     41          6           0       -6.264767   -2.070764   -1.873648
     42          6           0       -4.759936   -4.970851   -1.219463
     43          6           0       -7.057884   -2.956593   -2.508335
     44          1           0        4.461024   -2.287766   -0.051514
     45          1           0        4.924986    0.306099    1.478724
     46          1           0        4.795276   -1.229527    1.928761
     47          1           0        3.028913    1.223059   -0.277830
     48          1           0        3.487522   -0.858061   -1.655167
     49          1           0       -0.367917    0.038983    3.615291
     50          1           0       -1.152992    0.262115    2.055744
     51          1           0        0.722494    2.802386    0.070475
     52          1           0        3.358396   -1.950727    3.259147
     53          1           0        2.012950   -1.400792    4.346493
     54          1           0        1.789572   -2.860062    3.000261
     55          1           0        7.074308   -2.807801    1.579516
     56          1           0        7.446311   -1.023784    1.534729
     57          1           0        8.295347   -2.201779    0.312498
     58          1           0       -0.901369   -2.330370    1.507615
     59          1           0       -0.698515   -2.400409    3.336230
     60          1           0       -1.675748   -0.238975   -0.143642
     61          1           0       -1.668111    4.864402   -1.620487
     62          1           0       -0.248128    4.464473   -1.039913
     63          1           0        7.982124   -0.732143   -3.132291
     64          1           0       -1.433698    4.600803    1.429942
     65          1           0       -2.866803    5.294624    0.329064
     66          1           0       -4.039549    4.273451   -2.119748
     67          1           0       -5.258881    3.095232   -1.338996
     68          1           0       -4.318147    2.778015   -2.791649
     69          1           0       -5.102103    0.585048   -1.756793
     70          1           0        9.411307   -0.976159   -0.538358
     71          1           0       10.251202   -0.583792   -2.043086
     72          1           0       -4.139211   -2.678595    3.224114
     73          1           0       -6.645105   -1.118834   -2.003699
     74          1           0       -4.768263   -5.319449   -2.129064
     75          1           0       -4.364383   -5.698123   -0.620959
     76          1           0       -5.899864   -5.195448   -1.204189
     77          1           0       -0.746414    8.130560    1.458431
     78          1           0       -8.040412   -2.506142   -2.987528
     79          1           0       -7.038913   -3.988544   -2.746852
 ---------------------------------------------------------------------

 SCF Done:  E(RB3LYP) =  -1947.86307581     A.U. after   16 cycles

 Excitation energies and oscillator strengths:

 Excited State   1:      Singlet-A      2.1430 eV  578.55 nm  f=0.4730  <S**2>=0.000
     154 ->156         0.12144
     155 ->156         0.69124
     155 <-156        -0.10231
 This state for optimization and/or second-order correction.
 Total Energy, E(TD-HF/TD-KS) =  -1947.78432150
 Copying the excited state density for this state as the 1-particle RhoCI density.

 The electronic state is 1-A.
 Alpha  occ. eigenvalues --  -19.20134 -19.16512 -19.13005 -19.12833 -19.10411
 Alpha  occ. eigenvalues --  -19.10140 -14.37587 -14.37240 -14.35613 -14.29576
 Alpha  occ. eigenvalues --  -10.33644 -10.30453 -10.28647 -10.26467 -10.25137
 Alpha  occ. eigenvalues --  -10.24748 -10.24616 -10.23802 -10.23705 -10.23117
 Alpha  occ. eigenvalues --  -10.22554 -10.22311 -10.22192 -10.21845 -10.21629
 Alpha  occ. eigenvalues --  -10.21592 -10.20896 -10.20799 -10.20762 -10.20305
 Alpha  occ. eigenvalues --  -10.20283 -10.20267 -10.20187 -10.20176 -10.20094
 Alpha  occ. eigenvalues --  -10.19978 -10.19702 -10.19418 -10.18986 -10.18843
 Alpha  occ. eigenvalues --  -10.18271 -10.18179 -10.17456  -1.10698  -1.09167
 Alpha  occ. eigenvalues --   -1.02040  -1.00223  -0.99601  -0.99479  -0.99301
 Alpha  occ. eigenvalues --   -0.96015  -0.93937  -0.91197  -0.83573  -0.82106
 Alpha  occ. eigenvalues --   -0.81949  -0.81362  -0.80105  -0.79877  -0.78153
 Alpha  occ. eigenvalues --   -0.76979  -0.76266  -0.75217  -0.74134  -0.72532
 Alpha  occ. eigenvalues --   -0.71626  -0.70910  -0.70480  -0.69320  -0.68362
 Alpha  occ. eigenvalues --   -0.66993  -0.65977  -0.63847  -0.61874  -0.61047
 Alpha  occ. eigenvalues --   -0.60758  -0.58772  -0.57910  -0.57426  -0.56449
 Alpha  occ. eigenvalues --   -0.55700  -0.55026  -0.54153  -0.53608  -0.52941
 Alpha  occ. eigenvalues --   -0.52391  -0.51697  -0.51142  -0.50263  -0.49596
 Alpha  occ. eigenvalues --   -0.48531  -0.48439  -0.48018  -0.47926  -0.47721
 Alpha  occ. eigenvalues --   -0.47604  -0.47225  -0.46661  -0.46438  -0.45784
 Alpha  occ. eigenvalues --   -0.45542  -0.44891  -0.44796  -0.44249  -0.44115
 Alpha  occ. eigenvalues --   -0.43491  -0.43209  -0.43059  -0.43021  -0.42677
 Alpha  occ. eigenvalues --   -0.42496  -0.42160  -0.41738  -0.41348  -0.41063
 Alpha  occ. eigenvalues --   -0.40759  -0.40382  -0.40185  -0.39841  -0.39685
 Alpha  occ. eigenvalues --   -0.39395  -0.39132  -0.38835  -0.38644  -0.38324
 Alpha  occ. eigenvalues --   -0.37944  -0.37631  -0.37577  -0.37136  -0.36340
 Alpha  occ. eigenvalues --   -0.35733  -0.35269  -0.34959  -0.34608  -0.34204
 Alpha  occ. eigenvalues --   -0.33833  -0.33747  -0.32657  -0.32528  -0.31754
 Alpha  occ. eigenvalues --   -0.31329  -0.31035  -0.28900  -0.28447  -0.28284
 Alpha  occ. eigenvalues --   -0.28037  -0.26720  -0.26211  -0.25852  -0.24867
 Alpha  occ. eigenvalues --   -0.24222  -0.23914  -0.23250  -0.22132  -0.19019
 Alpha virt. eigenvalues --   -0.10523  -0.06875  -0.05791  -0.02134  -0.00741
 Alpha virt. eigenvalues --    0.00763   0.01449   0.02186   0.02981   0.03022
 Alpha virt. eigenvalues --    0.03273   0.03975   0.04046   0.04918   0.04975

 Mulliken charges:
               1
     1  O   -0.222101
     2  O   -0.273084
     3  O   -0.163750
     4  O   -0.153619
     5  O   -0.278767
     6  O   -0.220569
     7  N   -0.225050
     8  N   -0.265001
     9  N    0.006630
    10  N   -0.287552
    11  C    0.155033
    12  C    0.245733
    13  C   -0.020179
    14  C   -0.138207
    15  C   -0.131942
    16  C    0.120935
    17  C   -0.202024
    18  C    0.184370
    19  C   -0.074355
    20  C   -0.064660
    21  C    0.044381
    22  C    0.158939
    23  C   -0.063794
    24  C    0.040170
    25  C    0.040167
    26  C   -0.111991
    27  C   -0.120142
    28  C    0.040488
    29  C    0.142222
    30  C    0.033329
    31  C   -0.122635
    32  C    0.103113
    33  C   -0.143781
    34  C    0.168546
    35  C    0.066593
    36  C    0.001151
    37  C    0.170289
    38  C    0.064602
    39  C   -0.163498
    40  C    0.159081
    41  C    0.036871
    42  C    0.200967
    43  C   -0.075407
    44  H    0.002422
    45  H   -0.032850
    46  H   -0.044541
    47  H    0.173330
    48  H    0.155528
    49  H    0.020289
    50  H   -0.050376
    51  H    0.015604
    52  H   -0.019193
    53  H    0.043378
    54  H    0.051081
    55  H    0.041445
    56  H    0.046829
    57  H    0.061523
    58  H    0.102398
    59  H    0.044323
    60  H    0.150121
    61  H   -0.028455
    62  H    0.013095
    63  H   -0.003169
    64  H    0.072388
    65  H    0.054091
    66  H    0.017151
    67  H    0.044181
    68  H    0.017756
    69  H    0.017084
    70  H   -0.018171
    71  H    0.029893
    72  H    0.206022
    73  H   -0.034000
    74  H   -0.036708
    75  H    0.006300
    76  H   -0.012995
    77  H    0.198345
    78  H    0.026160
    79  H    0.008221
 Sum of Mulliken charges =   0.00000

 Dipole moment (field-independent basis, Debye):
    X=             -0.1975    Y=              3.1269    Z=              2.6744  Tot=              4.1193
 Quadrupole moment (field-independent basis, Debye-Ang):
   XX=           -214.9561   YY=           -238.6144   ZZ=           -262.8657
   XY=            -17.1311   XZ=             37.9208   YZ=              7.4194

 Normal termination of Gaussian 09 at Mon Jul  8 09:46:16 2019.
