 Gaussian 09, Revision D.01,
 Gaussian 09:  ES64L-G09RevD.01 24-Apr-2013

 --------------------------
 # td=(NStates=1) B3LYP/SVP
 --------------------------

 --
 TD
 --
 Symbolic Z-matrix:
 Charge =  0 Multiplicity = 1

                         Standard orientation:
 ---------------------------------------------------------------------
 Center     Atomic      Atomic             Coordinates (Angstroms)
 Number     Number       Type             X           Y           Z
 ---------------------------------------------------------------------
      1          8           0        5.133509   -0.111640   -3.351135
      2          8           0       -2.664854   -3.260743    3.478473
      3          8           0       -3.060166   -1.094843    3.272943
      4          8           0       -1.452817    7.249200    1.494526
      5          8           0       -0.573993    7.111381   -0.568938
      6          8           0       -2.070333   -4.042985   -0.038829
      7          7           0        2.357995    1.023498    0.663857
      8          7           0        4.361064   -0.645364   -1.278482
      9          7           0       -1.876780    0.658297   -0.305785
     10          7           0       -2.786087   -1.847601   -0.337079
     11          6           0        4.879160   -1.258759   -0.037652
     12          6           0        4.470393   -0.264898    1.228967
     13          6           0        3.043362   -0.017351    1.380732
     14          6           0        2.064619   -0.590674    2.141719
     15          6           0        0.819384   -0.004422    1.917739
     16          6           0        0.988176    1.014739    0.926057
     17          6           0        6.397206   -1.354312   -0.328740
     18          6           0       -0.495991   -0.396664    2.590270
     19          6           0        6.544411   -1.040198   -1.628541
     20          6           0        0.228722    1.968865    0.121264
     21          6           0       -1.104595    1.832735   -0.303642
     22          6           0        5.334546   -0.560308   -2.227640
     23          6           0       -1.942802    2.826882   -0.832647
     24          6           0        2.426121   -1.646930    3.220915
     25          6           0        7.230674   -1.834329    0.732894
     26          6           0       -3.156101    2.322396   -1.115636
     27          6           0       -0.938460   -1.831441    2.579520
     28          6           0       -3.035974    0.900519   -0.850585
     29          6           0       -1.493487    4.309109   -0.769120
     30          6           0        7.794429   -0.871531   -2.285023
     31          6           0       -1.799967    5.114275    0.446630
     32          6           0       -4.326465    3.130594   -1.709378
     33          6           0       -4.156209   -0.025048   -1.128918
     34          6           0       -2.363340   -1.962697    3.080424
     35          6           0       -3.918252   -1.383847   -1.022894
     36          6           0        9.018726   -0.868278   -1.670001
     37          6           0       -1.179346    6.581371    0.329940
     38          6           0       -4.767249   -2.530596   -1.412551
     39          6           0       -4.155010   -3.652557   -1.160677
     40          6           0       -2.882925   -3.229698   -0.416795
     41          6           0       -6.118302   -2.255437   -2.201003
     42          6           0       -4.502569   -5.067602   -1.421148
     43          6           0       -6.747445   -3.035473   -3.005727
     44          1           0        4.580395   -2.268850    0.206359
     45          1           0        4.942813    0.527960    1.142403
     46          1           0        4.763169   -0.821651    2.160022
     47          1           0        2.629791    1.806479   -0.122452
     48          1           0        3.543683   -0.653908   -1.677204
     49          1           0       -0.219160   -0.286555    3.807285
     50          1           0       -1.300836    0.336999    2.224066
     51          1           0        0.711745    2.832482   -0.018055
     52          1           0        3.543880   -1.742479    3.250826
     53          1           0        1.646824   -1.413834    4.089314
     54          1           0        2.106818   -2.637908    3.112041
     55          1           0        6.790751   -2.483387    1.445179
     56          1           0        7.840679   -1.066750    1.274841
     57          1           0        8.005460   -2.572887    0.371154
     58          1           0       -0.954780   -2.263804    1.428373
     59          1           0       -0.136178   -2.633894    3.011078
     60          1           0       -1.568700   -0.376155   -0.196182
     61          1           0       -1.873749    4.820452   -1.707301
     62          1           0       -0.441164    4.407536   -0.883846
     63          1           0        7.926340   -0.532661   -3.372423
     64          1           0       -1.481179    4.529639    1.392381
     65          1           0       -2.691496    5.310374    0.623412
     66          1           0       -3.982201    4.133787   -1.872756
     67          1           0       -5.375251    3.308632   -1.060713
     68          1           0       -4.452183    2.828860   -2.623251
     69          1           0       -4.977556    0.503563   -1.761057
     70          1           0        9.212570   -0.724261   -0.733733
     71          1           0        9.845427   -0.530101   -2.328076
     72          1           0       -3.482184   -3.204867    3.913314
     73          1           0       -6.469463   -1.289761   -1.975779
     74          1           0       -4.234249   -5.401582   -2.504317
     75          1           0       -3.767354   -5.469439   -0.587652
     76          1           0       -5.529306   -5.303839   -1.212650
     77          1           0       -0.791700    8.078894    1.390074
     78          1           0       -7.791028   -2.832746   -3.264184
     79          1           0       -6.387376   -3.949726   -3.446896
 ---------------------------------------------------------------------

 SCF Done:  E(RB3LYP) =  -1947.79039368     A.U. after   19 cycles

 Excitation energies and oscillator strengths:

 Excited State   1:      Singlet-A      2.1516 eV  576.25 nm  f=0.4137  <S**2>=0.000
     154 ->156         0.10171
     155 ->156         0.69022
     155 <-156        -0.10881
 This state for optimization and/or second-order correction.
 Total Energy, E(TD-HF/TD-KS) =  -1947.71132503
 Copying the excited state density for this state as the 1-particle RhoCI density.

 The electronic state is 1-A.
 Alpha  occ. eigenvalues --  -19.19481 -19.14870 -19.14562 -19.11709 -19.09819
 Alpha  occ. eigenvalues --  -19.09379 -14.39086 -14.37835 -14.34592 -14.28443
 Alpha  occ. eigenvalues --  -10.33684 -10.29808 -10.27882 -10.26120 -10.25318
 Alpha  occ. eigenvalues --  -10.25232 -10.24917 -10.23790 -10.23726 -10.23070
 Alpha  occ. eigenvalues --  -10.22885 -10.22734 -10.21534 -10.21391 -10.21359
 Alpha  occ. eigenvalues --  -10.21240 -10.21179 -10.21093 -10.21078 -10.20772
 Alpha  occ. eigenvalues --  -10.20721 -10.20645 -10.20187 -10.20130 -10.20056
 Alpha  occ. eigenvalues --  -10.19970 -10.19614 -10.19084 -10.18728 -10.18566
 Alpha  occ. eigenvalues --  -10.18545 -10.18024 -10.17994  -1.10097  -1.10092
 Alpha  occ. eigenvalues --   -1.02887  -1.01143  -1.00961  -1.00671  -1.00488
 Alpha  occ. eigenvalues --   -0.97113  -0.94418  -0.90428  -0.84332  -0.83878
 Alpha  occ. eigenvalues --   -0.82381  -0.80696  -0.80058  -0.79509  -0.78931
 Alpha  occ. eigenvalues --   -0.77691  -0.76132  -0.75714  -0.74654  -0.73782
 Alpha  occ. eigenvalues --   -0.72832  -0.71345  -0.69994  -0.68848  -0.68592
 Alpha  occ. eigenvalues --   -0.67213  -0.65841  -0.63668  -0.61942  -0.60500
 Alpha  occ. eigenvalues --   -0.60186  -0.59271  -0.58329  -0.57814  -0.57285
 Alpha  occ. eigenvalues --   -0.56465  -0.56051  -0.55093  -0.54462  -0.53479
 Alpha  occ. eigenvalues --   -0.52573  -0.51206  -0.50851  -0.50362  -0.50044
 Alpha  occ. eigenvalues --   -0.49584  -0.49108  -0.48952  -0.48479  -0.48336
 Alpha  occ. eigenvalues --   -0.47663  -0.47153  -0.46756  -0.46430  -0.46113
 Alpha  occ. eigenvalues --   -0.45631  -0.45294  -0.45131  -0.44489  -0.44393
 Alpha  occ. eigenvalues --   -0.43985  -0.43584  -0.43278  -0.42937  -0.42625
 Alpha  occ. eigenvalues --   -0.42563  -0.42396  -0.41885  -0.41610  -0.41291
 Alpha  occ. eigenvalues --   -0.41132  -0.40954  -0.40769  -0.40121  -0.39871
 Alpha  occ. eigenvalues --   -0.39631  -0.39491  -0.39251  -0.38772  -0.38564
 Alpha  occ. eigenvalues --   -0.38445  -0.38056  -0.37898  -0.37766  -0.36643
 Alpha  occ. eigenvalues --   -0.36086  -0.35781  -0.35200  -0.34918  -0.34427
 Alpha  occ. eigenvalues --   -0.33892  -0.33481  -0.33230  -0.32369  -0.31365
 Alpha  occ. eigenvalues --   -0.30832  -0.30721  -0.29997  -0.28476  -0.27578
 Alpha  occ. eigenvalues --   -0.27361  -0.26916  -0.26676  -0.25825  -0.24974
 Alpha  occ. eigenvalues --   -0.24403  -0.23927  -0.23194  -0.22410  -0.19561
 Alpha virt. eigenvalues --   -0.11087  -0.07004  -0.05288  -0.01339  -0.00023
 Alpha virt. eigenvalues --    0.00256   0.01183   0.01549   0.02219   0.02430
 Alpha virt. eigenvalues --    0.03105   0.03719   0.04151   0.04818   0.05177

 Mulliken charges:
               1
     1  O   -0.230393
     2  O   -0.200242
     3  O   -0.135891
     4  O   -0.240375
     5  O   -0.213471
     6  O   -0.212918
     7  N   -0.199669
     8  N   -0.110277
     9  N   -0.041188
    10  N   -0.342699
    11  C    0.061179
    12  C    0.344783
    13  C   -0.068343
    14  C   -0.104088
    15  C   -0.080123
    16  C    0.075938
    17  C   -0.126495
    18  C    0.020082
    19  C    0.018210
    20  C   -0.029079
    21  C    0.083525
    22  C    0.098162
    23  C   -0.049791
    24  C    0.100113
    25  C    0.084724
    26  C   -0.151675
    27  C   -0.113191
    28  C    0.001104
    29  C    0.080797
    30  C   -0.073321
    31  C    0.106898
    32  C    0.149721
    33  C   -0.109003
    34  C    0.137570
    35  C    0.122075
    36  C    0.012740
    37  C    0.135358
    38  C    0.046639
    39  C   -0.229210
    40  C    0.141924
    41  C    0.035021
    42  C    0.040164
    43  C   -0.016248
    44  H    0.024968
    45  H   -0.107863
    46  H   -0.002350
    47  H    0.167370
    48  H    0.068346
    49  H    0.023383
    50  H    0.045769
    51  H   -0.057448
    52  H    0.006895
    53  H    0.027679
    54  H    0.008590
    55  H    0.002347
    56  H    0.051256
    57  H    0.033937
    58  H    0.090507
    59  H    0.044486
    60  H    0.187707
    61  H    0.021665
    62  H   -0.007392
    63  H    0.035529
    64  H    0.052377
    65  H   -0.050920
    66  H   -0.015947
    67  H    0.060581
    68  H   -0.014264
    69  H    0.016336
    70  H   -0.046196
    71  H    0.022475
    72  H    0.142388
    73  H   -0.021290
    74  H    0.049835
    75  H    0.055513
    76  H    0.019735
    77  H    0.216748
    78  H    0.017137
    79  H    0.011075
 Sum of Mulliken charges =   0.00000

 Dipole moment (field-independent basis, Debye):
    X=              2.5012    Y=              3.8281    Z=              3.0373  Tot=              5.4896
 Quadrupole moment (field-independent basis, Debye-Ang):
   XX=           -219.6408   YY=           -251.2545   ZZ=           -264.7218
   XY=            -12.3678   XZ=             34.3026   YZ=              3.1476

 Normal termination of Gaussian 09 at Mon Jul  8 09:44:51 2019.
