 Gaussian 09, Revision D.01,
 Gaussian 09:  ES64L-G09RevD.01 24-Apr-2013

 --------------------------
 # td=(NStates=1) B3LYP/SVP
 --------------------------

 --
 TD
 --
 Symbolic Z-matrix:
 Charge =  0 Multiplicity = 1

                         Standard orientation:
 ---------------------------------------------------------------------
 Center     Atomic      Atomic             Coordinates (Angstroms)
 Number     Number       Type             X           Y           Z
 ---------------------------------------------------------------------
      1          8           0        5.413313   -0.081885   -3.328627
      2          8           0       -2.579552   -3.289767    3.355833
      3          8           0       -3.313294   -1.075307    2.805175
      4          8           0       -1.963274    7.282571    1.496385
      5          8           0       -0.728600    7.065979   -0.302912
      6          8           0       -1.681940   -3.983190   -0.080275
      7          7           0        2.439479    0.985603    0.628275
      8          7           0        4.411754   -0.685590   -1.169423
      9          7           0       -1.882353    0.661029   -0.392480
     10          7           0       -2.556087   -1.868732   -0.626291
     11          6           0        4.906218   -1.253823    0.056985
     12          6           0        4.359463   -0.250192    1.179487
     13          6           0        2.902115   -0.005798    1.415044
     14          6           0        2.003376   -0.742212    2.100532
     15          6           0        0.752620   -0.103287    1.764563
     16          6           0        1.055800    0.986074    0.791758
     17          6           0        6.337472   -1.190874   -0.091347
     18          6           0       -0.602015   -0.369752    2.444225
     19          6           0        6.772109   -0.772975   -1.370010
     20          6           0        0.167835    1.926805    0.294905
     21          6           0       -1.166223    1.838023   -0.287940
     22          6           0        5.491177   -0.391148   -2.088300
     23          6           0       -1.955894    2.968023   -0.806338
     24          6           0        2.241490   -1.662297    3.228662
     25          6           0        7.244233   -1.743268    0.916551
     26          6           0       -3.146281    2.388903   -1.324957
     27          6           0       -1.020629   -1.859312    2.387039
     28          6           0       -3.139031    0.927095   -0.922801
     29          6           0       -1.613049    4.388293   -0.895907
     30          6           0        8.001710   -0.614128   -2.119303
     31          6           0       -1.908735    5.118778    0.407822
     32          6           0       -4.331372    3.066645   -1.906955
     33          6           0       -4.065845   -0.025908   -1.252478
     34          6           0       -2.448108   -1.976054    2.852645
     35          6           0       -3.793901   -1.449987   -1.041594
     36          6           0        9.209601   -0.538815   -1.607435
     37          6           0       -1.420093    6.549739    0.488654
     38          6           0       -4.659902   -2.594745   -1.484652
     39          6           0       -3.892364   -3.638965   -1.185598
     40          6           0       -2.549757   -3.226898   -0.513542
     41          6           0       -6.129624   -2.469510   -1.860761
     42          6           0       -4.202491   -5.244630   -1.372561
     43          6           0       -6.813805   -3.384033   -2.471161
     44          1           0        4.345799   -2.267701    0.097746
     45          1           0        4.760750    0.765909    1.436572
     46          1           0        4.712157   -0.602627    2.028392
     47          1           0        2.743894    1.371114   -0.343172
     48          1           0        3.469761   -0.945712   -1.505913
     49          1           0       -0.470210    0.005622    3.593065
     50          1           0       -1.472827    0.313546    2.016362
     51          1           0        0.739852    2.840149   -0.052709
     52          1           0        3.245300   -1.573366    3.756882
     53          1           0        1.320947   -1.564669    3.993804
     54          1           0        2.253795   -2.769305    2.762207
     55          1           0        6.643854   -2.608026    1.420274
     56          1           0        7.244679   -0.967314    1.770245
     57          1           0        8.170116   -1.943107    0.394219
     58          1           0       -0.969381   -2.284278    1.383475
     59          1           0       -0.491511   -2.643351    3.076212
     60          1           0       -1.800260   -0.349910   -0.184011
     61          1           0       -2.249817    4.953453   -1.596591
     62          1           0       -0.433502    4.460209   -1.000808
     63          1           0        7.649763   -0.400690   -3.287265
     64          1           0       -1.454142    4.596473    1.375492
     65          1           0       -2.853746    5.070249    0.848658
     66          1           0       -4.162026    4.278191   -2.084149
     67          1           0       -5.291347    3.056908   -1.114404
     68          1           0       -4.556051    2.480219   -2.878973
     69          1           0       -4.936262    0.138029   -1.744890
     70          1           0        9.349879   -0.950241   -0.716306
     71          1           0       10.072868   -0.110669   -2.444347
     72          1           0       -3.599760   -3.492183    3.642854
     73          1           0       -6.772172   -1.446457   -1.446517
     74          1           0       -4.266325   -5.657758   -2.565886
     75          1           0       -3.169896   -5.681404   -0.782047
     76          1           0       -5.070392   -5.356597   -0.622416
     77          1           0       -1.666154    8.051915    1.317022
     78          1           0       -8.202127   -3.296752   -2.806532
     79          1           0       -6.414877   -4.361857   -2.733130
 ---------------------------------------------------------------------

 SCF Done:  E(RB3LYP) =  -1947.71179820     A.U. after   17 cycles

 Excitation energies and oscillator strengths:

 Excited State   1:      Singlet-A      2.0233 eV  612.77 nm  f=0.5234  <S**2>=0.000
     155 ->156         0.70706
     155 <-156        -0.14565
 This state for optimization and/or second-order correction.
 Total Energy, E(TD-HF/TD-KS) =  -1947.63744200
 Copying the excited state density for this state as the 1-particle RhoCI density.

 The electronic state is 1-A.
 Alpha  occ. eigenvalues --  -19.17938 -19.17285 -19.13351 -19.12533 -19.10968
 Alpha  occ. eigenvalues --  -19.10919 -14.39279 -14.36246 -14.35995 -14.29234
 Alpha  occ. eigenvalues --  -10.32255 -10.31629 -10.29704 -10.26916 -10.26584
 Alpha  occ. eigenvalues --  -10.25441 -10.24523 -10.24192 -10.23589 -10.23544
 Alpha  occ. eigenvalues --  -10.23047 -10.22795 -10.22543 -10.22418 -10.22282
 Alpha  occ. eigenvalues --  -10.22221 -10.21902 -10.21801 -10.21660 -10.21637
 Alpha  occ. eigenvalues --  -10.21559 -10.21482 -10.21269 -10.21213 -10.21136
 Alpha  occ. eigenvalues --  -10.21002 -10.20677 -10.20409 -10.20253 -10.20011
 Alpha  occ. eigenvalues --  -10.19988 -10.19637 -10.18811  -1.13135  -1.04881
 Alpha  occ. eigenvalues --   -1.03462  -1.01112  -0.99968  -0.99481  -0.97930
 Alpha  occ. eigenvalues --   -0.97196  -0.94167  -0.91874  -0.83142  -0.82967
 Alpha  occ. eigenvalues --   -0.82157  -0.81249  -0.79650  -0.79435  -0.78343
 Alpha  occ. eigenvalues --   -0.77868  -0.76396  -0.75612  -0.73795  -0.72432
 Alpha  occ. eigenvalues --   -0.72003  -0.70832  -0.69646  -0.68437  -0.67769
 Alpha  occ. eigenvalues --   -0.66893  -0.65566  -0.62932  -0.61763  -0.61096
 Alpha  occ. eigenvalues --   -0.59836  -0.57768  -0.57216  -0.57070  -0.56936
 Alpha  occ. eigenvalues --   -0.56055  -0.55586  -0.54247  -0.53927  -0.52965
 Alpha  occ. eigenvalues --   -0.51829  -0.51348  -0.50985  -0.50831  -0.49698
 Alpha  occ. eigenvalues --   -0.49185  -0.49019  -0.48367  -0.47854  -0.47541
 Alpha  occ. eigenvalues --   -0.46977  -0.46864  -0.46469  -0.46130  -0.45693
 Alpha  occ. eigenvalues --   -0.45156  -0.44300  -0.43965  -0.43883  -0.43766
 Alpha  occ. eigenvalues --   -0.43346  -0.42866  -0.42535  -0.42247  -0.41948
 Alpha  occ. eigenvalues --   -0.41841  -0.41717  -0.41344  -0.41075  -0.40937
 Alpha  occ. eigenvalues --   -0.40632  -0.40383  -0.39919  -0.39782  -0.39360
 Alpha  occ. eigenvalues --   -0.39197  -0.38891  -0.38696  -0.38255  -0.38095
 Alpha  occ. eigenvalues --   -0.38007  -0.37747  -0.37139  -0.36264  -0.35815
 Alpha  occ. eigenvalues --   -0.35377  -0.35143  -0.34647  -0.34463  -0.34015
 Alpha  occ. eigenvalues --   -0.33666  -0.33261  -0.32928  -0.32202  -0.31545
 Alpha  occ. eigenvalues --   -0.31265  -0.30892  -0.29298  -0.28925  -0.27895
 Alpha  occ. eigenvalues --   -0.27260  -0.26731  -0.25989  -0.25465  -0.25224
 Alpha  occ. eigenvalues --   -0.24921  -0.24336  -0.24000  -0.22809  -0.18506
 Alpha virt. eigenvalues --   -0.11039  -0.07266  -0.06301  -0.00639  -0.00386
 Alpha virt. eigenvalues --    0.00041   0.00217   0.00729   0.01526   0.02001
 Alpha virt. eigenvalues --    0.02342   0.02680   0.02860   0.03292   0.03963

 Mulliken charges:
               1
     1  O   -0.283625
     2  O   -0.280974
     3  O   -0.255327
     4  O   -0.102739
     5  O   -0.186061
     6  O   -0.230752
     7  N   -0.082581
     8  N   -0.263904
     9  N   -0.077457
    10  N   -0.312831
    11  C    0.154539
    12  C    0.259145
    13  C   -0.150585
    14  C   -0.054475
    15  C   -0.077740
    16  C    0.037898
    17  C   -0.214660
    18  C   -0.025159
    19  C   -0.050712
    20  C   -0.115220
    21  C    0.096464
    22  C    0.199090
    23  C   -0.067529
    24  C   -0.003048
    25  C    0.086580
    26  C   -0.117721
    27  C   -0.017354
    28  C    0.135282
    29  C    0.142684
    30  C   -0.033380
    31  C   -0.040844
    32  C   -0.037824
    33  C   -0.036481
    34  C    0.193054
    35  C    0.043806
    36  C   -0.012170
    37  C    0.093890
    38  C    0.054159
    39  C   -0.222683
    40  C    0.191834
    41  C   -0.019080
    42  C   -0.067818
    43  C   -0.111559
    44  H    0.052627
    45  H    0.001130
    46  H   -0.102880
    47  H    0.178175
    48  H    0.140945
    49  H    0.035648
    50  H    0.062834
    51  H   -0.003164
    52  H    0.036010
    53  H    0.056206
    54  H    0.047053
    55  H    0.033884
    56  H    0.046634
    57  H    0.046093
    58  H    0.071336
    59  H    0.047739
    60  H    0.151900
    61  H    0.021254
    62  H    0.042903
    63  H    0.069215
    64  H    0.042670
    65  H    0.001036
    66  H    0.042232
    67  H    0.063978
    68  H    0.059782
    69  H   -0.072272
    70  H   -0.028295
    71  H    0.069765
    72  H    0.223763
    73  H    0.056479
    74  H    0.080467
    75  H    0.066782
    76  H    0.052523
    77  H    0.094062
    78  H    0.045764
    79  H    0.029591
 Sum of Mulliken charges =   0.00000

 Dipole moment (field-independent basis, Debye):
    X=              1.2879    Y=              1.1789    Z=              4.2128  Tot=              4.5603
 Quadrupole moment (field-independent basis, Debye-Ang):
   XX=           -226.7197   YY=           -255.9646   ZZ=           -263.3114
   XY=            -13.2368   XZ=             27.6089   YZ=             -1.0549

 Normal termination of Gaussian 09 at Wed Jul 10 19:21:05 2019.
