 Gaussian 09, Revision D.01,
 Gaussian 09:  ES64L-G09RevD.01 24-Apr-2013

 --------------------------
 # td=(NStates=1) B3LYP/SVP
 --------------------------

 --
 TD
 --
 Symbolic Z-matrix:
 Charge =  0 Multiplicity = 1

                         Standard orientation:
 ---------------------------------------------------------------------
 Center     Atomic      Atomic             Coordinates (Angstroms)
 Number     Number       Type             X           Y           Z
 ---------------------------------------------------------------------
      1          8           0        5.309972   -0.265671   -3.281916
      2          8           0       -2.939153   -2.857438    3.385647
      3          8           0       -3.256622   -0.582655    3.306348
      4          8           0       -1.281701    7.121776    1.579317
      5          8           0       -0.694328    7.007473   -0.630419
      6          8           0       -1.972891   -4.102748    0.072379
      7          7           0        2.406311    0.918148    0.562000
      8          7           0        4.422790   -0.666952   -1.186563
      9          7           0       -1.787201    0.699505   -0.597306
     10          7           0       -2.660805   -1.990867   -0.472100
     11          6           0        4.815358   -1.219188    0.007326
     12          6           0        4.475120   -0.336353    1.192227
     13          6           0        2.985362   -0.073187    1.402400
     14          6           0        1.992903   -0.605306    2.105344
     15          6           0        0.770307    0.006671    1.824011
     16          6           0        0.982373    0.944037    0.793781
     17          6           0        6.363488   -1.318258   -0.139079
     18          6           0       -0.564811   -0.110852    2.538449
     19          6           0        6.711554   -0.982738   -1.463723
     20          6           0        0.227923    1.920241    0.173185
     21          6           0       -1.074062    1.796300   -0.375431
     22          6           0        5.443533   -0.583546   -2.124374
     23          6           0       -1.873433    2.891054   -0.918617
     24          6           0        2.158758   -1.642973    3.149543
     25          6           0        7.107814   -1.978378    0.914396
     26          6           0       -3.108827    2.348780   -1.378077
     27          6           0       -1.163114   -1.506347    2.536327
     28          6           0       -2.991404    0.887782   -1.039510
     29          6           0       -1.528930    4.294501   -0.998225
     30          6           0        7.995672   -0.854214   -2.088364
     31          6           0       -1.708797    5.051927    0.392492
     32          6           0       -4.347098    2.972440   -1.993801
     33          6           0       -3.896437   -0.057026   -1.427846
     34          6           0       -2.599793   -1.581403    3.102556
     35          6           0       -3.781377   -1.515388   -1.053912
     36          6           0        9.281944   -0.832005   -1.632017
     37          6           0       -1.150318    6.472638    0.371595
     38          6           0       -4.736707   -2.544490   -1.378522
     39          6           0       -4.221193   -3.692518   -0.892669
     40          6           0       -2.841270   -3.272536   -0.358981
     41          6           0       -6.000509   -2.342370   -2.058458
     42          6           0       -4.583034   -5.108563   -1.009132
     43          6           0       -6.703930   -3.208284   -2.910322
     44          1           0        4.480454   -2.429792    0.206873
     45          1           0        5.045940    0.539164    1.016911
     46          1           0        4.692318   -0.892640    2.116598
     47          1           0        2.933785    1.368695   -0.230889
     48          1           0        3.410613   -0.610329   -1.459475
     49          1           0       -0.493283    0.113810    3.608255
     50          1           0       -1.273099    0.719219    2.249515
     51          1           0        0.849406    2.943383    0.074632
     52          1           0        3.331699   -1.557202    3.593219
     53          1           0        1.574707   -1.430527    4.083288
     54          1           0        2.042289   -2.779073    2.954031
     55          1           0        6.460610   -2.884914    1.385828
     56          1           0        7.490142   -1.382700    1.866579
     57          1           0        8.116539   -2.442170    0.690285
     58          1           0       -1.176880   -2.014797    1.549844
     59          1           0       -0.581587   -2.355500    3.140542
     60          1           0       -1.651683   -0.407381   -0.117469
     61          1           0       -2.209284    4.791410   -1.703161
     62          1           0       -0.419860    4.360168   -1.203959
     63          1           0        7.998797   -0.794591   -3.230696
     64          1           0       -1.463393    4.610571    1.236791
     65          1           0       -2.751299    5.173778    0.740782
     66          1           0       -4.314508    4.208921   -1.989933
     67          1           0       -5.141412    2.804640   -1.345079
     68          1           0       -4.395525    2.570608   -2.989239
     69          1           0       -4.935755    0.167799   -1.825584
     70          1           0        9.397877   -0.762847   -0.489003
     71          1           0       10.109032   -0.811605   -2.340514
     72          1           0       -3.861026   -2.676871    3.910995
     73          1           0       -6.403446   -1.318238   -1.658071
     74          1           0       -4.332682   -5.520032   -2.155519
     75          1           0       -4.152873   -5.811435   -0.416170
     76          1           0       -5.742766   -5.133982   -1.179205
     77          1           0       -1.137822    8.109403    1.427746
     78          1           0       -7.700912   -2.930275   -3.195701
     79          1           0       -6.407391   -4.142083   -3.491543
 ---------------------------------------------------------------------

 SCF Done:  E(RB3LYP) =  -1947.88004530     A.U. after   19 cycles

 Excitation energies and oscillator strengths:

 Excited State   1:      Singlet-A      2.1121 eV  587.01 nm  f=0.4770  <S**2>=0.000
     154 ->156         0.11214
     155 ->156         0.69527
     155 <-156        -0.12556
 This state for optimization and/or second-order correction.
 Total Energy, E(TD-HF/TD-KS) =  -1947.80242647
 Copying the excited state density for this state as the 1-particle RhoCI density.

 The electronic state is 1-A.
 Alpha  occ. eigenvalues --  -19.18820 -19.18658 -19.13214 -19.12171 -19.10293
 Alpha  occ. eigenvalues --  -19.09193 -14.37743 -14.37233 -14.35940 -14.29788
 Alpha  occ. eigenvalues --  -10.32809 -10.31155 -10.28860 -10.25816 -10.25665
 Alpha  occ. eigenvalues --  -10.24678 -10.24513 -10.24356 -10.23193 -10.22977
 Alpha  occ. eigenvalues --  -10.22908 -10.22722 -10.22709 -10.22136 -10.21547
 Alpha  occ. eigenvalues --  -10.21390 -10.21270 -10.21204 -10.21194 -10.21173
 Alpha  occ. eigenvalues --  -10.20990 -10.20930 -10.20758 -10.20705 -10.20564
 Alpha  occ. eigenvalues --  -10.20092 -10.20074 -10.19891 -10.19797 -10.19634
 Alpha  occ. eigenvalues --  -10.19550 -10.19538 -10.18775  -1.08551  -1.08203
 Alpha  occ. eigenvalues --   -1.03444  -1.00590  -1.00176  -0.99758  -0.99356
 Alpha  occ. eigenvalues --   -0.96759  -0.95552  -0.92708  -0.82735  -0.82204
 Alpha  occ. eigenvalues --   -0.81700  -0.81329  -0.81034  -0.79789  -0.77682
 Alpha  occ. eigenvalues --   -0.77329  -0.76019  -0.75483  -0.74547  -0.72639
 Alpha  occ. eigenvalues --   -0.71690  -0.70926  -0.70309  -0.68327  -0.67919
 Alpha  occ. eigenvalues --   -0.66619  -0.66054  -0.63435  -0.61933  -0.61176
 Alpha  occ. eigenvalues --   -0.60408  -0.59988  -0.57719  -0.57443  -0.56349
 Alpha  occ. eigenvalues --   -0.55594  -0.55187  -0.54786  -0.54096  -0.53109
 Alpha  occ. eigenvalues --   -0.52187  -0.52005  -0.51080  -0.50553  -0.49475
 Alpha  occ. eigenvalues --   -0.48716  -0.48542  -0.47991  -0.47871  -0.47755
 Alpha  occ. eigenvalues --   -0.47553  -0.47015  -0.46823  -0.46116  -0.45316
 Alpha  occ. eigenvalues --   -0.45169  -0.45004  -0.44810  -0.44457  -0.44085
 Alpha  occ. eigenvalues --   -0.43834  -0.42928  -0.42827  -0.42699  -0.42403
 Alpha  occ. eigenvalues --   -0.42115  -0.41964  -0.41492  -0.41287  -0.40919
 Alpha  occ. eigenvalues --   -0.40777  -0.40560  -0.40209  -0.39933  -0.39727
 Alpha  occ. eigenvalues --   -0.39711  -0.39234  -0.38899  -0.38651  -0.38196
 Alpha  occ. eigenvalues --   -0.37980  -0.37418  -0.37244  -0.36890  -0.36782
 Alpha  occ. eigenvalues --   -0.36658  -0.36124  -0.35321  -0.35007  -0.34236
 Alpha  occ. eigenvalues --   -0.33533  -0.32829  -0.32729  -0.32069  -0.31874
 Alpha  occ. eigenvalues --   -0.31832  -0.30407  -0.28636  -0.28389  -0.27594
 Alpha  occ. eigenvalues --   -0.27356  -0.26833  -0.26088  -0.25292  -0.25115
 Alpha  occ. eigenvalues --   -0.24462  -0.23920  -0.23514  -0.22818  -0.19090
 Alpha virt. eigenvalues --   -0.11153  -0.07362  -0.06597  -0.02186  -0.00609
 Alpha virt. eigenvalues --    0.00289   0.00678   0.01212   0.02836   0.03121
 Alpha virt. eigenvalues --    0.03262   0.03645   0.04121   0.04496   0.04841

 Mulliken charges:
               1
     1  O   -0.198177
     2  O   -0.214529
     3  O   -0.239583
     4  O   -0.228824
     5  O   -0.233795
     6  O   -0.269911
     7  N   -0.192343
     8  N   -0.176288
     9  N   -0.068580
    10  N   -0.202278
    11  C   -0.020150
    12  C    0.289866
    13  C   -0.075918
    14  C   -0.065078
    15  C   -0.045458
    16  C    0.091172
    17  C   -0.111993
    18  C    0.109084
    19  C    0.009731
    20  C   -0.182542
    21  C    0.107660
    22  C    0.134281
    23  C   -0.120262
    24  C   -0.026698
    25  C   -0.031013
    26  C   -0.155398
    27  C   -0.089190
    28  C    0.107042
    29  C    0.143663
    30  C   -0.069646
    31  C    0.050861
    32  C    0.106363
    33  C   -0.118007
    34  C    0.149558
    35  C    0.028257
    36  C   -0.034770
    37  C    0.142569
    38  C    0.024339
    39  C   -0.157673
    40  C    0.107072
    41  C   -0.051999
    42  C    0.072361
    43  C   -0.052494
    44  H    0.046540
    45  H   -0.024337
    46  H   -0.014970
    47  H    0.132539
    48  H    0.147565
    49  H   -0.003343
    50  H    0.025466
    51  H    0.041541
    52  H    0.011889
    53  H    0.025947
    54  H    0.057958
    55  H    0.045972
    56  H    0.049240
    57  H    0.035086
    58  H    0.067192
    59  H    0.043537
    60  H    0.245671
    61  H    0.018479
    62  H    0.027714
    63  H    0.026798
    64  H   -0.027887
    65  H    0.020050
    66  H    0.029975
    67  H    0.022893
    68  H    0.045612
    69  H   -0.006066
    70  H    0.024816
    71  H    0.035730
    72  H    0.213369
    73  H    0.036341
    74  H    0.041512
    75  H    0.013968
    76  H    0.026118
    77  H    0.204167
    78  H    0.021304
    79  H    0.050333
 Sum of Mulliken charges =   0.00000

 Dipole moment (field-independent basis, Debye):
    X=             -0.3654    Y=              2.1345    Z=              3.4832  Tot=              4.1016
 Quadrupole moment (field-independent basis, Debye-Ang):
   XX=           -213.7620   YY=           -250.5097   ZZ=           -260.8989
   XY=             -9.9292   XZ=             27.9014   YZ=              5.7116

 Normal termination of Gaussian 09 at Wed Jul 10 00:57:00 2019.
