 Gaussian 09, Revision D.01,
 Gaussian 09:  ES64L-G09RevD.01 24-Apr-2013

 --------------------------
 # td=(NStates=1) B3LYP/SVP
 --------------------------

 --
 TD
 --
 Symbolic Z-matrix:
 Charge =  0 Multiplicity = 1

                         Standard orientation:
 ---------------------------------------------------------------------
 Center     Atomic      Atomic             Coordinates (Angstroms)
 Number     Number       Type             X           Y           Z
 ---------------------------------------------------------------------
      1          8           0        5.457463    0.200213   -3.251334
      2          8           0       -3.107437   -3.072902    3.476881
      3          8           0       -3.255417   -0.765298    3.177017
      4          8           0       -1.517739    7.285496    1.647381
      5          8           0       -0.368758    7.036350   -0.274869
      6          8           0       -2.227701   -4.039840   -0.141432
      7          7           0        2.379261    0.669736    0.634182
      8          7           0        4.465419   -0.649661   -1.250367
      9          7           0       -1.873572    0.720991   -0.301795
     10          7           0       -2.716507   -1.847089   -0.550565
     11          6           0        4.834804   -1.432982   -0.057425
     12          6           0        4.426106   -0.645933    1.265727
     13          6           0        2.948273   -0.325117    1.404841
     14          6           0        2.042059   -0.976003    2.146687
     15          6           0        0.831356   -0.286276    1.765173
     16          6           0        0.956937    0.725407    0.889399
     17          6           0        6.355672   -1.556200   -0.308118
     18          6           0       -0.520245   -0.469939    2.644283
     19          6           0        6.755445   -0.908192   -1.476606
     20          6           0        0.203086    1.808285    0.293859
     21          6           0       -0.992614    1.803505   -0.125187
     22          6           0        5.478166   -0.376191   -2.119434
     23          6           0       -1.731135    2.961430   -0.810408
     24          6           0        2.185000   -2.236883    3.026610
     25          6           0        7.206779   -2.128836    0.652268
     26          6           0       -2.953695    2.502615   -1.230031
     27          6           0       -1.218730   -1.910829    2.610223
     28          6           0       -3.052405    1.143244   -0.907457
     29          6           0       -1.284378    4.371498   -0.802465
     30          6           0        8.044837   -0.587628   -2.021271
     31          6           0       -1.520737    5.057032    0.467364
     32          6           0       -4.059843    3.315213   -1.805123
     33          6           0       -3.998263    0.106541   -1.278630
     34          6           0       -2.621871   -1.850196    3.068479
     35          6           0       -3.834938   -1.253088   -1.144928
     36          6           0        9.175213   -0.529471   -1.524230
     37          6           0       -1.145784    6.558249    0.499172
     38          6           0       -4.804815   -2.340391   -1.676626
     39          6           0       -4.249302   -3.506952   -1.296094
     40          6           0       -2.979378   -3.137536   -0.575171
     41          6           0       -6.181521   -2.011323   -2.174341
     42          6           0       -4.661820   -4.985910   -1.499635
     43          6           0       -6.810074   -2.917366   -3.050318
     44          1           0        4.405593   -2.437052   -0.190213
     45          1           0        5.021039    0.172657    1.682940
     46          1           0        4.514924   -1.403570    2.081373
     47          1           0        3.046267    1.111384    0.077135
     48          1           0        3.443774   -0.912400   -1.574583
     49          1           0       -0.418448   -0.217517    3.786933
     50          1           0       -1.263684    0.462607    2.358114
     51          1           0        0.742165    2.788500    0.359443
     52          1           0        3.302052   -2.517901    3.043323
     53          1           0        1.933958   -1.795878    4.117736
     54          1           0        1.603121   -3.071019    2.884218
     55          1           0        6.596530   -2.786121    1.300507
     56          1           0        7.751393   -1.207911    1.225406
     57          1           0        8.037649   -2.527418    0.049229
     58          1           0       -1.240924   -2.298609    1.502836
     59          1           0       -0.609845   -2.637381    3.013925
     60          1           0       -1.598816   -0.232630   -0.164997
     61          1           0       -2.013461    4.752880   -1.567574
     62          1           0       -0.194891    4.495175   -0.974889
     63          1           0        7.942349   -0.271028   -3.253598
     64          1           0       -1.215637    4.809057    1.599751
     65          1           0       -2.714846    4.992829    0.737949
     66          1           0       -3.820737    4.327060   -1.995652
     67          1           0       -5.120567    3.214658   -1.241224
     68          1           0       -4.515404    2.923667   -2.697401
     69          1           0       -4.945069    0.604089   -1.684219
     70          1           0        9.423813   -0.780925   -0.559846
     71          1           0        9.965894   -0.130201   -2.252698
     72          1           0       -3.990248   -3.030231    3.697147
     73          1           0       -6.774610   -1.207145   -1.612643
     74          1           0       -4.009369   -5.448818   -2.553193
     75          1           0       -4.283560   -5.565104   -0.401374
     76          1           0       -5.878440   -5.066978   -1.668859
     77          1           0       -1.100787    8.234229    1.473421
     78          1           0       -8.063651   -2.728817   -3.173514
     79          1           0       -6.516128   -3.902792   -3.317774
 ---------------------------------------------------------------------

 SCF Done:  E(RB3LYP) =  -1947.77961290     A.U. after   24 cycles

 Excitation energies and oscillator strengths:

 Excited State   1:      Singlet-A      2.1489 eV  576.96 nm  f=0.0400  <S**2>=0.000
     153 ->156         0.24998
     154 ->156         0.55578
     155 ->156        -0.33151
 This state for optimization and/or second-order correction.
 Total Energy, E(TD-HF/TD-KS) =  -1947.70064165
 Copying the excited state density for this state as the 1-particle RhoCI density.

 The electronic state is 1-A.
 Alpha  occ. eigenvalues --  -19.18770 -19.16688 -19.14118 -19.11012 -19.09664
 Alpha  occ. eigenvalues --  -19.08474 -14.37262 -14.36916 -14.36534 -14.29123
 Alpha  occ. eigenvalues --  -10.33266 -10.31215 -10.28788 -10.26627 -10.26212
 Alpha  occ. eigenvalues --  -10.24983 -10.24617 -10.24464 -10.24163 -10.23479
 Alpha  occ. eigenvalues --  -10.23375 -10.23141 -10.22733 -10.22577 -10.22508
 Alpha  occ. eigenvalues --  -10.22488 -10.22332 -10.22074 -10.21987 -10.21953
 Alpha  occ. eigenvalues --  -10.21623 -10.21225 -10.21136 -10.20981 -10.20516
 Alpha  occ. eigenvalues --  -10.20363 -10.20217 -10.19759 -10.19747 -10.19724
 Alpha  occ. eigenvalues --  -10.18989 -10.18783 -10.18225  -1.09260  -1.07222
 Alpha  occ. eigenvalues --   -1.00318  -0.99866  -0.99250  -0.98620  -0.97690
 Alpha  occ. eigenvalues --   -0.97553  -0.93377  -0.91049  -0.85128  -0.83661
 Alpha  occ. eigenvalues --   -0.83143  -0.80471  -0.80175  -0.79488  -0.79220
 Alpha  occ. eigenvalues --   -0.78242  -0.76457  -0.75637  -0.73556  -0.73009
 Alpha  occ. eigenvalues --   -0.72440  -0.71467  -0.70288  -0.69317  -0.67676
 Alpha  occ. eigenvalues --   -0.66514  -0.66136  -0.64232  -0.61101  -0.60505
 Alpha  occ. eigenvalues --   -0.59287  -0.59168  -0.58257  -0.57841  -0.56434
 Alpha  occ. eigenvalues --   -0.55790  -0.55622  -0.55020  -0.53469  -0.52845
 Alpha  occ. eigenvalues --   -0.52559  -0.51556  -0.51182  -0.50858  -0.50457
 Alpha  occ. eigenvalues --   -0.49467  -0.48797  -0.48685  -0.48260  -0.47478
 Alpha  occ. eigenvalues --   -0.47337  -0.47018  -0.46741  -0.46118  -0.45772
 Alpha  occ. eigenvalues --   -0.45117  -0.44748  -0.44612  -0.44234  -0.44125
 Alpha  occ. eigenvalues --   -0.44037  -0.43382  -0.43191  -0.43032  -0.42465
 Alpha  occ. eigenvalues --   -0.42217  -0.41895  -0.41545  -0.41410  -0.41247
 Alpha  occ. eigenvalues --   -0.40566  -0.40058  -0.39905  -0.39300  -0.39151
 Alpha  occ. eigenvalues --   -0.38717  -0.38371  -0.38280  -0.38176  -0.37951
 Alpha  occ. eigenvalues --   -0.37820  -0.37249  -0.37144  -0.36903  -0.36777
 Alpha  occ. eigenvalues --   -0.35912  -0.35073  -0.34444  -0.33885  -0.33503
 Alpha  occ. eigenvalues --   -0.33300  -0.33095  -0.33061  -0.31686  -0.31303
 Alpha  occ. eigenvalues --   -0.30882  -0.30214  -0.29319  -0.28497  -0.27137
 Alpha  occ. eigenvalues --   -0.27022  -0.26814  -0.26212  -0.24921  -0.24624
 Alpha  occ. eigenvalues --   -0.24347  -0.24092  -0.23472  -0.22441  -0.20744
 Alpha virt. eigenvalues --   -0.11499  -0.05917  -0.05659  -0.02096  -0.01394
 Alpha virt. eigenvalues --    0.00395   0.00838   0.01297   0.02016   0.02151
 Alpha virt. eigenvalues --    0.02923   0.03325   0.04239   0.04276   0.04652

 Mulliken charges:
               1
     1  O   -0.274211
     2  O   -0.162792
     3  O   -0.277294
     4  O   -0.269294
     5  O   -0.211465
     6  O   -0.259564
     7  N   -0.101434
     8  N   -0.232681
     9  N   -0.093513
    10  N   -0.229643
    11  C    0.131747
    12  C    0.204457
    13  C   -0.177915
    14  C   -0.074289
    15  C   -0.106476
    16  C    0.121683
    17  C   -0.235802
    18  C   -0.057934
    19  C   -0.020558
    20  C   -0.113924
    21  C    0.174548
    22  C    0.174981
    23  C   -0.120093
    24  C    0.082120
    25  C    0.053687
    26  C   -0.071580
    27  C    0.028214
    28  C    0.092490
    29  C    0.169989
    30  C   -0.027665
    31  C   -0.124959
    32  C    0.093239
    33  C   -0.119092
    34  C    0.166266
    35  C    0.115862
    36  C   -0.029452
    37  C    0.158910
    38  C    0.015625
    39  C   -0.125647
    40  C    0.109505
    41  C   -0.045985
    42  C   -0.083025
    43  C   -0.072049
    44  H    0.031851
    45  H    0.019066
    46  H   -0.024154
    47  H    0.092881
    48  H    0.166179
    49  H    0.025282
    50  H    0.045521
    51  H    0.019790
    52  H    0.007675
    53  H    0.038706
    54  H    0.037660
    55  H    0.030839
    56  H    0.061659
    57  H    0.047044
    58  H    0.089432
    59  H   -0.011884
    60  H    0.140234
    61  H    0.032993
    62  H    0.035032
    63  H    0.051367
    64  H    0.081594
    65  H    0.047471
    66  H    0.007529
    67  H    0.040087
    68  H    0.014204
    69  H   -0.012274
    70  H   -0.027194
    71  H    0.040839
    72  H    0.149036
    73  H    0.049389
    74  H    0.074686
    75  H    0.080286
    76  H    0.051857
    77  H    0.219345
    78  H    0.035640
    79  H    0.035345
 Sum of Mulliken charges =   0.00000

 Dipole moment (field-independent basis, Debye):
    X=              0.2398    Y=              2.6854    Z=              3.2236  Tot=              4.2025
 Quadrupole moment (field-independent basis, Debye-Ang):
   XX=           -224.2735   YY=           -246.8341   ZZ=           -268.9214
   XY=            -21.4360   XZ=             32.9851   YZ=              0.7910

 Normal termination of Gaussian 09 at Tue Jul  9 05:22:26 2019.
