 Gaussian 09, Revision D.01,
 Gaussian 09:  ES64L-G09RevD.01 24-Apr-2013

 --------------------------
 # td=(NStates=1) B3LYP/SVP
 --------------------------

 --
 TD
 --
 Symbolic Z-matrix:
 Charge =  0 Multiplicity = 1

                         Standard orientation:
 ---------------------------------------------------------------------
 Center     Atomic      Atomic             Coordinates (Angstroms)
 Number     Number       Type             X           Y           Z
 ---------------------------------------------------------------------
      1          8           0        5.377221   -0.272852   -3.395178
      2          8           0       -2.812833   -3.033214    3.397203
      3          8           0       -3.161261   -0.844990    3.233903
      4          8           0       -1.807756    7.420496    1.331145
      5          8           0       -0.475410    6.829608   -0.453306
      6          8           0       -1.892045   -4.011554   -0.044729
      7          7           0        2.298976    0.892406    0.478559
      8          7           0        4.384678   -0.740756   -1.321174
      9          7           0       -1.867283    0.561348   -0.425331
     10          7           0       -2.618100   -1.876212   -0.459178
     11          6           0        4.782897   -1.181765   -0.057880
     12          6           0        4.481947   -0.258333    1.130694
     13          6           0        3.021265    0.106743    1.275794
     14          6           0        2.079537   -0.568508    2.081656
     15          6           0        0.888385   -0.011533    1.831619
     16          6           0        0.925581    0.853593    0.697880
     17          6           0        6.352926   -1.389946   -0.131208
     18          6           0       -0.465862   -0.285410    2.595570
     19          6           0        6.680856   -0.929825   -1.445446
     20          6           0        0.109294    1.851269    0.181762
     21          6           0       -1.177595    1.810096   -0.243758
     22          6           0        5.442269   -0.508175   -2.183027
     23          6           0       -1.977888    2.902762   -0.770637
     24          6           0        2.356085   -1.563148    3.164693
     25          6           0        7.019407   -1.928527    0.959540
     26          6           0       -3.113418    2.341958   -1.200978
     27          6           0       -0.978027   -1.743772    2.557264
     28          6           0       -3.051560    0.883505   -1.068984
     29          6           0       -1.578962    4.302180   -0.868366
     30          6           0        7.980977   -0.612348   -1.970125
     31          6           0       -1.983749    5.125819    0.376451
     32          6           0       -4.252623    2.978248   -1.893374
     33          6           0       -4.095027   -0.099112   -1.243314
     34          6           0       -2.412104   -1.756105    3.006177
     35          6           0       -3.759730   -1.436785   -0.943057
     36          6           0        9.170153   -0.520559   -1.502740
     37          6           0       -1.345158    6.561653    0.361275
     38          6           0       -4.778118   -2.589019   -1.315088
     39          6           0       -4.038864   -3.708902   -1.137790
     40          6           0       -2.761345   -3.262115   -0.524840
     41          6           0       -5.990136   -2.339457   -2.090846
     42          6           0       -4.316353   -5.146041   -1.321373
     43          6           0       -6.748660   -3.316045   -2.611874
     44          1           0        4.434735   -2.172889    0.276814
     45          1           0        4.788687    0.911642    0.811334
     46          1           0        4.731451   -0.594698    2.056241
     47          1           0        2.601295    1.547383   -0.242771
     48          1           0        3.535808   -0.872365   -1.744392
     49          1           0       -0.329279    0.205486    3.474692
     50          1           0       -1.257112    0.358807    2.285167
     51          1           0        0.787575    2.777465    0.192971
     52          1           0        3.423222   -1.465807    3.758396
     53          1           0        1.869959   -1.429057    3.959518
     54          1           0        2.390221   -2.678802    2.785778
     55          1           0        6.574252   -2.967125    1.309125
     56          1           0        7.060798   -1.129950    1.761946
     57          1           0        8.145991   -2.106905    0.579635
     58          1           0       -0.955777   -2.287645    1.603266
     59          1           0       -0.400849   -2.456317    3.178528
     60          1           0       -1.751440   -0.328599   -0.072609
     61          1           0       -2.222276    4.818316   -1.691487
     62          1           0       -0.425522    4.517385   -0.939342
     63          1           0        7.983645   -0.431226   -3.035242
     64          1           0       -1.601765    4.591421    1.179246
     65          1           0       -3.068589    5.140630    0.507096
     66          1           0       -4.103242    4.029378   -2.029312
     67          1           0       -5.259936    2.869670   -1.259858
     68          1           0       -4.283613    2.489933   -3.041288
     69          1           0       -4.809239    0.180050   -1.767227
     70          1           0        9.274746   -0.600502   -0.408585
     71          1           0       10.078675   -0.536089   -1.965591
     72          1           0       -3.637118   -2.902019    3.900683
     73          1           0       -6.369910   -1.417877   -2.342147
     74          1           0       -4.655367   -5.419954   -2.429174
     75          1           0       -3.518425   -5.843073   -0.741907
     76          1           0       -5.110321   -5.357314   -0.709461
     77          1           0       -1.485172    8.262466    1.315757
     78          1           0       -7.859288   -3.236592   -2.767647
     79          1           0       -6.586471   -4.397069   -2.384607
 ---------------------------------------------------------------------

 SCF Done:  E(RB3LYP) =  -1947.81819919     A.U. after   16 cycles

 Excitation energies and oscillator strengths:

 Excited State   1:      Singlet-A      2.2223 eV  557.90 nm  f=0.5091  <S**2>=0.000
     155 ->156         0.70042
 This state for optimization and/or second-order correction.
 Total Energy, E(TD-HF/TD-KS) =  -1947.73653024
 Copying the excited state density for this state as the 1-particle RhoCI density.

 The electronic state is 1-A.
 Alpha  occ. eigenvalues --  -19.19136 -19.15165 -19.14237 -19.11618 -19.10423
 Alpha  occ. eigenvalues --  -19.09553 -14.38745 -14.36022 -14.35738 -14.29197
 Alpha  occ. eigenvalues --  -10.34164 -10.30453 -10.28996 -10.25977 -10.25298
 Alpha  occ. eigenvalues --  -10.24730 -10.24506 -10.23210 -10.23120 -10.22974
 Alpha  occ. eigenvalues --  -10.22876 -10.22590 -10.22094 -10.21991 -10.21973
 Alpha  occ. eigenvalues --  -10.21860 -10.21524 -10.21180 -10.21061 -10.20606
 Alpha  occ. eigenvalues --  -10.20210 -10.20013 -10.19933 -10.19542 -10.19222
 Alpha  occ. eigenvalues --  -10.19186 -10.19123 -10.18823 -10.18642 -10.18210
 Alpha  occ. eigenvalues --  -10.18207 -10.17956 -10.17390  -1.10287  -1.07298
 Alpha  occ. eigenvalues --   -1.02228  -1.02224  -1.00019  -0.99922  -0.98194
 Alpha  occ. eigenvalues --   -0.97369  -0.95181  -0.91814  -0.84122  -0.83309
 Alpha  occ. eigenvalues --   -0.82214  -0.81572  -0.80874  -0.79936  -0.78695
 Alpha  occ. eigenvalues --   -0.78016  -0.76633  -0.76431  -0.75221  -0.72822
 Alpha  occ. eigenvalues --   -0.72541  -0.71665  -0.69996  -0.69405  -0.68893
 Alpha  occ. eigenvalues --   -0.67349  -0.66523  -0.64399  -0.62452  -0.61900
 Alpha  occ. eigenvalues --   -0.60307  -0.58848  -0.58450  -0.57839  -0.57207
 Alpha  occ. eigenvalues --   -0.57113  -0.55998  -0.55624  -0.54901  -0.54172
 Alpha  occ. eigenvalues --   -0.52788  -0.52265  -0.51466  -0.50792  -0.50393
 Alpha  occ. eigenvalues --   -0.49092  -0.48798  -0.48652  -0.48531  -0.47954
 Alpha  occ. eigenvalues --   -0.47824  -0.46931  -0.46600  -0.46075  -0.45595
 Alpha  occ. eigenvalues --   -0.45140  -0.45042  -0.44694  -0.44336  -0.44069
 Alpha  occ. eigenvalues --   -0.43870  -0.43734  -0.43528  -0.43357  -0.43052
 Alpha  occ. eigenvalues --   -0.42898  -0.42422  -0.42063  -0.41679  -0.41177
 Alpha  occ. eigenvalues --   -0.40711  -0.40593  -0.40313  -0.40024  -0.39823
 Alpha  occ. eigenvalues --   -0.39368  -0.39326  -0.39042  -0.38682  -0.38027
 Alpha  occ. eigenvalues --   -0.37686  -0.37415  -0.37045  -0.37033  -0.36788
 Alpha  occ. eigenvalues --   -0.36063  -0.35816  -0.35431  -0.34144  -0.33941
 Alpha  occ. eigenvalues --   -0.33776  -0.33203  -0.32337  -0.31990  -0.31485
 Alpha  occ. eigenvalues --   -0.31029  -0.30357  -0.29478  -0.28762  -0.27530
 Alpha  occ. eigenvalues --   -0.27201  -0.26976  -0.26404  -0.25995  -0.25572
 Alpha  occ. eigenvalues --   -0.24174  -0.23781  -0.23319  -0.22559  -0.19069
 Alpha virt. eigenvalues --   -0.10215  -0.06746  -0.06234  -0.01515  -0.01075
 Alpha virt. eigenvalues --    0.00567   0.01148   0.01406   0.02631   0.03008
 Alpha virt. eigenvalues --    0.03753   0.04230   0.04405   0.05283   0.05567

 Mulliken charges:
               1
     1  O   -0.239252
     2  O   -0.226101
     3  O   -0.224845
     4  O   -0.163075
     5  O   -0.225059
     6  O   -0.229709
     7  N   -0.050106
     8  N   -0.115499
     9  N   -0.070955
    10  N   -0.246991
    11  C    0.082364
    12  C    0.207948
    13  C   -0.130298
    14  C   -0.106509
    15  C   -0.090585
    16  C    0.011973
    17  C   -0.130275
    18  C    0.170131
    19  C   -0.022275
    20  C   -0.166775
    21  C    0.163675
    22  C    0.151778
    23  C    0.001573
    24  C    0.095845
    25  C   -0.005381
    26  C   -0.140328
    27  C    0.037371
    28  C    0.071374
    29  C    0.018307
    30  C   -0.005482
    31  C    0.019988
    32  C    0.033868
    33  C    0.032976
    34  C    0.130859
    35  C    0.079997
    36  C   -0.007361
    37  C    0.168851
    38  C    0.063223
    39  C   -0.178212
    40  C    0.146044
    41  C    0.006289
    42  C    0.076235
    43  C   -0.068451
    44  H    0.011909
    45  H    0.016350
    46  H   -0.041753
    47  H    0.110659
    48  H    0.104998
    49  H   -0.033620
    50  H   -0.022306
    51  H    0.013865
    52  H    0.001955
    53  H   -0.040150
    54  H    0.048297
    55  H    0.062270
    56  H    0.065107
    57  H    0.054539
    58  H    0.064270
    59  H    0.024442
    60  H    0.113225
    61  H    0.029293
    62  H    0.052192
    63  H   -0.002696
    64  H    0.014459
    65  H    0.028768
    66  H   -0.004563
    67  H    0.057061
    68  H    0.061475
    69  H   -0.142676
    70  H   -0.012156
    71  H   -0.000256
    72  H    0.170850
    73  H   -0.028285
    74  H    0.056203
    75  H    0.047839
    76  H    0.002935
    77  H    0.153027
    78  H    0.030245
    79  H    0.005085
 Sum of Mulliken charges =   0.00000

 Dipole moment (field-independent basis, Debye):
    X=              0.2738    Y=              3.8175    Z=              4.0334  Tot=              5.5603
 Quadrupole moment (field-independent basis, Debye-Ang):
   XX=           -224.5956   YY=           -238.3356   ZZ=           -263.8998
   XY=            -15.4412   XZ=             33.2269   YZ=              2.1248

 Normal termination of Gaussian 09 at Wed Jul 10 00:42:03 2019.
