 Gaussian 09, Revision D.01,
 Gaussian 09:  ES64L-G09RevD.01 24-Apr-2013

 --------------------------
 # td=(NStates=1) B3LYP/SVP
 --------------------------

 --
 TD
 --
 Symbolic Z-matrix:
 Charge =  0 Multiplicity = 1

                         Standard orientation:
 ---------------------------------------------------------------------
 Center     Atomic      Atomic             Coordinates (Angstroms)
 Number     Number       Type             X           Y           Z
 ---------------------------------------------------------------------
      1          8           0        5.436772    0.023641   -3.271939
      2          8           0       -2.989594   -3.261335    3.104579
      3          8           0       -3.210559   -1.048535    3.351304
      4          8           0       -1.536166    7.203947    1.652594
      5          8           0       -0.392776    6.960295   -0.317029
      6          8           0       -2.144296   -3.976327   -0.116119
      7          7           0        2.412844    0.906454    0.682729
      8          7           0        4.399214   -0.637538   -1.240658
      9          7           0       -1.946912    0.743737   -0.339059
     10          7           0       -2.801543   -1.753008   -0.400210
     11          6           0        4.854800   -1.284143   -0.026184
     12          6           0        4.426120   -0.338254    1.197087
     13          6           0        2.977914   -0.156268    1.318560
     14          6           0        2.095908   -0.799292    2.030014
     15          6           0        0.814845   -0.206877    1.746203
     16          6           0        1.044487    0.861772    0.886049
     17          6           0        6.346726   -1.379311   -0.120686
     18          6           0       -0.573674   -0.474077    2.458519
     19          6           0        6.696448   -0.872156   -1.336829
     20          6           0        0.266322    1.874890    0.217169
     21          6           0       -1.073115    1.831259   -0.180300
     22          6           0        5.451940   -0.357174   -2.091326
     23          6           0       -1.859075    2.945543   -0.854286
     24          6           0        2.288962   -1.858251    3.063517
     25          6           0        7.343494   -2.024641    0.809580
     26          6           0       -2.998903    2.465886   -1.216150
     27          6           0       -1.135453   -1.954181    2.344605
     28          6           0       -3.122457    1.073562   -0.972177
     29          6           0       -1.342755    4.357823   -0.854553
     30          6           0        7.967803   -0.770808   -2.063890
     31          6           0       -1.595939    5.060858    0.538386
     32          6           0       -4.278116    3.103204   -1.828705
     33          6           0       -4.079267    0.162017   -1.199775
     34          6           0       -2.583336   -1.984744    2.901297
     35          6           0       -3.835251   -1.260990   -1.006633
     36          6           0        9.230428   -0.886577   -1.655975
     37          6           0       -1.077454    6.541105    0.611376
     38          6           0       -4.825372   -2.408947   -1.486096
     39          6           0       -4.234018   -3.475973   -1.187735
     40          6           0       -2.871619   -3.180720   -0.537721
     41          6           0       -6.068877   -2.073395   -2.097631
     42          6           0       -4.656009   -4.984366   -1.383076
     43          6           0       -6.939347   -2.935739   -2.676065
     44          1           0        4.454534   -2.462916   -0.018715
     45          1           0        5.083094    0.550735    1.037445
     46          1           0        4.730096   -0.924492    1.998468
     47          1           0        2.969541    1.415767   -0.153893
     48          1           0        3.397118   -0.669377   -1.521468
     49          1           0       -0.441716   -0.323652    3.438612
     50          1           0       -1.520930    0.209234    2.202338
     51          1           0        0.611231    2.886168   -0.292343
     52          1           0        3.348817   -2.012253    3.135333
     53          1           0        2.155957   -1.471978    4.050696
     54          1           0        1.784484   -2.772677    2.685354
     55          1           0        6.780829   -2.833792    1.527720
     56          1           0        7.948601   -1.331725    1.442665
     57          1           0        8.291773   -2.224665    0.161409
     58          1           0       -1.187550   -2.315235    1.271912
     59          1           0       -0.279935   -2.696882    2.762432
     60          1           0       -1.724844   -0.187452   -0.104611
     61          1           0       -1.866701    4.691301   -1.750851
     62          1           0       -0.275984    4.205194   -1.123734
     63          1           0        7.784644   -0.468192   -3.187196
     64          1           0       -1.341046    4.299673    1.271685
     65          1           0       -2.767739    4.923592    0.654514
     66          1           0       -4.073745    4.162081   -2.097796
     67          1           0       -5.106390    3.185928   -1.104569
     68          1           0       -4.727519    2.433541   -2.538553
     69          1           0       -4.982405    0.388943   -1.785941
     70          1           0        9.467156   -1.160110   -0.658144
     71          1           0       10.036770   -0.694882   -2.166080
     72          1           0       -3.929388   -3.112571    3.316548
     73          1           0       -6.240678   -0.779669   -2.056920
     74          1           0       -4.577428   -5.279730   -2.391588
     75          1           0       -3.839184   -5.728928   -1.007998
     76          1           0       -5.568060   -5.306485   -1.007608
     77          1           0       -1.338730    8.067704    1.413631
     78          1           0       -7.879144   -2.332962   -2.989169
     79          1           0       -6.864759   -4.026458   -2.639749
 ---------------------------------------------------------------------

 SCF Done:  E(RB3LYP) =  -1947.84829095     A.U. after   15 cycles

 Excitation energies and oscillator strengths:

 Excited State   1:      Singlet-A      2.2851 eV  542.58 nm  f=0.4709  <S**2>=0.000
     155 ->156         0.70405
 This state for optimization and/or second-order correction.
 Total Energy, E(TD-HF/TD-KS) =  -1947.76431516
 Copying the excited state density for this state as the 1-particle RhoCI density.

 The electronic state is 1-A.
 Alpha  occ. eigenvalues --  -19.20784 -19.16863 -19.13947 -19.12336 -19.11951
 Alpha  occ. eigenvalues --  -19.10356 -14.37787 -14.36514 -14.35343 -14.29899
 Alpha  occ. eigenvalues --  -10.34050 -10.31108 -10.29094 -10.27578 -10.26402
 Alpha  occ. eigenvalues --  -10.24145 -10.23952 -10.23780 -10.22868 -10.22743
 Alpha  occ. eigenvalues --  -10.22434 -10.22282 -10.22234 -10.21991 -10.21378
 Alpha  occ. eigenvalues --  -10.21239 -10.20895 -10.20680 -10.20438 -10.20413
 Alpha  occ. eigenvalues --  -10.20235 -10.20193 -10.19699 -10.19661 -10.19303
 Alpha  occ. eigenvalues --  -10.19294 -10.19168 -10.19052 -10.18948 -10.18912
 Alpha  occ. eigenvalues --  -10.18798 -10.18226 -10.17998  -1.13505  -1.08711
 Alpha  occ. eigenvalues --   -1.06164  -1.02265  -1.01463  -0.99270  -0.98585
 Alpha  occ. eigenvalues --   -0.97816  -0.94381  -0.93185  -0.82969  -0.82251
 Alpha  occ. eigenvalues --   -0.81665  -0.81355  -0.80583  -0.79453  -0.77000
 Alpha  occ. eigenvalues --   -0.76901  -0.75400  -0.75114  -0.74516  -0.71938
 Alpha  occ. eigenvalues --   -0.71261  -0.71196  -0.69807  -0.69435  -0.68926
 Alpha  occ. eigenvalues --   -0.66227  -0.65873  -0.64391  -0.62507  -0.62002
 Alpha  occ. eigenvalues --   -0.60527  -0.59133  -0.57662  -0.57537  -0.56994
 Alpha  occ. eigenvalues --   -0.55786  -0.55306  -0.54556  -0.54203  -0.53548
 Alpha  occ. eigenvalues --   -0.52266  -0.51500  -0.51478  -0.50910  -0.50635
 Alpha  occ. eigenvalues --   -0.49411  -0.48597  -0.48263  -0.47997  -0.47526
 Alpha  occ. eigenvalues --   -0.47430  -0.47149  -0.46732  -0.46330  -0.45862
 Alpha  occ. eigenvalues --   -0.45406  -0.44617  -0.44441  -0.44414  -0.44154
 Alpha  occ. eigenvalues --   -0.43721  -0.43477  -0.42895  -0.42434  -0.42285
 Alpha  occ. eigenvalues --   -0.42140  -0.42013  -0.41832  -0.41546  -0.40997
 Alpha  occ. eigenvalues --   -0.40689  -0.40467  -0.40361  -0.39999  -0.39865
 Alpha  occ. eigenvalues --   -0.39593  -0.39064  -0.38934  -0.38667  -0.38309
 Alpha  occ. eigenvalues --   -0.37915  -0.37678  -0.36988  -0.36817  -0.36564
 Alpha  occ. eigenvalues --   -0.36078  -0.35500  -0.35258  -0.34947  -0.34448
 Alpha  occ. eigenvalues --   -0.34078  -0.33742  -0.33535  -0.32369  -0.31615
 Alpha  occ. eigenvalues --   -0.31404  -0.31124  -0.29619  -0.29413  -0.28673
 Alpha  occ. eigenvalues --   -0.27355  -0.26955  -0.26602  -0.25659  -0.25012
 Alpha  occ. eigenvalues --   -0.24809  -0.24624  -0.24244  -0.23683  -0.18930
 Alpha virt. eigenvalues --   -0.09856  -0.05849  -0.05536  -0.01533  -0.00664
 Alpha virt. eigenvalues --    0.00494   0.00818   0.02311   0.02645   0.02968
 Alpha virt. eigenvalues --    0.03236   0.04488   0.04514   0.05124   0.05646

 Mulliken charges:
               1
     1  O   -0.243390
     2  O   -0.175676
     3  O   -0.238314
     4  O   -0.093594
     5  O   -0.235478
     6  O   -0.120068
     7  N   -0.124154
     8  N   -0.210217
     9  N   -0.078598
    10  N   -0.275771
    11  C   -0.010610
    12  C    0.240796
    13  C   -0.075753
    14  C   -0.160883
    15  C   -0.095247
    16  C    0.114855
    17  C   -0.144663
    18  C    0.082674
    19  C   -0.078327
    20  C   -0.080017
    21  C    0.016218
    22  C    0.181910
    23  C   -0.208768
    24  C    0.177904
    25  C    0.032179
    26  C   -0.088986
    27  C   -0.098004
    28  C    0.142331
    29  C    0.127854
    30  C   -0.025253
    31  C   -0.024262
    32  C    0.131643
    33  C   -0.107097
    34  C    0.167593
    35  C    0.014949
    36  C    0.042090
    37  C    0.182844
    38  C    0.100756
    39  C   -0.234502
    40  C    0.151019
    41  C   -0.096737
    42  C    0.095095
    43  C   -0.031325
    44  H    0.055804
    45  H    0.005875
    46  H   -0.040349
    47  H    0.162452
    48  H    0.148976
    49  H   -0.028616
    50  H    0.050031
    51  H    0.016849
    52  H   -0.045953
    53  H    0.016212
    54  H    0.052782
    55  H    0.054783
    56  H    0.033997
    57  H    0.042052
    58  H    0.068597
    59  H    0.047598
    60  H    0.117095
    61  H    0.011788
    62  H    0.014133
    63  H    0.043212
    64  H    0.034858
    65  H    0.041921
    66  H    0.013714
    67  H    0.013813
    68  H    0.017434
    69  H   -0.037187
    70  H   -0.018125
    71  H   -0.025332
    72  H    0.166523
    73  H    0.045208
    74  H    0.005782
    75  H    0.023315
    76  H    0.016976
    77  H    0.149621
    78  H    0.043806
    79  H    0.033340
 Sum of Mulliken charges =   0.00000

 Dipole moment (field-independent basis, Debye):
    X=             -0.2452    Y=              1.5898    Z=              2.3589  Tot=              2.8552
 Quadrupole moment (field-independent basis, Debye-Ang):
   XX=           -220.2899   YY=           -239.5231   ZZ=           -269.4541
   XY=            -13.1995   XZ=             34.3166   YZ=              6.7223

 Normal termination of Gaussian 09 at Mon Jul  8 16:37:57 2019.
