 Gaussian 09, Revision D.01,
 Gaussian 09:  ES64L-G09RevD.01 24-Apr-2013

 --------------------------
 # td=(NStates=1) B3LYP/SVP
 --------------------------

 --
 TD
 --
 Symbolic Z-matrix:
 Charge =  0 Multiplicity = 1

                         Standard orientation:
 ---------------------------------------------------------------------
 Center     Atomic      Atomic             Coordinates (Angstroms)
 Number     Number       Type             X           Y           Z
 ---------------------------------------------------------------------
      1          8           0        5.563118   -0.341520   -3.409157
      2          8           0       -2.825245   -3.001920    3.381450
      3          8           0       -3.191882   -0.773500    3.117782
      4          8           0       -1.430417    7.163187    1.389973
      5          8           0       -0.760674    7.015904   -0.847574
      6          8           0       -1.684561   -4.075891   -0.147965
      7          7           0        2.328659    0.904012    0.574194
      8          7           0        4.473586   -0.529858   -1.361442
      9          7           0       -1.944161    0.704648   -0.363236
     10          7           0       -2.583850   -1.931580   -0.507166
     11          6           0        4.836352   -1.065342    0.005603
     12          6           0        4.418869   -0.056264    1.278830
     13          6           0        2.964843    0.042031    1.297242
     14          6           0        2.027178   -0.599001    2.093928
     15          6           0        0.797864    0.068432    1.858567
     16          6           0        0.967897    0.946597    0.739333
     17          6           0        6.363663   -1.269906   -0.162306
     18          6           0       -0.567162   -0.291029    2.565169
     19          6           0        6.820649   -0.840547   -1.395722
     20          6           0        0.153567    1.936411    0.073954
     21          6           0       -1.221348    1.765166   -0.377003
     22          6           0        5.571377   -0.574863   -2.198141
     23          6           0       -2.095695    2.885820   -0.862266
     24          6           0        2.143626   -1.591581    3.157159
     25          6           0        7.280117   -1.754462    1.066370
     26          6           0       -3.269118    2.347171   -1.166786
     27          6           0       -0.983132   -1.697385    2.588621
     28          6           0       -3.173343    0.897572   -0.909780
     29          6           0       -1.669664    4.333576   -0.891480
     30          6           0        8.053112   -0.952187   -2.037526
     31          6           0       -1.789489    5.234654    0.327165
     32          6           0       -4.583963    2.902809   -1.675190
     33          6           0       -4.019497   -0.106540   -1.236732
     34          6           0       -2.448189   -1.712376    3.036900
     35          6           0       -3.739196   -1.485118   -1.047194
     36          6           0        9.250412   -0.861794   -1.468877
     37          6           0       -1.326297    6.582728    0.165455
     38          6           0       -4.760548   -2.641692   -1.349518
     39          6           0       -4.059407   -3.709690   -0.997115
     40          6           0       -2.664534   -3.355140   -0.452419
     41          6           0       -6.066084   -2.521899   -1.946924
     42          6           0       -4.444335   -5.182682   -1.270370
     43          6           0       -6.817086   -3.449586   -2.647728
     44          1           0        4.559073   -2.007234    0.309969
     45          1           0        4.874189    0.923168    1.104223
     46          1           0        4.549115   -0.433898    2.321934
     47          1           0        2.847849    1.435300   -0.125234
     48          1           0        3.605092   -0.497113   -1.743896
     49          1           0       -0.422821    0.111157    3.633858
     50          1           0       -1.367972    0.649615    2.468600
     51          1           0        0.605637    2.780516   -0.122512
     52          1           0        3.178648   -1.260255    3.931349
     53          1           0        1.262381   -1.469075    3.944655
     54          1           0        2.147386   -2.678029    2.846264
     55          1           0        6.761758   -2.584079    1.465066
     56          1           0        7.289063   -0.769881    1.676637
     57          1           0        8.358694   -2.054114    0.693342
     58          1           0       -1.012623   -2.179822    1.553220
     59          1           0       -0.323612   -2.486388    3.094493
     60          1           0       -1.693078   -0.145384    0.046836
     61          1           0       -2.500980    4.903954   -1.681736
     62          1           0       -0.752469    4.455357   -1.419783
     63          1           0        7.854680   -1.137922   -3.064132
     64          1           0       -1.206700    4.991199    1.264786
     65          1           0       -2.799604    5.260354    0.683723
     66          1           0       -4.539678    3.905426   -1.843733
     67          1           0       -5.327643    2.927516   -0.789221
     68          1           0       -5.129900    2.328036   -2.528514
     69          1           0       -5.001299    0.141584   -1.618517
     70          1           0        9.369742   -0.673861   -0.253026
     71          1           0       10.070000   -0.878636   -2.258497
     72          1           0       -3.728497   -3.051600    3.600547
     73          1           0       -6.259203   -1.455637   -1.801325
     74          1           0       -4.374971   -5.304473   -2.315496
     75          1           0       -3.461957   -5.948881   -1.014795
     76          1           0       -5.255568   -5.524820   -0.774904
     77          1           0       -0.963979    8.046621    1.469784
     78          1           0       -7.762511   -3.080337   -2.996514
     79          1           0       -6.439224   -4.502295   -2.997298
 ---------------------------------------------------------------------

 SCF Done:  E(RB3LYP) =  -1947.83359037     A.U. after   16 cycles

 Excitation energies and oscillator strengths:

 Excited State   1:      Singlet-A      2.0403 eV  607.68 nm  f=0.4900  <S**2>=0.000
     155 ->156         0.70079
     155 <-156        -0.12374
 This state for optimization and/or second-order correction.
 Total Energy, E(TD-HF/TD-KS) =  -1947.75861147
 Copying the excited state density for this state as the 1-particle RhoCI density.

 The electronic state is 1-A.
 Alpha  occ. eigenvalues --  -19.19530 -19.16160 -19.13492 -19.12301 -19.10906
 Alpha  occ. eigenvalues --  -19.09991 -14.38389 -14.36893 -14.36133 -14.29516
 Alpha  occ. eigenvalues --  -10.32891 -10.31370 -10.28545 -10.27215 -10.26212
 Alpha  occ. eigenvalues --  -10.24578 -10.24407 -10.24056 -10.22713 -10.22679
 Alpha  occ. eigenvalues --  -10.22589 -10.22290 -10.22212 -10.22211 -10.22049
 Alpha  occ. eigenvalues --  -10.21308 -10.21109 -10.21098 -10.21096 -10.20993
 Alpha  occ. eigenvalues --  -10.20982 -10.20873 -10.20719 -10.20593 -10.19996
 Alpha  occ. eigenvalues --  -10.19822 -10.19692 -10.19503 -10.19390 -10.19094
 Alpha  occ. eigenvalues --  -10.18794 -10.18689 -10.18261  -1.09307  -1.07962
 Alpha  occ. eigenvalues --   -1.01858  -1.01550  -1.01004  -1.00696  -1.00088
 Alpha  occ. eigenvalues --   -0.99555  -0.93245  -0.90838  -0.83316  -0.82452
 Alpha  occ. eigenvalues --   -0.81974  -0.81222  -0.80586  -0.80333  -0.79170
 Alpha  occ. eigenvalues --   -0.77224  -0.76865  -0.75276  -0.74203  -0.72715
 Alpha  occ. eigenvalues --   -0.71207  -0.70622  -0.69926  -0.69483  -0.68780
 Alpha  occ. eigenvalues --   -0.67055  -0.66859  -0.64330  -0.61936  -0.61488
 Alpha  occ. eigenvalues --   -0.61343  -0.59678  -0.59226  -0.58405  -0.58044
 Alpha  occ. eigenvalues --   -0.55916  -0.55820  -0.55437  -0.54393  -0.52696
 Alpha  occ. eigenvalues --   -0.52224  -0.51339  -0.51006  -0.50566  -0.49948
 Alpha  occ. eigenvalues --   -0.49409  -0.49009  -0.48836  -0.48262  -0.47626
 Alpha  occ. eigenvalues --   -0.47019  -0.46950  -0.46727  -0.45837  -0.45751
 Alpha  occ. eigenvalues --   -0.45250  -0.44831  -0.44727  -0.44484  -0.44029
 Alpha  occ. eigenvalues --   -0.43876  -0.43495  -0.43016  -0.42551  -0.42116
 Alpha  occ. eigenvalues --   -0.41896  -0.41687  -0.41531  -0.41338  -0.40893
 Alpha  occ. eigenvalues --   -0.40804  -0.40495  -0.40363  -0.40093  -0.40021
 Alpha  occ. eigenvalues --   -0.39977  -0.39370  -0.39181  -0.38941  -0.38429
 Alpha  occ. eigenvalues --   -0.38234  -0.37822  -0.37426  -0.37008  -0.36699
 Alpha  occ. eigenvalues --   -0.35363  -0.35337  -0.34658  -0.33978  -0.33736
 Alpha  occ. eigenvalues --   -0.33542  -0.33272  -0.33006  -0.31674  -0.31648
 Alpha  occ. eigenvalues --   -0.31272  -0.30639  -0.28787  -0.28326  -0.27636
 Alpha  occ. eigenvalues --   -0.27389  -0.27302  -0.26742  -0.25406  -0.24778
 Alpha  occ. eigenvalues --   -0.24310  -0.24157  -0.23604  -0.22687  -0.18537
 Alpha virt. eigenvalues --   -0.10778  -0.06214  -0.05415  -0.01509  -0.01206
 Alpha virt. eigenvalues --    0.01073   0.01340   0.01863   0.02684   0.02784
 Alpha virt. eigenvalues --    0.03409   0.03908   0.04435   0.04611   0.05084

 Mulliken charges:
               1
     1  O   -0.240672
     2  O   -0.192701
     3  O   -0.210198
     4  O   -0.223116
     5  O   -0.243425
     6  O   -0.230579
     7  N    0.017928
     8  N   -0.171895
     9  N    0.083605
    10  N   -0.289330
    11  C    0.186926
    12  C    0.179421
    13  C   -0.158734
    14  C   -0.083021
    15  C   -0.072276
    16  C    0.053191
    17  C   -0.234499
    18  C   -0.034189
    19  C   -0.036436
    20  C   -0.032454
    21  C   -0.000943
    22  C    0.134765
    23  C   -0.067269
    24  C   -0.054282
    25  C    0.043415
    26  C   -0.102311
    27  C    0.004455
    28  C    0.092107
    29  C    0.033998
    30  C   -0.003350
    31  C    0.032499
    32  C    0.123182
    33  C   -0.102433
    34  C    0.136440
    35  C    0.072352
    36  C   -0.064865
    37  C    0.154655
    38  C    0.027927
    39  C   -0.235721
    40  C    0.202149
    41  C   -0.004313
    42  C    0.080350
    43  C   -0.028687
    44  H   -0.000402
    45  H   -0.003106
    46  H    0.015532
    47  H    0.105919
    48  H    0.099535
    49  H    0.007221
    50  H    0.053885
    51  H   -0.080775
    52  H    0.023165
    53  H    0.048025
    54  H    0.054791
    55  H    0.022016
    56  H    0.064996
    57  H    0.059509
    58  H    0.083329
    59  H    0.042389
    60  H    0.126052
    61  H    0.030967
    62  H    0.019337
    63  H    0.002953
    64  H    0.045644
    65  H    0.024635
    66  H   -0.032975
    67  H    0.027624
    68  H    0.054642
    69  H   -0.036899
    70  H    0.057044
    71  H    0.041222
    72  H    0.155273
    73  H   -0.009557
    74  H    0.023688
    75  H    0.031897
    76  H    0.013760
    77  H    0.202688
    78  H    0.023823
    79  H    0.060485
 Sum of Mulliken charges =   0.00000

 Dipole moment (field-independent basis, Debye):
    X=             -0.8710    Y=              3.3351    Z=              4.2345  Tot=              5.4601
 Quadrupole moment (field-independent basis, Debye-Ang):
   XX=           -225.3855   YY=           -245.0149   ZZ=           -265.3977
   XY=             -5.4709   XZ=             32.4785   YZ=             11.6052

 Normal termination of Gaussian 09 at Tue Jul  9 03:29:23 2019.
