 Gaussian 09, Revision D.01,
 Gaussian 09:  ES64L-G09RevD.01 24-Apr-2013

 --------------------------
 # td=(NStates=1) B3LYP/SVP
 --------------------------

 --
 TD
 --
 Symbolic Z-matrix:
 Charge =  0 Multiplicity = 1

                         Standard orientation:
 ---------------------------------------------------------------------
 Center     Atomic      Atomic             Coordinates (Angstroms)
 Number     Number       Type             X           Y           Z
 ---------------------------------------------------------------------
      1          8           0        5.393131    0.023745   -3.326200
      2          8           0       -2.819558   -3.166533    3.208601
      3          8           0       -3.189864   -0.991910    3.261815
      4          8           0       -1.691369    7.240054    1.467226
      5          8           0       -0.530732    6.876231   -0.470779
      6          8           0       -2.000046   -4.103130   -0.123644
      7          7           0        2.376631    0.968398    0.550887
      8          7           0        4.430930   -0.566174   -1.263997
      9          7           0       -1.894371    0.724305   -0.254273
     10          7           0       -2.824258   -1.868566   -0.391059
     11          6           0        4.878426   -1.189482   -0.094878
     12          6           0        4.526161   -0.275998    1.132332
     13          6           0        3.026021    0.043663    1.376812
     14          6           0        2.076297   -0.685504    2.160867
     15          6           0        0.827139   -0.044128    1.865212
     16          6           0        1.009995    0.904861    0.814621
     17          6           0        6.390462   -1.263990   -0.218180
     18          6           0       -0.472583   -0.310690    2.552929
     19          6           0        6.780059   -0.911373   -1.472892
     20          6           0        0.294163    1.797791    0.148288
     21          6           0       -1.176589    1.903476   -0.165960
     22          6           0        5.502094   -0.391950   -2.185368
     23          6           0       -1.924779    2.849759   -0.791802
     24          6           0        2.418483   -1.724057    3.247209
     25          6           0        7.236189   -1.899956    0.795205
     26          6           0       -3.150979    2.381446   -1.233176
     27          6           0       -1.000239   -1.738561    2.500043
     28          6           0       -3.200223    0.954677   -1.001986
     29          6           0       -1.506690    4.329855   -0.900660
     30          6           0        8.067162   -0.828794   -2.110367
     31          6           0       -1.768948    5.084986    0.497970
     32          6           0       -4.255306    3.077986   -1.770733
     33          6           0       -4.101848   -0.003843   -1.335182
     34          6           0       -2.474302   -1.907762    3.044385
     35          6           0       -3.849498   -1.451611   -1.034449
     36          6           0        9.255325   -1.014260   -1.563730
     37          6           0       -1.202485    6.558860    0.399651
     38          6           0       -4.820723   -2.506787   -1.487708
     39          6           0       -4.107493   -3.681040   -1.188734
     40          6           0       -2.864877   -3.204724   -0.457874
     41          6           0       -6.079148   -2.213628   -2.125681
     42          6           0       -4.647448   -5.044204   -1.401959
     43          6           0       -7.118174   -3.101097   -2.468723
     44          1           0        4.368918   -2.251049   -0.007880
     45          1           0        5.153323    0.585852    0.980245
     46          1           0        4.808615   -0.583246    2.043911
     47          1           0        2.870880    1.454426   -0.035358
     48          1           0        3.521400   -0.754524   -1.641950
     49          1           0       -0.332375   -0.027493    3.662534
     50          1           0       -1.268595    0.420621    2.066011
     51          1           0        0.658151    2.840498   -0.391551
     52          1           0        3.602412   -1.445876    3.739254
     53          1           0        1.570135   -1.694102    4.073713
     54          1           0        2.315475   -2.863806    2.992459
     55          1           0        6.633977   -2.705998    1.380293
     56          1           0        7.855197   -1.192233    1.540208
     57          1           0        7.990193   -2.490914    0.366639
     58          1           0       -1.064731   -2.368020    1.557503
     59          1           0       -0.388263   -2.447816    3.005760
     60          1           0       -1.633908   -0.168645   -0.057792
     61          1           0       -2.160563    4.805614   -1.615134
     62          1           0       -0.499514    4.500379   -1.133744
     63          1           0        7.925439   -0.628605   -3.280076
     64          1           0       -1.301666    4.526128    1.476052
     65          1           0       -2.896962    5.115638    0.687245
     66          1           0       -4.027730    4.000839   -2.004808
     67          1           0       -5.130668    3.132650   -0.983812
     68          1           0       -4.531100    2.503663   -2.723013
     69          1           0       -5.117936    0.343979   -1.846774
     70          1           0        9.697451   -1.180849   -0.469247
     71          1           0       10.256251   -0.929789   -2.004668
     72          1           0       -3.742914   -2.982131    3.562991
     73          1           0       -6.259112   -1.149366   -2.460773
     74          1           0       -5.125408   -5.352626   -2.436947
     75          1           0       -3.533541   -5.751409   -1.431168
     76          1           0       -5.299140   -5.341029   -0.395812
     77          1           0       -1.306109    8.194738    1.436279
     78          1           0       -7.910487   -2.662421   -3.075055
     79          1           0       -7.005965   -4.250015   -2.355474
 ---------------------------------------------------------------------

 SCF Done:  E(RB3LYP) =  -1947.80658764     A.U. after   20 cycles

 Excitation energies and oscillator strengths:

 Excited State   1:      Singlet-A      1.8432 eV  672.64 nm  f=0.5562  <S**2>=0.000
     155 ->156         0.71690
     155 <-156        -0.18184
 This state for optimization and/or second-order correction.
 Total Energy, E(TD-HF/TD-KS) =  -1947.73884956
 Copying the excited state density for this state as the 1-particle RhoCI density.

 The electronic state is 1-A.
 Alpha  occ. eigenvalues --  -19.19435 -19.17553 -19.14435 -19.11591 -19.11037
 Alpha  occ. eigenvalues --  -19.09664 -14.38110 -14.35810 -14.34516 -14.29324
 Alpha  occ. eigenvalues --  -10.32512 -10.30125 -10.29888 -10.26458 -10.26016
 Alpha  occ. eigenvalues --  -10.24827 -10.23970 -10.23942 -10.23666 -10.23658
 Alpha  occ. eigenvalues --  -10.23613 -10.23110 -10.22687 -10.21920 -10.21878
 Alpha  occ. eigenvalues --  -10.21813 -10.21446 -10.21352 -10.21295 -10.21263
 Alpha  occ. eigenvalues --  -10.21191 -10.21109 -10.20623 -10.20592 -10.20124
 Alpha  occ. eigenvalues --  -10.20028 -10.19918 -10.19655 -10.19489 -10.19444
 Alpha  occ. eigenvalues --  -10.19274 -10.19192 -10.18767  -1.11480  -1.10349
 Alpha  occ. eigenvalues --   -1.03789  -1.03297  -1.00289  -0.99357  -0.98750
 Alpha  occ. eigenvalues --   -0.95570  -0.95170  -0.92870  -0.83343  -0.82488
 Alpha  occ. eigenvalues --   -0.81997  -0.81263  -0.79420  -0.79385  -0.77762
 Alpha  occ. eigenvalues --   -0.76113  -0.75748  -0.75380  -0.73456  -0.72538
 Alpha  occ. eigenvalues --   -0.71958  -0.70774  -0.68828  -0.68060  -0.67305
 Alpha  occ. eigenvalues --   -0.67113  -0.65798  -0.63311  -0.62308  -0.60083
 Alpha  occ. eigenvalues --   -0.59230  -0.58963  -0.58653  -0.58069  -0.57083
 Alpha  occ. eigenvalues --   -0.55497  -0.55019  -0.54742  -0.54307  -0.52792
 Alpha  occ. eigenvalues --   -0.52440  -0.51623  -0.50880  -0.50290  -0.49732
 Alpha  occ. eigenvalues --   -0.49418  -0.48950  -0.48555  -0.47863  -0.47581
 Alpha  occ. eigenvalues --   -0.47507  -0.46621  -0.46308  -0.46037  -0.45808
 Alpha  occ. eigenvalues --   -0.44879  -0.44687  -0.44293  -0.44083  -0.43196
 Alpha  occ. eigenvalues --   -0.43045  -0.42904  -0.42816  -0.42604  -0.42481
 Alpha  occ. eigenvalues --   -0.42078  -0.41766  -0.41303  -0.41056  -0.40739
 Alpha  occ. eigenvalues --   -0.40558  -0.39896  -0.39772  -0.39489  -0.39412
 Alpha  occ. eigenvalues --   -0.39008  -0.38843  -0.38669  -0.38400  -0.38326
 Alpha  occ. eigenvalues --   -0.38186  -0.37716  -0.37430  -0.37018  -0.36625
 Alpha  occ. eigenvalues --   -0.35928  -0.35573  -0.34646  -0.34525  -0.34317
 Alpha  occ. eigenvalues --   -0.33240  -0.33080  -0.32611  -0.32495  -0.31600
 Alpha  occ. eigenvalues --   -0.31458  -0.30314  -0.29401  -0.28490  -0.27533
 Alpha  occ. eigenvalues --   -0.27210  -0.26855  -0.26584  -0.25592  -0.25443
 Alpha  occ. eigenvalues --   -0.24989  -0.24267  -0.23321  -0.21556  -0.17482
 Alpha virt. eigenvalues --   -0.11058  -0.07174  -0.06761  -0.01431  -0.00121
 Alpha virt. eigenvalues --    0.00413   0.01080   0.02021   0.02623   0.03039
 Alpha virt. eigenvalues --    0.03763   0.04154   0.04354   0.04843   0.05128

 Mulliken charges:
               1
     1  O   -0.207573
     2  O   -0.154905
     3  O   -0.216220
     4  O   -0.217719
     5  O   -0.143595
     6  O   -0.283628
     7  N   -0.021135
     8  N   -0.188253
     9  N   -0.138631
    10  N   -0.141852
    11  C    0.051991
    12  C    0.273149
    13  C   -0.117812
    14  C   -0.066932
    15  C   -0.071328
    16  C    0.227858
    17  C   -0.168961
    18  C    0.050040
    19  C   -0.038706
    20  C   -0.175935
    21  C    0.026222
    22  C    0.149681
    23  C   -0.087866
    24  C   -0.052577
    25  C    0.051971
    26  C   -0.128824
    27  C   -0.004923
    28  C    0.150876
    29  C    0.146525
    30  C    0.041575
    31  C   -0.128476
    32  C    0.158273
    33  C   -0.157223
    34  C    0.097537
    35  C    0.017093
    36  C   -0.108295
    37  C    0.145323
    38  C    0.060098
    39  C   -0.146017
    40  C    0.161037
    41  C   -0.072902
    42  C   -0.091030
    43  C   -0.045829
    44  H    0.044361
    45  H   -0.022867
    46  H   -0.054740
    47  H    0.055129
    48  H    0.131264
    49  H    0.028187
    50  H    0.051558
    51  H    0.037626
    52  H    0.058446
    53  H    0.044069
    54  H    0.060660
    55  H    0.027554
    56  H    0.056086
    57  H    0.015347
    58  H    0.056165
    59  H   -0.017184
    60  H    0.093302
    61  H   -0.001363
    62  H    0.003706
    63  H    0.054270
    64  H    0.067847
    65  H    0.041885
    66  H   -0.059458
    67  H    0.048695
    68  H    0.036264
    69  H    0.024385
    70  H    0.031966
    71  H    0.022278
    72  H    0.176670
    73  H    0.005942
    74  H    0.063930
    75  H    0.051277
    76  H    0.070420
    77  H    0.198696
    78  H    0.022076
    79  H    0.043453
 Sum of Mulliken charges =   0.00000

 Dipole moment (field-independent basis, Debye):
    X=              3.2890    Y=              3.4423    Z=              3.1530  Tot=              5.7104
 Quadrupole moment (field-independent basis, Debye-Ang):
   XX=           -215.5106   YY=           -243.0251   ZZ=           -261.8801
   XY=            -18.0536   XZ=             30.6653   YZ=              2.7774

 Normal termination of Gaussian 09 at Wed Jul 10 05:51:15 2019.
