 Gaussian 09, Revision D.01,
 Gaussian 09:  ES64L-G09RevD.01 24-Apr-2013

 --------------------------
 # td=(NStates=1) B3LYP/SVP
 --------------------------

 --
 TD
 --
 Symbolic Z-matrix:
 Charge =  0 Multiplicity = 1

                         Standard orientation:
 ---------------------------------------------------------------------
 Center     Atomic      Atomic             Coordinates (Angstroms)
 Number     Number       Type             X           Y           Z
 ---------------------------------------------------------------------
      1          8           0        5.422133   -0.009111   -3.330124
      2          8           0       -2.889335   -3.196590    3.249708
      3          8           0       -3.148423   -0.896273    3.361796
      4          8           0       -1.213445    7.017203    1.664493
      5          8           0       -0.484956    6.859203   -0.512666
      6          8           0       -2.003335   -4.052362   -0.308277
      7          7           0        2.342318    0.735171    0.538154
      8          7           0        4.421146   -0.637678   -1.284153
      9          7           0       -2.047148    0.837030   -0.323112
     10          7           0       -2.753296   -1.731184   -0.631757
     11          6           0        4.849799   -1.232351    0.026822
     12          6           0        4.431364   -0.442590    1.181724
     13          6           0        3.005393   -0.171882    1.251724
     14          6           0        1.926790   -0.771576    2.057709
     15          6           0        0.794686   -0.093145    1.853254
     16          6           0        1.026744    0.827038    0.793907
     17          6           0        6.369888   -1.380875   -0.191436
     18          6           0       -0.584232   -0.350335    2.501725
     19          6           0        6.685931   -0.834933   -1.402526
     20          6           0        0.206027    1.903208    0.172312
     21          6           0       -1.150216    1.767857   -0.204509
     22          6           0        5.500195   -0.365880   -2.136832
     23          6           0       -1.900528    2.926736   -0.693249
     24          6           0        2.300824   -1.822330    3.036717
     25          6           0        7.241322   -2.170171    0.830841
     26          6           0       -3.123006    2.462327   -1.114347
     27          6           0       -1.158573   -1.770490    2.421921
     28          6           0       -3.133929    1.029553   -0.892772
     29          6           0       -1.456538    4.363912   -0.767144
     30          6           0        8.051541   -0.749107   -2.016556
     31          6           0       -1.624347    4.991219    0.466508
     32          6           0       -4.204728    3.240579   -1.765197
     33          6           0       -4.126619    0.145315   -1.242532
     34          6           0       -2.521559   -1.872847    3.082503
     35          6           0       -3.854322   -1.216456   -1.109505
     36          6           0        9.241384   -0.745916   -1.474394
     37          6           0       -1.027397    6.385478    0.459567
     38          6           0       -4.918901   -2.396382   -1.503489
     39          6           0       -4.183945   -3.557001   -1.213760
     40          6           0       -2.808671   -3.151413   -0.668535
     41          6           0       -6.165411   -2.130885   -2.038986
     42          6           0       -4.635795   -4.905717   -1.469339
     43          6           0       -7.079848   -3.031128   -2.442493
     44          1           0        4.743639   -2.410619    0.055389
     45          1           0        5.024633    0.502783    1.302686
     46          1           0        4.626296   -1.133734    2.130126
     47          1           0        3.064719    1.372276   -0.113015
     48          1           0        3.521508   -0.704446   -1.590670
     49          1           0       -0.233189   -0.053650    3.521548
     50          1           0       -1.201132    0.394108    2.420655
     51          1           0        0.833660    2.758474   -0.143292
     52          1           0        3.417083   -1.708616    3.419491
     53          1           0        1.579266   -1.834926    3.952055
     54          1           0        2.057139   -2.914143    2.345863
     55          1           0        6.639781   -2.834065    1.295428
     56          1           0        7.684257   -1.565829    1.736801
     57          1           0        7.952592   -2.656009    0.197986
     58          1           0       -0.945768   -2.231890    1.413322
     59          1           0       -0.577983   -2.430600    3.043807
     60          1           0       -1.759895   -0.195818   -0.408823
     61          1           0       -1.757747    5.029939   -1.560938
     62          1           0       -0.290396    4.528724   -0.865552
     63          1           0        8.086859   -0.492468   -3.175681
     64          1           0       -1.242513    4.180167    1.336062
     65          1           0       -2.860344    5.021695    0.819591
     66          1           0       -3.824182    4.296350   -1.827712
     67          1           0       -5.191491    3.304550   -1.439528
     68          1           0       -4.311630    3.073464   -2.950602
     69          1           0       -5.105760    0.552391   -1.570963
     70          1           0        9.775663   -1.147535   -0.562966
     71          1           0       10.076002   -0.702760   -2.270953
     72          1           0       -3.666645   -3.277862    3.785557
     73          1           0       -6.501023   -1.134323   -1.801762
     74          1           0       -4.985631   -5.158106   -2.479189
     75          1           0       -3.872684   -5.791606   -1.207336
     76          1           0       -5.651689   -5.438053   -0.984996
     77          1           0       -1.077654    7.907708    1.571852
     78          1           0       -8.248326   -2.692285   -2.712265
     79          1           0       -6.819624   -3.892123   -2.513161
 ---------------------------------------------------------------------

 SCF Done:  E(RB3LYP) =  -1947.74097739     A.U. after   17 cycles

 Excitation energies and oscillator strengths:

 Excited State   1:      Singlet-A      2.1862 eV  567.13 nm  f=0.5473  <S**2>=0.000
     154 ->156         0.14391
     155 ->156         0.68802
     155 <-156        -0.10779
 This state for optimization and/or second-order correction.
 Total Energy, E(TD-HF/TD-KS) =  -1947.66063674
 Copying the excited state density for this state as the 1-particle RhoCI density.

 The electronic state is 1-A.
 Alpha  occ. eigenvalues --  -19.18533 -19.16920 -19.14560 -19.12235 -19.10667
 Alpha  occ. eigenvalues --  -19.10459 -14.40271 -14.36607 -14.35868 -14.30010
 Alpha  occ. eigenvalues --  -10.33440 -10.31324 -10.29487 -10.27526 -10.26471
 Alpha  occ. eigenvalues --  -10.24562 -10.23648 -10.23541 -10.23507 -10.23424
 Alpha  occ. eigenvalues --  -10.23401 -10.23044 -10.22971 -10.22734 -10.22673
 Alpha  occ. eigenvalues --  -10.21749 -10.21184 -10.21120 -10.20482 -10.20084
 Alpha  occ. eigenvalues --  -10.20042 -10.19959 -10.19799 -10.19752 -10.19709
 Alpha  occ. eigenvalues --  -10.19527 -10.19106 -10.19102 -10.18910 -10.18899
 Alpha  occ. eigenvalues --  -10.18817 -10.18759 -10.18166  -1.10598  -1.07946
 Alpha  occ. eigenvalues --   -1.03835  -1.02793  -1.01506  -1.00759  -1.00449
 Alpha  occ. eigenvalues --   -0.98981  -0.93995  -0.91662  -0.84148  -0.82730
 Alpha  occ. eigenvalues --   -0.82369  -0.81480  -0.81193  -0.80817  -0.78823
 Alpha  occ. eigenvalues --   -0.77600  -0.76445  -0.76128  -0.74714  -0.73071
 Alpha  occ. eigenvalues --   -0.72643  -0.70656  -0.69515  -0.68638  -0.68338
 Alpha  occ. eigenvalues --   -0.67458  -0.67085  -0.64306  -0.62313  -0.61369
 Alpha  occ. eigenvalues --   -0.60797  -0.59699  -0.59201  -0.58616  -0.57457
 Alpha  occ. eigenvalues --   -0.56625  -0.55836  -0.54734  -0.54487  -0.53447
 Alpha  occ. eigenvalues --   -0.53020  -0.52167  -0.51811  -0.51160  -0.49563
 Alpha  occ. eigenvalues --   -0.49232  -0.49138  -0.49002  -0.48573  -0.47754
 Alpha  occ. eigenvalues --   -0.47312  -0.47128  -0.46889  -0.46506  -0.45933
 Alpha  occ. eigenvalues --   -0.45795  -0.45460  -0.44960  -0.44621  -0.43964
 Alpha  occ. eigenvalues --   -0.43474  -0.43097  -0.42901  -0.42622  -0.42527
 Alpha  occ. eigenvalues --   -0.42284  -0.42051  -0.41680  -0.41426  -0.40969
 Alpha  occ. eigenvalues --   -0.40450  -0.40341  -0.40213  -0.39912  -0.39680
 Alpha  occ. eigenvalues --   -0.39287  -0.38895  -0.38566  -0.38260  -0.38235
 Alpha  occ. eigenvalues --   -0.38100  -0.37709  -0.36805  -0.36547  -0.36492
 Alpha  occ. eigenvalues --   -0.36290  -0.34951  -0.34799  -0.34028  -0.33953
 Alpha  occ. eigenvalues --   -0.33426  -0.32820  -0.32359  -0.31943  -0.31915
 Alpha  occ. eigenvalues --   -0.31611  -0.30985  -0.30122  -0.28960  -0.27559
 Alpha  occ. eigenvalues --   -0.27364  -0.26981  -0.26053  -0.25770  -0.25357
 Alpha  occ. eigenvalues --   -0.25202  -0.23676  -0.23595  -0.21693  -0.18983
 Alpha virt. eigenvalues --   -0.10540  -0.06507  -0.06203  -0.02305  -0.00470
 Alpha virt. eigenvalues --    0.00020   0.00514   0.01321   0.01470   0.02158
 Alpha virt. eigenvalues --    0.03770   0.04005   0.04745   0.05095   0.05438

 Mulliken charges:
               1
     1  O   -0.242930
     2  O   -0.196652
     3  O   -0.199490
     4  O   -0.154503
     5  O   -0.214222
     6  O   -0.246381
     7  N   -0.059474
     8  N   -0.209060
     9  N    0.127347
    10  N   -0.289428
    11  C    0.036551
    12  C    0.224627
    13  C   -0.144168
    14  C   -0.108513
    15  C   -0.108795
    16  C    0.001181
    17  C   -0.205458
    18  C    0.192109
    19  C   -0.048445
    20  C   -0.111168
    21  C    0.078836
    22  C    0.184214
    23  C   -0.071391
    24  C   -0.050300
    25  C    0.141510
    26  C   -0.114605
    27  C    0.036329
    28  C    0.023095
    29  C    0.108483
    30  C   -0.010423
    31  C   -0.178856
    32  C    0.069908
    33  C   -0.140277
    34  C    0.151560
    35  C    0.082206
    36  C   -0.094447
    37  C    0.187589
    38  C    0.072933
    39  C   -0.109514
    40  C    0.215272
    41  C   -0.047307
    42  C   -0.060638
    43  C    0.078541
    44  H    0.057736
    45  H    0.014020
    46  H    0.004166
    47  H    0.172005
    48  H    0.104590
    49  H   -0.010799
    50  H   -0.071619
    51  H    0.014260
    52  H    0.046049
    53  H    0.042984
    54  H    0.059828
    55  H   -0.020426
    56  H    0.054637
    57  H    0.039438
    58  H    0.081155
    59  H   -0.001180
    60  H    0.166958
    61  H    0.016602
    62  H    0.015317
    63  H    0.051501
    64  H    0.074265
    65  H    0.054714
    66  H   -0.001438
    67  H    0.015129
    68  H    0.029757
    69  H   -0.004557
    70  H    0.029945
    71  H    0.027498
    72  H    0.167410
    73  H   -0.013339
    74  H    0.030467
    75  H    0.041652
    76  H    0.030249
    77  H    0.147208
    78  H    0.050846
    79  H   -0.112880
 Sum of Mulliken charges =   0.00000

 Dipole moment (field-independent basis, Debye):
    X=              1.8344    Y=              2.1156    Z=              4.4211  Tot=              5.2333
 Quadrupole moment (field-independent basis, Debye-Ang):
   XX=           -218.8316   YY=           -245.8359   ZZ=           -264.6974
   XY=            -16.7995   XZ=             30.5676   YZ=              1.0161

 Normal termination of Gaussian 09 at Tue Jul  9 23:02:43 2019.
