 Gaussian 09, Revision D.01,
 Gaussian 09:  ES64L-G09RevD.01 24-Apr-2013

 --------------------------
 # td=(NStates=1) B3LYP/SVP
 --------------------------

 --
 TD
 --
 Symbolic Z-matrix:
 Charge =  0 Multiplicity = 1

                         Standard orientation:
 ---------------------------------------------------------------------
 Center     Atomic      Atomic             Coordinates (Angstroms)
 Number     Number       Type             X           Y           Z
 ---------------------------------------------------------------------
      1          8           0        5.336677   -0.125676   -3.427566
      2          8           0       -2.902012   -2.846960    3.499123
      3          8           0       -3.188454   -0.680480    3.471969
      4          8           0       -1.204464    7.108818    1.514840
      5          8           0       -0.498722    6.959957   -0.535309
      6          8           0       -2.199926   -3.979548    0.021539
      7          7           0        2.332993    0.729391    0.562903
      8          7           0        4.401667   -0.693943   -1.443880
      9          7           0       -1.938618    0.672145   -0.357720
     10          7           0       -2.843372   -1.822309   -0.476110
     11          6           0        4.739790   -1.394344   -0.109702
     12          6           0        4.394383   -0.571834    1.187371
     13          6           0        2.969556   -0.247044    1.383119
     14          6           0        1.963502   -0.785374    2.216238
     15          6           0        0.650817   -0.058133    1.797185
     16          6           0        1.070736    0.744240    0.767782
     17          6           0        6.317249   -1.453269   -0.273277
     18          6           0       -0.554237   -0.240069    2.522823
     19          6           0        6.688436   -0.944047   -1.431513
     20          6           0        0.242343    1.769487    0.117654
     21          6           0       -1.078683    1.801068   -0.246827
     22          6           0        5.476254   -0.405261   -2.278215
     23          6           0       -1.795064    2.891213   -0.869112
     24          6           0        2.258108   -1.766692    3.383671
     25          6           0        7.237024   -2.117812    0.717310
     26          6           0       -3.004333    2.403655   -1.154504
     27          6           0       -1.072112   -1.566322    2.708983
     28          6           0       -3.069897    1.056066   -0.921502
     29          6           0       -1.315413    4.324237   -0.926949
     30          6           0        8.002439   -0.805064   -2.076744
     31          6           0       -1.467391    5.046837    0.451950
     32          6           0       -4.301637    3.147933   -1.820096
     33          6           0       -4.062562    0.024356   -1.249040
     34          6           0       -2.466520   -1.600385    3.228328
     35          6           0       -3.899529   -1.331299   -1.053290
     36          6           0        9.166676   -0.700710   -1.376326
     37          6           0       -0.941053    6.422126    0.391765
     38          6           0       -4.830165   -2.376519   -1.549386
     39          6           0       -4.208258   -3.567221   -1.206987
     40          6           0       -2.946347   -3.212675   -0.464341
     41          6           0       -6.205941   -2.135854   -2.089656
     42          6           0       -4.662247   -5.005163   -1.497649
     43          6           0       -6.924717   -3.026636   -2.760128
     44          1           0        4.362267   -2.396257   -0.218396
     45          1           0        5.060274    0.420379    1.040540
     46          1           0        4.996266   -1.007619    1.974402
     47          1           0        2.709241    1.261152   -0.064173
     48          1           0        3.386516   -0.924337   -1.715977
     49          1           0       -0.307067    0.211906    3.599754
     50          1           0       -1.278267    0.339962    2.047553
     51          1           0        0.526286    2.654269    0.030663
     52          1           0        3.535783   -2.129213    3.011931
     53          1           0        1.865730   -1.391104    4.362582
     54          1           0        1.728278   -2.780010    3.413817
     55          1           0        6.594174   -2.775646    1.428357
     56          1           0        7.527068   -1.328920    1.425724
     57          1           0        7.902852   -2.705469    0.304904
     58          1           0       -1.002639   -2.046122    1.690846
     59          1           0       -0.331980   -2.109477    3.244525
     60          1           0       -1.540523   -0.376553   -0.429519
     61          1           0       -1.957326    4.959046   -1.738043
     62          1           0       -0.173133    4.220857   -1.137534
     63          1           0        8.029747   -0.695654   -3.216386
     64          1           0       -0.981317    4.587449    1.417819
     65          1           0       -2.510018    5.071710    0.459204
     66          1           0       -3.878961    4.149455   -2.098975
     67          1           0       -5.205076    2.990252   -1.342205
     68          1           0       -4.301382    2.516688   -2.803825
     69          1           0       -4.813827    0.151621   -2.077674
     70          1           0        9.493622   -0.951587   -0.240136
     71          1           0       10.056524   -0.941307   -2.079176
     72          1           0       -3.828654   -2.748724    3.701287
     73          1           0       -6.567695   -1.102613   -1.952575
     74          1           0       -4.858097   -5.206774   -2.732156
     75          1           0       -3.842707   -5.683601   -1.162581
     76          1           0       -5.476555   -5.032324   -1.006053
     77          1           0       -0.874032    8.104852    1.401180
     78          1           0       -8.057035   -2.697162   -3.009924
     79          1           0       -6.629087   -4.211959   -2.996508
 ---------------------------------------------------------------------

 SCF Done:  E(RB3LYP) =  -1947.74891820     A.U. after   16 cycles

 Excitation energies and oscillator strengths:

 Excited State   1:      Singlet-A      2.2135 eV  560.12 nm  f=0.3649  <S**2>=0.000
     153 ->156        -0.11904
     154 ->156         0.16203
     155 ->156         0.67438
 This state for optimization and/or second-order correction.
 Total Energy, E(TD-HF/TD-KS) =  -1947.66757270
 Copying the excited state density for this state as the 1-particle RhoCI density.

 The electronic state is 1-A.
 Alpha  occ. eigenvalues --  -19.18359 -19.15848 -19.13116 -19.11124 -19.11045
 Alpha  occ. eigenvalues --  -19.10315 -14.37609 -14.36728 -14.35285 -14.27851
 Alpha  occ. eigenvalues --  -10.31851 -10.30345 -10.29191 -10.25772 -10.25740
 Alpha  occ. eigenvalues --  -10.24749 -10.24542 -10.23730 -10.23717 -10.23296
 Alpha  occ. eigenvalues --  -10.23186 -10.23091 -10.22102 -10.22059 -10.22023
 Alpha  occ. eigenvalues --  -10.21722 -10.21569 -10.21420 -10.21174 -10.21088
 Alpha  occ. eigenvalues --  -10.21075 -10.20965 -10.20767 -10.20657 -10.20438
 Alpha  occ. eigenvalues --  -10.20391 -10.19648 -10.19306 -10.19226 -10.18918
 Alpha  occ. eigenvalues --  -10.18791 -10.18225 -10.18080  -1.11398  -1.09077
 Alpha  occ. eigenvalues --   -1.04083  -1.03523  -1.01586  -1.01099  -0.99614
 Alpha  occ. eigenvalues --   -0.99186  -0.92668  -0.91928  -0.83778  -0.83092
 Alpha  occ. eigenvalues --   -0.82052  -0.81901  -0.79870  -0.79637  -0.78845
 Alpha  occ. eigenvalues --   -0.77430  -0.76624  -0.75669  -0.74267  -0.72684
 Alpha  occ. eigenvalues --   -0.71275  -0.71236  -0.69376  -0.69134  -0.68685
 Alpha  occ. eigenvalues --   -0.68085  -0.66361  -0.64460  -0.60145  -0.60096
 Alpha  occ. eigenvalues --   -0.59931  -0.59643  -0.58232  -0.57516  -0.56939
 Alpha  occ. eigenvalues --   -0.56689  -0.55538  -0.55311  -0.54188  -0.52992
 Alpha  occ. eigenvalues --   -0.52150  -0.52021  -0.51830  -0.50738  -0.50414
 Alpha  occ. eigenvalues --   -0.49606  -0.48460  -0.48412  -0.48263  -0.47808
 Alpha  occ. eigenvalues --   -0.47713  -0.47373  -0.46580  -0.46189  -0.45902
 Alpha  occ. eigenvalues --   -0.45528  -0.45198  -0.44737  -0.44410  -0.44269
 Alpha  occ. eigenvalues --   -0.43481  -0.43229  -0.42934  -0.42486  -0.42289
 Alpha  occ. eigenvalues --   -0.41993  -0.41887  -0.41756  -0.41690  -0.41451
 Alpha  occ. eigenvalues --   -0.41093  -0.41017  -0.40736  -0.40328  -0.39810
 Alpha  occ. eigenvalues --   -0.39526  -0.39371  -0.39217  -0.38822  -0.38497
 Alpha  occ. eigenvalues --   -0.38401  -0.38085  -0.37831  -0.37468  -0.36856
 Alpha  occ. eigenvalues --   -0.36006  -0.35851  -0.35656  -0.34565  -0.34027
 Alpha  occ. eigenvalues --   -0.33579  -0.33394  -0.33263  -0.31707  -0.31435
 Alpha  occ. eigenvalues --   -0.30871  -0.30781  -0.29287  -0.29043  -0.27408
 Alpha  occ. eigenvalues --   -0.27153  -0.27040  -0.26984  -0.25777  -0.24841
 Alpha  occ. eigenvalues --   -0.24080  -0.23855  -0.23145  -0.22204  -0.19797
 Alpha virt. eigenvalues --   -0.10867  -0.06079  -0.05560  -0.00076   0.00147
 Alpha virt. eigenvalues --    0.00417   0.00575   0.01224   0.01934   0.02329
 Alpha virt. eigenvalues --    0.02861   0.03076   0.04605   0.04761   0.05087

 Mulliken charges:
               1
     1  O   -0.185486
     2  O   -0.166803
     3  O   -0.217796
     4  O   -0.235936
     5  O   -0.174038
     6  O   -0.149422
     7  N    0.081327
     8  N   -0.273287
     9  N   -0.115002
    10  N   -0.265950
    11  C    0.111711
    12  C    0.101156
    13  C    0.000011
    14  C   -0.120581
    15  C   -0.124029
    16  C    0.033120
    17  C   -0.242007
    18  C    0.140274
    19  C   -0.059930
    20  C    0.043308
    21  C    0.010212
    22  C    0.184962
    23  C   -0.064303
    24  C   -0.015986
    25  C    0.152354
    26  C   -0.157194
    27  C    0.022197
    28  C    0.109849
    29  C    0.000146
    30  C   -0.031887
    31  C    0.017602
    32  C    0.129412
    33  C   -0.122657
    34  C    0.134285
    35  C    0.024116
    36  C   -0.094141
    37  C    0.099541
    38  C    0.018616
    39  C   -0.241314
    40  C    0.123966
    41  C    0.007860
    42  C    0.109696
    43  C   -0.105196
    44  H    0.024103
    45  H    0.018137
    46  H    0.003552
    47  H    0.040363
    48  H    0.145772
    49  H    0.014642
    50  H   -0.024300
    51  H   -0.127491
    52  H    0.037354
    53  H    0.037454
    54  H    0.051938
    55  H    0.007464
    56  H    0.036842
    57  H    0.006128
    58  H    0.058915
    59  H   -0.011455
    60  H    0.202141
    61  H    0.061497
    62  H    0.038327
    63  H    0.049200
    64  H    0.072383
    65  H    0.028397
    66  H    0.015906
    67  H    0.029870
    68  H    0.039820
    69  H   -0.004346
    70  H    0.056960
    71  H    0.032412
    72  H    0.162486
    73  H    0.005585
    74  H    0.052280
    75  H    0.036092
    76  H   -0.012016
    77  H    0.219050
    78  H    0.040590
    79  H    0.061174
 Sum of Mulliken charges =   0.00000

 Dipole moment (field-independent basis, Debye):
    X=              1.4759    Y=              2.3982    Z=              2.1452  Tot=              3.5400
 Quadrupole moment (field-independent basis, Debye-Ang):
   XX=           -229.3356   YY=           -243.5726   ZZ=           -267.5289
   XY=            -17.0885   XZ=             31.5635   YZ=              5.8211

 Normal termination of Gaussian 09 at Tue Jul  9 17:02:06 2019.
