 Gaussian 09, Revision D.01,
 Gaussian 09:  ES64L-G09RevD.01 24-Apr-2013

 --------------------------
 # td=(NStates=1) B3LYP/SVP
 --------------------------

 --
 TD
 --
 Symbolic Z-matrix:
 Charge =  0 Multiplicity = 1

                         Standard orientation:
 ---------------------------------------------------------------------
 Center     Atomic      Atomic             Coordinates (Angstroms)
 Number     Number       Type             X           Y           Z
 ---------------------------------------------------------------------
      1          8           0        5.546645   -0.088530   -3.323151
      2          8           0       -2.915245   -3.161820    3.195085
      3          8           0       -3.160070   -0.963549    3.379332
      4          8           0       -1.493385    7.261806    1.437423
      5          8           0       -0.034930    6.705755   -0.234270
      6          8           0       -2.242158   -3.960465   -0.154593
      7          7           0        2.382621    0.883372    0.581380
      8          7           0        4.448736   -0.748508   -1.297034
      9          7           0       -1.974854    0.790643   -0.347264
     10          7           0       -2.876294   -1.787559   -0.616966
     11          6           0        4.941034   -1.267675   -0.019038
     12          6           0        4.488448   -0.462458    1.168253
     13          6           0        2.992393   -0.146874    1.296078
     14          6           0        2.074142   -0.812906    2.002237
     15          6           0        0.816065   -0.083294    1.735097
     16          6           0        0.990615    0.786172    0.792723
     17          6           0        6.404414   -1.369387   -0.200221
     18          6           0       -0.532572   -0.407400    2.478828
     19          6           0        6.784425   -0.926977   -1.409892
     20          6           0        0.163028    1.892593    0.250428
     21          6           0       -1.103334    1.857346   -0.239893
     22          6           0        5.547120   -0.481516   -2.157465
     23          6           0       -1.909834    2.961166   -0.674249
     24          6           0        2.260516   -1.870181    3.063928
     25          6           0        7.340574   -2.016199    0.847827
     26          6           0       -3.129981    2.460906   -1.153193
     27          6           0       -1.029975   -1.835122    2.624817
     28          6           0       -3.137891    1.048362   -0.936511
     29          6           0       -1.294819    4.225568   -0.724044
     30          6           0        8.023226   -0.977997   -2.095481
     31          6           0       -1.604512    5.132333    0.551356
     32          6           0       -4.202702    3.322856   -1.786639
     33          6           0       -4.132243    0.091097   -1.387553
     34          6           0       -2.468398   -1.964577    3.148692
     35          6           0       -3.887067   -1.238721   -1.256773
     36          6           0        9.279726   -0.874085   -1.606754
     37          6           0       -0.982192    6.467627    0.535435
     38          6           0       -4.928067   -2.387083   -1.650426
     39          6           0       -4.399162   -3.509895   -1.195517
     40          6           0       -3.042851   -3.082561   -0.499696
     41          6           0       -6.180871   -1.994248   -2.234696
     42          6           0       -4.862569   -4.947376   -1.230027
     43          6           0       -7.121599   -2.929677   -2.584990
     44          1           0        4.632028   -2.394927   -0.032874
     45          1           0        4.936541    0.441777    0.992427
     46          1           0        4.897618   -0.844237    2.119110
     47          1           0        3.082052    1.414531    0.046523
     48          1           0        3.459285   -0.788997   -1.609139
     49          1           0       -0.599537   -0.223446    3.702914
     50          1           0       -1.263128    0.211858    2.051249
     51          1           0        0.777570    2.779619    0.210943
     52          1           0        3.366567   -2.005553    3.333567
     53          1           0        1.665117   -1.684341    3.963097
     54          1           0        1.789734   -2.815292    2.833067
     55          1           0        6.856235   -2.763776    1.281037
     56          1           0        7.532192   -1.028603    1.442297
     57          1           0        8.310289   -2.395474    0.373012
     58          1           0       -0.984392   -2.374018    1.604530
     59          1           0       -0.455419   -2.388808    3.485004
     60          1           0       -1.734570   -0.205193   -0.277030
     61          1           0       -1.673963    4.716585   -1.594827
     62          1           0       -0.423306    4.012153   -1.164636
     63          1           0        7.832733   -0.705423   -3.047736
     64          1           0       -1.273075    4.665487    1.487233
     65          1           0       -2.706616    5.068995    0.745258
     66          1           0       -3.624488    4.225138   -1.939073
     67          1           0       -5.186923    3.242885   -1.142300
     68          1           0       -4.851438    2.842413   -2.638872
     69          1           0       -4.751509    0.629541   -2.034863
     70          1           0        9.600042   -1.044924   -0.589698
     71          1           0       10.257239   -0.940536   -2.338296
     72          1           0       -3.855925   -3.048932    3.495542
     73          1           0       -6.277904   -0.745604   -2.520711
     74          1           0       -5.117633   -5.283235   -2.112902
     75          1           0       -4.403805   -5.670123   -0.545535
     76          1           0       -5.858507   -4.858441   -0.867004
     77          1           0       -1.253750    8.186325    1.206334
     78          1           0       -7.948015   -2.439768   -3.205667
     79          1           0       -7.150182   -4.057762   -2.067237
 ---------------------------------------------------------------------

 SCF Done:  E(RB3LYP) =  -1947.82355187     A.U. after   24 cycles

 Excitation energies and oscillator strengths:

 Excited State   1:      Singlet-A      2.2586 eV  548.95 nm  f=0.0278  <S**2>=0.000
     153 ->156         0.23798
     154 ->156         0.59976
     155 ->156        -0.27027
 This state for optimization and/or second-order correction.
 Total Energy, E(TD-HF/TD-KS) =  -1947.74055136
 Copying the excited state density for this state as the 1-particle RhoCI density.

 The electronic state is 1-A.
 Alpha  occ. eigenvalues --  -19.20882 -19.18766 -19.13205 -19.10410 -19.10315
 Alpha  occ. eigenvalues --  -19.08897 -14.37720 -14.37047 -14.35847 -14.28847
 Alpha  occ. eigenvalues --  -10.33340 -10.30610 -10.28852 -10.25496 -10.25494
 Alpha  occ. eigenvalues --  -10.25395 -10.24574 -10.23382 -10.23275 -10.23147
 Alpha  occ. eigenvalues --  -10.22522 -10.22435 -10.22238 -10.21729 -10.21657
 Alpha  occ. eigenvalues --  -10.21421 -10.21344 -10.21203 -10.20995 -10.20596
 Alpha  occ. eigenvalues --  -10.20525 -10.20046 -10.19874 -10.19857 -10.19725
 Alpha  occ. eigenvalues --  -10.19336 -10.19283 -10.19069 -10.18876 -10.18655
 Alpha  occ. eigenvalues --  -10.18596 -10.18554 -10.17024  -1.12287  -1.11294
 Alpha  occ. eigenvalues --   -1.01594  -1.00890  -1.00414  -0.99669  -0.98219
 Alpha  occ. eigenvalues --   -0.98176  -0.93912  -0.92571  -0.84963  -0.82524
 Alpha  occ. eigenvalues --   -0.82405  -0.80626  -0.80342  -0.80075  -0.78432
 Alpha  occ. eigenvalues --   -0.77670  -0.76422  -0.75961  -0.74538  -0.73859
 Alpha  occ. eigenvalues --   -0.72525  -0.71555  -0.70320  -0.69551  -0.69083
 Alpha  occ. eigenvalues --   -0.67229  -0.66857  -0.64707  -0.63161  -0.61644
 Alpha  occ. eigenvalues --   -0.61362  -0.59573  -0.58742  -0.58159  -0.57396
 Alpha  occ. eigenvalues --   -0.56732  -0.55744  -0.54950  -0.54062  -0.52997
 Alpha  occ. eigenvalues --   -0.52559  -0.51801  -0.50907  -0.50583  -0.50328
 Alpha  occ. eigenvalues --   -0.49780  -0.48968  -0.48566  -0.48219  -0.47938
 Alpha  occ. eigenvalues --   -0.47751  -0.47589  -0.47261  -0.46989  -0.46509
 Alpha  occ. eigenvalues --   -0.45708  -0.45053  -0.44791  -0.44631  -0.44001
 Alpha  occ. eigenvalues --   -0.43340  -0.43162  -0.42849  -0.42668  -0.42544
 Alpha  occ. eigenvalues --   -0.42354  -0.42218  -0.41761  -0.41516  -0.41180
 Alpha  occ. eigenvalues --   -0.40944  -0.40538  -0.40447  -0.39969  -0.39692
 Alpha  occ. eigenvalues --   -0.39512  -0.39309  -0.39079  -0.38841  -0.38561
 Alpha  occ. eigenvalues --   -0.38400  -0.38396  -0.37809  -0.37681  -0.37357
 Alpha  occ. eigenvalues --   -0.36491  -0.35554  -0.34899  -0.34276  -0.33828
 Alpha  occ. eigenvalues --   -0.33466  -0.33322  -0.32708  -0.32245  -0.31892
 Alpha  occ. eigenvalues --   -0.31378  -0.30733  -0.29047  -0.28839  -0.26490
 Alpha  occ. eigenvalues --   -0.26345  -0.26079  -0.25877  -0.25611  -0.24790
 Alpha  occ. eigenvalues --   -0.24010  -0.23755  -0.23154  -0.21742  -0.20656
 Alpha virt. eigenvalues --   -0.11096  -0.05434  -0.05342  -0.01394  -0.00788
 Alpha virt. eigenvalues --    0.00485   0.01505   0.02203   0.02697   0.03068
 Alpha virt. eigenvalues --    0.03245   0.04278   0.04556   0.04626   0.05087

 Mulliken charges:
               1
     1  O   -0.232303
     2  O   -0.107183
     3  O   -0.280367
     4  O   -0.141465
     5  O   -0.260003
     6  O   -0.239151
     7  N   -0.130917
     8  N   -0.265733
     9  N   -0.028508
    10  N   -0.184047
    11  C    0.095971
    12  C    0.288519
    13  C   -0.140041
    14  C   -0.118377
    15  C   -0.023963
    16  C    0.046389
    17  C   -0.247580
    18  C    0.066075
    19  C   -0.056809
    20  C   -0.097114
    21  C    0.141564
    22  C    0.185377
    23  C   -0.151375
    24  C    0.110606
    25  C    0.119884
    26  C   -0.115347
    27  C   -0.063963
    28  C    0.014543
    29  C    0.198381
    30  C    0.072272
    31  C    0.025152
    32  C    0.068791
    33  C   -0.045932
    34  C    0.101127
    35  C    0.103766
    36  C   -0.084087
    37  C    0.140678
    38  C    0.050394
    39  C   -0.249940
    40  C    0.106110
    41  C   -0.075411
    42  C    0.220119
    43  C   -0.088993
    44  H    0.036190
    45  H   -0.059377
    46  H    0.004744
    47  H    0.126434
    48  H    0.148458
    49  H    0.022523
    50  H   -0.008925
    51  H    0.013902
    52  H    0.012392
    53  H    0.005265
    54  H    0.017387
    55  H   -0.008189
    56  H    0.060132
    57  H    0.047445
    58  H    0.085200
    59  H    0.032999
    60  H    0.139475
    61  H   -0.028843
    62  H   -0.030575
    63  H   -0.026250
    64  H    0.041364
    65  H    0.036766
    66  H    0.033792
    67  H    0.035005
    68  H    0.030687
    69  H   -0.056065
    70  H    0.014421
    71  H    0.046522
    72  H    0.187679
    73  H    0.040603
    74  H   -0.031532
    75  H    0.024783
    76  H   -0.016754
    77  H    0.196253
    78  H    0.033822
    79  H    0.065159
 Sum of Mulliken charges =   0.00000

 Dipole moment (field-independent basis, Debye):
    X=             -0.2709    Y=              3.9761    Z=              3.8060  Tot=              5.5107
 Quadrupole moment (field-independent basis, Debye-Ang):
   XX=           -229.8635   YY=           -233.9577   ZZ=           -265.5181
   XY=            -21.3819   XZ=             32.2565   YZ=             -3.3495

 Normal termination of Gaussian 09 at Tue Jul  9 01:06:19 2019.
