 Gaussian 09, Revision D.01,
 Gaussian 09:  ES64L-G09RevD.01 24-Apr-2013

 --------------------------
 # td=(NStates=1) B3LYP/SVP
 --------------------------

 --
 TD
 --
 Symbolic Z-matrix:
 Charge =  0 Multiplicity = 1

                         Standard orientation:
 ---------------------------------------------------------------------
 Center     Atomic      Atomic             Coordinates (Angstroms)
 Number     Number       Type             X           Y           Z
 ---------------------------------------------------------------------
      1          8           0        5.573500    0.021157   -3.282958
      2          8           0       -3.125086   -2.932162    3.248524
      3          8           0       -3.311166   -0.789882    3.198766
      4          8           0       -1.393557    7.085864    1.656892
      5          8           0       -0.742345    6.959285   -0.550709
      6          8           0       -2.057022   -4.046461   -0.092259
      7          7           0        2.284528    0.830156    0.601025
      8          7           0        4.541152   -0.658296   -1.382842
      9          7           0       -1.815058    0.699818   -0.367363
     10          7           0       -2.734407   -1.868698   -0.455854
     11          6           0        4.851197   -1.224684   -0.073683
     12          6           0        4.437845   -0.435497    1.194521
     13          6           0        2.936351   -0.196695    1.213110
     14          6           0        2.031761   -0.814264    2.040984
     15          6           0        0.733286   -0.225185    1.793979
     16          6           0        0.907228    0.857465    0.795638
     17          6           0        6.330943   -1.325469   -0.170221
     18          6           0       -0.494111   -0.314586    2.519436
     19          6           0        6.759677   -0.912374   -1.390900
     20          6           0        0.204026    1.864650    0.159036
     21          6           0       -1.064061    1.870755   -0.274658
     22          6           0        5.618691   -0.567192   -2.148954
     23          6           0       -1.895353    2.975607   -0.925825
     24          6           0        2.212646   -1.798083    3.076290
     25          6           0        7.115281   -1.952235    0.974298
     26          6           0       -3.043402    2.377951   -1.286475
     27          6           0       -1.043020   -1.748896    2.693719
     28          6           0       -3.057894    0.966050   -0.990492
     29          6           0       -1.289680    4.291185   -0.809324
     30          6           0        8.041015   -0.822860   -2.060418
     31          6           0       -1.708265    4.977995    0.511209
     32          6           0       -4.215362    3.158695   -1.892282
     33          6           0       -4.061474   -0.027429   -1.277616
     34          6           0       -2.630898   -1.757184    3.067469
     35          6           0       -3.828794   -1.385911   -1.119862
     36          6           0        9.189375   -0.692894   -1.395509
     37          6           0       -1.211759    6.463428    0.515086
     38          6           0       -4.737545   -2.426150   -1.490265
     39          6           0       -4.165249   -3.605059   -1.134306
     40          6           0       -2.873723   -3.237416   -0.537351
     41          6           0       -6.018985   -2.218705   -2.144562
     42          6           0       -4.620588   -5.030637   -1.215386
     43          6           0       -6.759079   -2.940062   -2.906740
     44          1           0        4.530191   -2.284547   -0.071268
     45          1           0        4.869454    0.524730    1.064538
     46          1           0        4.841976   -0.936422    1.995570
     47          1           0        2.843773    1.198491   -0.276463
     48          1           0        3.672561   -0.443198   -1.793306
     49          1           0       -0.455723   -0.013646    3.603151
     50          1           0       -1.236701    0.384844    2.041127
     51          1           0        0.897817    2.788641   -0.017141
     52          1           0        3.087799   -1.886466    3.752742
     53          1           0        1.313567   -1.604412    3.822443
     54          1           0        2.103557   -2.950102    3.036748
     55          1           0        6.511459   -2.742870    1.379199
     56          1           0        7.488783   -1.076144    1.750021
     57          1           0        8.100340   -2.343548    0.577447
     58          1           0       -0.996970   -2.303224    1.777935
     59          1           0       -0.502771   -2.187408    3.516428
     60          1           0       -1.623692   -0.263616   -0.077642
     61          1           0       -1.674852    4.755579   -1.648507
     62          1           0       -0.147756    4.607831   -0.767132
     63          1           0        8.018794   -0.667439   -3.238661
     64          1           0       -1.262352    4.338815    1.238895
     65          1           0       -2.706372    5.093197    0.641778
     66          1           0       -4.034860    4.268673   -1.792420
     67          1           0       -5.314129    3.039049   -1.279703
     68          1           0       -4.455119    2.703881   -2.912200
     69          1           0       -5.008620    0.329596   -1.698648
     70          1           0        9.361784   -0.712605   -0.277517
     71          1           0       10.190754   -0.796362   -1.727807
     72          1           0       -4.161579   -2.843358    3.201667
     73          1           0       -6.506929   -1.187589   -1.766790
     74          1           0       -4.541284   -5.690748   -2.163841
     75          1           0       -3.870301   -5.524460   -0.628747
     76          1           0       -5.816946   -4.913533   -0.887478
     77          1           0       -0.825031    8.009060    1.663700
     78          1           0       -7.834679   -2.873567   -3.273245
     79          1           0       -6.244528   -4.066276   -2.815344
 ---------------------------------------------------------------------

 SCF Done:  E(RB3LYP) =  -1947.84445209     A.U. after   19 cycles

 Excitation energies and oscillator strengths:

 Excited State   1:      Singlet-A      2.0923 eV  592.57 nm  f=0.3916  <S**2>=0.000
     154 ->156         0.15981
     155 ->156         0.68218
     155 <-156        -0.11562
 This state for optimization and/or second-order correction.
 Total Energy, E(TD-HF/TD-KS) =  -1947.76756077
 Copying the excited state density for this state as the 1-particle RhoCI density.

 The electronic state is 1-A.
 Alpha  occ. eigenvalues --  -19.21668 -19.17245 -19.13386 -19.10223 -19.09339
 Alpha  occ. eigenvalues --  -19.08458 -14.39456 -14.36941 -14.35894 -14.28155
 Alpha  occ. eigenvalues --  -10.33719 -10.29937 -10.27238 -10.25708 -10.25682
 Alpha  occ. eigenvalues --  -10.25038 -10.24123 -10.23686 -10.23611 -10.22769
 Alpha  occ. eigenvalues --  -10.22587 -10.22466 -10.22457 -10.22436 -10.22234
 Alpha  occ. eigenvalues --  -10.21946 -10.21574 -10.21055 -10.21039 -10.20864
 Alpha  occ. eigenvalues --  -10.20640 -10.20386 -10.20169 -10.20067 -10.20001
 Alpha  occ. eigenvalues --  -10.19937 -10.19679 -10.19670 -10.19508 -10.19238
 Alpha  occ. eigenvalues --  -10.19180 -10.18940 -10.18777  -1.10559  -1.09955
 Alpha  occ. eigenvalues --   -1.01583  -1.00123  -0.99625  -0.98998  -0.98966
 Alpha  occ. eigenvalues --   -0.97204  -0.93601  -0.91716  -0.83696  -0.83468
 Alpha  occ. eigenvalues --   -0.82853  -0.81921  -0.80672  -0.80443  -0.78471
 Alpha  occ. eigenvalues --   -0.77614  -0.76292  -0.75785  -0.74828  -0.72853
 Alpha  occ. eigenvalues --   -0.72372  -0.70957  -0.69853  -0.69358  -0.68434
 Alpha  occ. eigenvalues --   -0.67088  -0.66346  -0.64403  -0.61996  -0.61627
 Alpha  occ. eigenvalues --   -0.60510  -0.59299  -0.58815  -0.58391  -0.56833
 Alpha  occ. eigenvalues --   -0.56504  -0.55718  -0.55294  -0.54756  -0.53175
 Alpha  occ. eigenvalues --   -0.52483  -0.52193  -0.51504  -0.51203  -0.50412
 Alpha  occ. eigenvalues --   -0.49887  -0.49182  -0.49063  -0.47808  -0.47621
 Alpha  occ. eigenvalues --   -0.47527  -0.47053  -0.46695  -0.46098  -0.45672
 Alpha  occ. eigenvalues --   -0.45571  -0.45284  -0.45016  -0.44442  -0.44251
 Alpha  occ. eigenvalues --   -0.43958  -0.43730  -0.43659  -0.43244  -0.42824
 Alpha  occ. eigenvalues --   -0.42522  -0.42112  -0.41684  -0.41448  -0.41050
 Alpha  occ. eigenvalues --   -0.40593  -0.40412  -0.39774  -0.39652  -0.39437
 Alpha  occ. eigenvalues --   -0.39261  -0.39058  -0.38858  -0.38271  -0.38125
 Alpha  occ. eigenvalues --   -0.37889  -0.37742  -0.37304  -0.37090  -0.36789
 Alpha  occ. eigenvalues --   -0.35859  -0.35483  -0.35340  -0.34520  -0.34254
 Alpha  occ. eigenvalues --   -0.33923  -0.32946  -0.32873  -0.32120  -0.31753
 Alpha  occ. eigenvalues --   -0.30659  -0.30101  -0.28741  -0.28628  -0.27170
 Alpha  occ. eigenvalues --   -0.26413  -0.26021  -0.25982  -0.24890  -0.24588
 Alpha  occ. eigenvalues --   -0.24192  -0.24023  -0.23490  -0.22226  -0.19217
 Alpha virt. eigenvalues --   -0.11028  -0.06412  -0.06130  -0.01757  -0.00711
 Alpha virt. eigenvalues --    0.00171   0.00362   0.01031   0.01992   0.02321
 Alpha virt. eigenvalues --    0.02947   0.03253   0.03578   0.04433   0.04646

 Mulliken charges:
               1
     1  O   -0.306255
     2  O   -0.164410
     3  O   -0.228724
     4  O   -0.195618
     5  O   -0.281657
     6  O   -0.224156
     7  N   -0.110907
     8  N   -0.126329
     9  N   -0.109905
    10  N   -0.280387
    11  C    0.090156
    12  C    0.312053
    13  C   -0.117494
    14  C   -0.004197
    15  C   -0.047566
    16  C    0.101918
    17  C   -0.238982
    18  C    0.016073
    19  C    0.019911
    20  C   -0.143216
    21  C    0.076460
    22  C    0.091427
    23  C    0.001241
    24  C   -0.033649
    25  C    0.052933
    26  C   -0.135643
    27  C   -0.008616
    28  C    0.136239
    29  C    0.055446
    30  C   -0.003699
    31  C    0.061242
    32  C    0.002697
    33  C   -0.123011
    34  C    0.098950
    35  C    0.125598
    36  C   -0.055684
    37  C    0.149174
    38  C    0.060277
    39  C   -0.184221
    40  C    0.129321
    41  C   -0.034367
    42  C    0.018484
    43  C   -0.100313
    44  H    0.032014
    45  H   -0.021363
    46  H   -0.025517
    47  H    0.145727
    48  H    0.109357
    49  H    0.016586
    50  H    0.023939
    51  H    0.022278
    52  H    0.003110
    53  H    0.018266
    54  H    0.034487
    55  H    0.029625
    56  H    0.062782
    57  H    0.041204
    58  H    0.052423
    59  H    0.017667
    60  H    0.145992
    61  H   -0.006021
    62  H    0.050675
    63  H    0.061604
    64  H    0.028287
    65  H    0.006427
    66  H    0.036996
    67  H    0.042217
    68  H    0.052842
    69  H   -0.025239
    70  H    0.011061
    71  H    0.011451
    72  H    0.211094
    73  H    0.013054
    74  H    0.052671
    75  H    0.022167
    76  H    0.056111
    77  H    0.245554
    78  H    0.049093
    79  H    0.030785
 Sum of Mulliken charges =   0.00000

 Dipole moment (field-independent basis, Debye):
    X=              1.4913    Y=              3.0632    Z=              4.7801  Tot=              5.8700
 Quadrupole moment (field-independent basis, Debye-Ang):
   XX=           -219.5894   YY=           -241.8684   ZZ=           -268.5135
   XY=            -13.1679   XZ=             35.5345   YZ=             10.3089

 Normal termination of Gaussian 09 at Mon Jul  8 10:57:11 2019.
