 Gaussian 09, Revision D.01,
 Gaussian 09:  ES64L-G09RevD.01 24-Apr-2013

 --------------------------
 # td=(NStates=1) B3LYP/SVP
 --------------------------

 --
 TD
 --
 Symbolic Z-matrix:
 Charge =  0 Multiplicity = 1

                         Standard orientation:
 ---------------------------------------------------------------------
 Center     Atomic      Atomic             Coordinates (Angstroms)
 Number     Number       Type             X           Y           Z
 ---------------------------------------------------------------------
      1          8           0        5.448702   -0.150475   -3.307137
      2          8           0       -2.923227   -2.995994    3.262320
      3          8           0       -3.144322   -0.772288    3.367015
      4          8           0       -1.600933    7.255083    1.488736
      5          8           0       -0.544076    7.004195   -0.541598
      6          8           0       -1.964827   -4.053976   -0.073646
      7          7           0        2.286715    0.886174    0.612339
      8          7           0        4.541629   -0.558105   -1.273665
      9          7           0       -1.894797    0.578165   -0.361312
     10          7           0       -2.681116   -1.848317   -0.581283
     11          6           0        4.842307   -1.228995    0.042120
     12          6           0        4.398153   -0.322009    1.218882
     13          6           0        2.980992   -0.064569    1.315929
     14          6           0        2.003898   -0.773042    2.090594
     15          6           0        0.719798   -0.147222    1.766493
     16          6           0        0.992538    0.831118    0.771786
     17          6           0        6.335667   -1.359540   -0.110952
     18          6           0       -0.491478   -0.243181    2.627123
     19          6           0        6.857463   -0.987122   -1.366679
     20          6           0        0.138587    1.862601    0.170819
     21          6           0       -1.214048    1.766095   -0.212307
     22          6           0        5.588889   -0.557761   -2.184411
     23          6           0       -1.903681    2.802057   -0.849375
     24          6           0        2.219331   -1.688821    3.106863
     25          6           0        7.243832   -1.921209    1.027922
     26          6           0       -3.058838    2.409752   -1.317000
     27          6           0       -1.156206   -1.639176    2.491493
     28          6           0       -3.112745    0.925694   -0.920646
     29          6           0       -1.494398    4.261612   -0.949888
     30          6           0        8.087743   -0.757429   -1.992823
     31          6           0       -1.721621    5.063689    0.400606
     32          6           0       -4.261406    3.094496   -1.773336
     33          6           0       -4.010310   -0.064444   -1.433187
     34          6           0       -2.470981   -1.610790    3.053857
     35          6           0       -3.795431   -1.395349   -1.169820
     36          6           0        9.311302   -0.749375   -1.541870
     37          6           0       -1.180968    6.528408    0.390263
     38          6           0       -4.807529   -2.592634   -1.561053
     39          6           0       -4.073277   -3.655777   -1.201841
     40          6           0       -2.729312   -3.293863   -0.629487
     41          6           0       -6.173630   -2.282072   -2.019431
     42          6           0       -4.469834   -5.155724   -1.295241
     43          6           0       -7.099726   -3.149485   -2.336499
     44          1           0        4.206330   -2.095622    0.038842
     45          1           0        5.001116    0.662788    1.082904
     46          1           0        4.618947   -0.927943    2.156670
     47          1           0        2.839197    1.538552   -0.141018
     48          1           0        3.554960   -0.370492   -1.688043
     49          1           0       -0.431508   -0.138339    3.737856
     50          1           0       -1.320546    0.616760    2.490901
     51          1           0        0.625676    2.945300    0.065244
     52          1           0        3.316329   -1.635008    3.505398
     53          1           0        1.488657   -1.516575    3.779364
     54          1           0        1.946764   -2.714884    2.760160
     55          1           0        6.732631   -2.896096    1.346905
     56          1           0        7.467542   -1.163177    1.526754
     57          1           0        8.171698   -2.284696    0.628598
     58          1           0       -1.143281   -2.060183    1.474897
     59          1           0       -0.580102   -2.430614    3.054924
     60          1           0       -1.603091   -0.339018   -0.340680
     61          1           0       -2.071997    4.822943   -1.564036
     62          1           0       -0.357261    4.335161   -1.353534
     63          1           0        7.823231   -0.580511   -3.167074
     64          1           0       -1.129804    4.783201    1.138967
     65          1           0       -2.831575    5.149413    0.769215
     66          1           0       -4.242556    4.219652   -1.793126
     67          1           0       -5.214772    2.740596   -1.353806
     68          1           0       -4.792134    2.936269   -2.984565
     69          1           0       -4.875128    0.324044   -2.124461
     70          1           0        9.569488   -0.849196   -0.630546
     71          1           0       10.246940   -0.633958   -2.241848
     72          1           0       -3.888158   -2.926020    3.548848
     73          1           0       -6.321645   -1.096668   -1.877459
     74          1           0       -4.616451   -5.302584   -2.391741
     75          1           0       -3.617738   -5.882936   -1.081910
     76          1           0       -5.317836   -5.364585   -0.587482
     77          1           0       -1.252129    8.208953    1.221635
     78          1           0       -7.985015   -2.924631   -2.787344
     79          1           0       -6.924804   -4.283284   -2.210919
 ---------------------------------------------------------------------

 SCF Done:  E(RB3LYP) =  -1947.79335149     A.U. after   16 cycles

 Excitation energies and oscillator strengths:

 Excited State   1:      Singlet-A      2.2143 eV  559.94 nm  f=0.5011  <S**2>=0.000
     155 ->156         0.69704
     155 <-156        -0.10183
 This state for optimization and/or second-order correction.
 Total Energy, E(TD-HF/TD-KS) =  -1947.71197923
 Copying the excited state density for this state as the 1-particle RhoCI density.

 The electronic state is 1-A.
 Alpha  occ. eigenvalues --  -19.19966 -19.14084 -19.12917 -19.12703 -19.10887
 Alpha  occ. eigenvalues --  -19.10333 -14.39789 -14.36876 -14.35144 -14.29138
 Alpha  occ. eigenvalues --  -10.33365 -10.29457 -10.28277 -10.26794 -10.25613
 Alpha  occ. eigenvalues --  -10.25451 -10.24620 -10.23364 -10.23325 -10.23285
 Alpha  occ. eigenvalues --  -10.23059 -10.22802 -10.22769 -10.22767 -10.22046
 Alpha  occ. eigenvalues --  -10.22043 -10.21577 -10.21166 -10.21085 -10.21031
 Alpha  occ. eigenvalues --  -10.20406 -10.20286 -10.20205 -10.19861 -10.19721
 Alpha  occ. eigenvalues --  -10.19496 -10.19437 -10.19234 -10.19097 -10.19096
 Alpha  occ. eigenvalues --  -10.18949 -10.18928 -10.18492  -1.10048  -1.09092
 Alpha  occ. eigenvalues --   -1.03126  -1.01648  -1.00679  -1.00156  -0.99317
 Alpha  occ. eigenvalues --   -0.96485  -0.92507  -0.90741  -0.84428  -0.82493
 Alpha  occ. eigenvalues --   -0.81822  -0.81515  -0.80152  -0.79658  -0.78316
 Alpha  occ. eigenvalues --   -0.77983  -0.77022  -0.75818  -0.74466  -0.73102
 Alpha  occ. eigenvalues --   -0.71930  -0.71676  -0.70159  -0.69340  -0.68281
 Alpha  occ. eigenvalues --   -0.66468  -0.66203  -0.63711  -0.61873  -0.60441
 Alpha  occ. eigenvalues --   -0.59947  -0.58064  -0.57372  -0.57155  -0.56757
 Alpha  occ. eigenvalues --   -0.56104  -0.55281  -0.54244  -0.53542  -0.53267
 Alpha  occ. eigenvalues --   -0.52095  -0.51209  -0.50718  -0.50011  -0.49749
 Alpha  occ. eigenvalues --   -0.49441  -0.49086  -0.48832  -0.48318  -0.47768
 Alpha  occ. eigenvalues --   -0.47547  -0.47164  -0.46948  -0.46694  -0.46286
 Alpha  occ. eigenvalues --   -0.46031  -0.45471  -0.45143  -0.44720  -0.44371
 Alpha  occ. eigenvalues --   -0.43935  -0.43527  -0.43341  -0.43085  -0.42793
 Alpha  occ. eigenvalues --   -0.42273  -0.42123  -0.41854  -0.41665  -0.41208
 Alpha  occ. eigenvalues --   -0.40980  -0.40409  -0.40147  -0.39928  -0.39648
 Alpha  occ. eigenvalues --   -0.39502  -0.39228  -0.38867  -0.38664  -0.38622
 Alpha  occ. eigenvalues --   -0.38080  -0.37739  -0.37547  -0.37370  -0.37092
 Alpha  occ. eigenvalues --   -0.36673  -0.36160  -0.35553  -0.35018  -0.34265
 Alpha  occ. eigenvalues --   -0.33862  -0.33407  -0.33175  -0.33046  -0.32079
 Alpha  occ. eigenvalues --   -0.31421  -0.29346  -0.29017  -0.28522  -0.27711
 Alpha  occ. eigenvalues --   -0.27444  -0.27088  -0.26198  -0.25634  -0.24236
 Alpha  occ. eigenvalues --   -0.24126  -0.23901  -0.23755  -0.22585  -0.19284
 Alpha virt. eigenvalues --   -0.10528  -0.06636  -0.06175  -0.01247  -0.01010
 Alpha virt. eigenvalues --    0.00848   0.01525   0.02365   0.02524   0.02540
 Alpha virt. eigenvalues --    0.02722   0.02915   0.03793   0.04248   0.04537

 Mulliken charges:
               1
     1  O   -0.211030
     2  O   -0.313941
     3  O   -0.113824
     4  O   -0.240410
     5  O   -0.237908
     6  O   -0.187703
     7  N   -0.058350
     8  N   -0.289894
     9  N   -0.026256
    10  N   -0.330159
    11  C    0.164285
    12  C    0.159828
    13  C   -0.120798
    14  C   -0.137440
    15  C   -0.029750
    16  C    0.036637
    17  C   -0.247572
    18  C   -0.023364
    19  C   -0.024872
    20  C   -0.142163
    21  C    0.108841
    22  C    0.143749
    23  C   -0.072162
    24  C    0.145551
    25  C    0.199080
    26  C   -0.020644
    27  C   -0.013975
    28  C    0.071838
    29  C    0.098878
    30  C   -0.016652
    31  C    0.042911
    32  C   -0.024207
    33  C   -0.148794
    34  C    0.110016
    35  C    0.076211
    36  C    0.006722
    37  C    0.127065
    38  C    0.057399
    39  C   -0.248709
    40  C    0.200128
    41  C   -0.012940
    42  C    0.053469
    43  C   -0.015307
    44  H    0.015611
    45  H    0.008025
    46  H    0.006131
    47  H    0.164953
    48  H    0.145218
    49  H    0.013109
    50  H    0.044155
    51  H    0.030518
    52  H    0.028326
    53  H   -0.025238
    54  H    0.029900
    55  H    0.042159
    56  H   -0.027061
    57  H    0.005464
    58  H    0.075040
    59  H    0.033753
    60  H    0.110876
    61  H   -0.021219
    62  H    0.049569
    63  H    0.049088
    64  H   -0.009447
    65  H    0.066167
    66  H    0.031739
    67  H    0.038108
    68  H    0.027521
    69  H    0.020861
    70  H   -0.057515
    71  H    0.044110
    72  H    0.176642
    73  H    0.024849
    74  H    0.032864
    75  H    0.029771
    76  H    0.047952
    77  H    0.215398
    78  H   -0.001177
    79  H    0.039996
 Sum of Mulliken charges =   0.00000

 Dipole moment (field-independent basis, Debye):
    X=              0.4058    Y=              3.5157    Z=              2.5738  Tot=              4.3760
 Quadrupole moment (field-independent basis, Debye-Ang):
   XX=           -218.8234   YY=           -247.4243   ZZ=           -268.9294
   XY=            -14.4977   XZ=             34.7449   YZ=              5.5455

 Normal termination of Gaussian 09 at Sun Jul  7 21:14:05 2019.
