 Gaussian 09, Revision D.01,
 Gaussian 09:  ES64L-G09RevD.01 24-Apr-2013

 --------------------------
 # td=(NStates=1) B3LYP/SVP
 --------------------------

 --
 TD
 --
 Symbolic Z-matrix:
 Charge =  0 Multiplicity = 1

                         Standard orientation:
 ---------------------------------------------------------------------
 Center     Atomic      Atomic             Coordinates (Angstroms)
 Number     Number       Type             X           Y           Z
 ---------------------------------------------------------------------
      1          8           0        5.429801   -0.148416   -3.289772
      2          8           0       -2.955208   -2.976454    3.348081
      3          8           0       -3.221748   -0.746632    3.426873
      4          8           0       -1.124662    7.093445    1.566250
      5          8           0       -0.082614    6.989457   -0.370510
      6          8           0       -2.327953   -4.085089   -0.166462
      7          7           0        2.395115    0.630637    0.500649
      8          7           0        4.526484   -0.681314   -1.231008
      9          7           0       -1.848533    0.677354   -0.291537
     10          7           0       -2.873495   -1.879371   -0.471796
     11          6           0        4.807704   -1.344906   -0.080989
     12          6           0        4.475190   -0.536604    1.230762
     13          6           0        2.992521   -0.256275    1.268732
     14          6           0        1.968034   -0.759699    2.129865
     15          6           0        0.735297   -0.037311    1.727463
     16          6           0        1.080311    0.758106    0.649081
     17          6           0        6.349648   -1.569961   -0.183701
     18          6           0       -0.600943   -0.363771    2.483700
     19          6           0        6.753149   -1.036179   -1.416975
     20          6           0        0.329270    1.785773    0.127078
     21          6           0       -1.024389    1.828767   -0.322394
     22          6           0        5.497562   -0.603026   -2.108518
     23          6           0       -1.763076    2.934989   -0.756753
     24          6           0        2.217409   -1.828645    3.223714
     25          6           0        7.248833   -2.220944    0.733099
     26          6           0       -3.042595    2.516343   -1.161010
     27          6           0       -1.157737   -1.754922    2.482128
     28          6           0       -3.032226    1.085859   -0.827002
     29          6           0       -1.376526    4.417310   -0.897201
     30          6           0        8.011665   -0.872273   -2.086178
     31          6           0       -1.396763    5.068890    0.536168
     32          6           0       -4.203633    3.187008   -1.868255
     33          6           0       -4.024756    0.201690   -1.177163
     34          6           0       -2.588164   -1.708284    3.105837
     35          6           0       -3.882962   -1.228029   -1.089736
     36          6           0        9.252114   -0.927636   -1.534037
     37          6           0       -0.775486    6.422951    0.498977
     38          6           0       -4.963171   -2.255316   -1.397116
     39          6           0       -4.396365   -3.478433   -1.240495
     40          6           0       -3.080864   -3.145695   -0.567598
     41          6           0       -6.333559   -1.865216   -2.074448
     42          6           0       -4.929667   -4.813864   -1.592124
     43          6           0       -7.297339   -2.744673   -2.488132
     44          1           0        4.309945   -2.415998    0.104248
     45          1           0        4.982075    0.417436    1.232857
     46          1           0        4.790096   -1.174674    2.081794
     47          1           0        2.814917    1.216284   -0.210813
     48          1           0        3.526413   -0.814822   -1.581094
     49          1           0       -0.365494    0.042863    3.503783
     50          1           0       -1.305602    0.275194    2.029290
     51          1           0        0.914438    2.754500   -0.053673
     52          1           0        3.323794   -2.038750    3.339432
     53          1           0        1.643718   -1.580229    4.003330
     54          1           0        1.845683   -2.970821    2.923164
     55          1           0        6.750863   -3.094922    1.286449
     56          1           0        7.587325   -1.544338    1.749717
     57          1           0        8.130097   -2.462590    0.167791
     58          1           0       -1.233656   -2.270297    1.437316
     59          1           0       -0.639330   -2.511583    3.247312
     60          1           0       -1.673289   -0.442884   -0.175357
     61          1           0       -1.734136    5.169515   -1.587405
     62          1           0       -0.286454    4.318698   -1.421469
     63          1           0        7.990625   -0.728563   -3.208976
     64          1           0       -0.720613    4.326736    1.168041
     65          1           0       -2.461063    5.109518    0.662115
     66          1           0       -3.725699    4.139756   -2.009963
     67          1           0       -5.147307    3.313165   -1.255737
     68          1           0       -4.359963    2.522936   -2.760480
     69          1           0       -4.879248    0.575762   -1.725443
     70          1           0        9.539977   -1.164975   -0.373586
     71          1           0       10.252225   -0.743915   -2.342463
     72          1           0       -3.958691   -2.977856    3.414422
     73          1           0       -6.727797   -0.910965   -2.042164
     74          1           0       -4.930184   -5.035259   -2.728123
     75          1           0       -4.262870   -5.424042   -1.143616
     76          1           0       -5.993892   -5.125448   -1.282816
     77          1           0       -0.583392    7.986155    1.392156
     78          1           0       -8.321149   -2.317163   -2.835947
     79          1           0       -7.321212   -3.796191   -2.624617
 ---------------------------------------------------------------------

 SCF Done:  E(RB3LYP) =  -1947.85868694     A.U. after   24 cycles

 Excitation energies and oscillator strengths:

 Excited State   1:      Singlet-A      2.2229 eV  557.77 nm  f=0.5292  <S**2>=0.000
     153 ->156        -0.12199
     154 ->156         0.11161
     155 ->156         0.68453
     155 <-156        -0.12291
 This state for optimization and/or second-order correction.
 Total Energy, E(TD-HF/TD-KS) =  -1947.77699801
 Copying the excited state density for this state as the 1-particle RhoCI density.

 The electronic state is 1-A.
 Alpha  occ. eigenvalues --  -19.20028 -19.16683 -19.13376 -19.11593 -19.09851
 Alpha  occ. eigenvalues --  -19.08810 -14.39320 -14.37482 -14.37309 -14.29590
 Alpha  occ. eigenvalues --  -10.33036 -10.30411 -10.28781 -10.26621 -10.25542
 Alpha  occ. eigenvalues --  -10.25473 -10.24354 -10.24314 -10.23851 -10.23299
 Alpha  occ. eigenvalues --  -10.23071 -10.22926 -10.22885 -10.22880 -10.22844
 Alpha  occ. eigenvalues --  -10.22693 -10.22551 -10.22427 -10.21538 -10.21486
 Alpha  occ. eigenvalues --  -10.21092 -10.21034 -10.20666 -10.20564 -10.20288
 Alpha  occ. eigenvalues --  -10.20191 -10.20027 -10.19884 -10.19796 -10.19158
 Alpha  occ. eigenvalues --  -10.19153 -10.19099 -10.18360  -1.11613  -1.08324
 Alpha  occ. eigenvalues --   -1.03127  -1.02016  -0.99679  -0.99524  -0.99468
 Alpha  occ. eigenvalues --   -0.98064  -0.95878  -0.92401  -0.83339  -0.83135
 Alpha  occ. eigenvalues --   -0.82821  -0.80714  -0.80157  -0.79373  -0.78747
 Alpha  occ. eigenvalues --   -0.77666  -0.76126  -0.75822  -0.74811  -0.73279
 Alpha  occ. eigenvalues --   -0.71848  -0.71439  -0.70321  -0.69262  -0.68483
 Alpha  occ. eigenvalues --   -0.67187  -0.66591  -0.64668  -0.61933  -0.60475
 Alpha  occ. eigenvalues --   -0.59436  -0.58821  -0.58503  -0.57688  -0.57326
 Alpha  occ. eigenvalues --   -0.56551  -0.55726  -0.55157  -0.54719  -0.53788
 Alpha  occ. eigenvalues --   -0.53439  -0.52391  -0.51258  -0.51182  -0.50647
 Alpha  occ. eigenvalues --   -0.49572  -0.48958  -0.48812  -0.48037  -0.47770
 Alpha  occ. eigenvalues --   -0.47497  -0.47232  -0.46771  -0.46358  -0.45623
 Alpha  occ. eigenvalues --   -0.45198  -0.44975  -0.44657  -0.44353  -0.43962
 Alpha  occ. eigenvalues --   -0.43872  -0.43297  -0.43130  -0.42964  -0.42876
 Alpha  occ. eigenvalues --   -0.42649  -0.42328  -0.41664  -0.41558  -0.41425
 Alpha  occ. eigenvalues --   -0.40990  -0.40662  -0.40517  -0.40086  -0.39872
 Alpha  occ. eigenvalues --   -0.39416  -0.38913  -0.38799  -0.38564  -0.38352
 Alpha  occ. eigenvalues --   -0.38126  -0.38093  -0.37690  -0.37489  -0.37133
 Alpha  occ. eigenvalues --   -0.36582  -0.36297  -0.34577  -0.34190  -0.33925
 Alpha  occ. eigenvalues --   -0.33474  -0.32750  -0.32681  -0.32569  -0.31895
 Alpha  occ. eigenvalues --   -0.31136  -0.30647  -0.29159  -0.28600  -0.27436
 Alpha  occ. eigenvalues --   -0.27270  -0.26861  -0.26541  -0.25432  -0.25036
 Alpha  occ. eigenvalues --   -0.24254  -0.23794  -0.23331  -0.22896  -0.19580
 Alpha virt. eigenvalues --   -0.11239  -0.07181  -0.06414  -0.01643  -0.01194
 Alpha virt. eigenvalues --   -0.00015   0.00895   0.01954   0.02168   0.02537
 Alpha virt. eigenvalues --    0.02746   0.03546   0.03726   0.04385   0.04837

 Mulliken charges:
               1
     1  O   -0.275505
     2  O   -0.194913
     3  O   -0.210607
     4  O   -0.175982
     5  O   -0.275181
     6  O   -0.273645
     7  N    0.035136
     8  N   -0.070330
     9  N   -0.158197
    10  N   -0.195490
    11  C   -0.028446
    12  C    0.255281
    13  C   -0.135176
    14  C   -0.151099
    15  C   -0.120034
    16  C    0.018007
    17  C   -0.132212
    18  C    0.142451
    19  C   -0.028529
    20  C   -0.136762
    21  C    0.110049
    22  C    0.109685
    23  C   -0.048589
    24  C    0.095428
    25  C    0.009437
    26  C   -0.160707
    27  C   -0.083412
    28  C    0.140121
    29  C   -0.037682
    30  C   -0.011623
    31  C    0.027347
    32  C    0.119057
    33  C   -0.117399
    34  C    0.130508
    35  C    0.064571
    36  C   -0.143000
    37  C    0.127369
    38  C    0.010112
    39  C   -0.168594
    40  C    0.095247
    41  C    0.042233
    42  C    0.093828
    43  C   -0.075140
    44  H    0.044679
    45  H   -0.006158
    46  H   -0.000628
    47  H    0.109153
    48  H    0.156776
    49  H    0.019007
    50  H   -0.008449
    51  H    0.009576
    52  H    0.009336
    53  H   -0.002113
    54  H    0.041358
    55  H    0.032350
    56  H    0.052400
    57  H    0.040304
    58  H    0.099419
    59  H    0.045449
    60  H    0.219431
    61  H    0.029676
    62  H    0.035910
    63  H    0.043520
    64  H    0.082844
    65  H    0.044778
    66  H    0.008376
    67  H    0.049752
    68  H    0.053759
    69  H   -0.030089
    70  H    0.059438
    71  H    0.059359
    72  H    0.192271
    73  H   -0.019932
    74  H    0.036102
    75  H   -0.009732
    76  H    0.035503
    77  H    0.213732
    78  H    0.026890
    79  H    0.008337
 Sum of Mulliken charges =   0.00000

 Dipole moment (field-independent basis, Debye):
    X=              1.2232    Y=              2.7830    Z=              2.6014  Tot=              4.0011
 Quadrupole moment (field-independent basis, Debye-Ang):
   XX=           -221.5747   YY=           -252.7789   ZZ=           -269.0074
   XY=            -17.5221   XZ=             35.7360   YZ=              3.4040

 Normal termination of Gaussian 09 at Wed Jul 10 10:04:33 2019.
