 Gaussian 09, Revision D.01,
 Gaussian 09:  ES64L-G09RevD.01 24-Apr-2013

 --------------------------
 # td=(NStates=1) B3LYP/SVP
 --------------------------

 --
 TD
 --
 Symbolic Z-matrix:
 Charge =  0 Multiplicity = 1

                         Standard orientation:
 ---------------------------------------------------------------------
 Center     Atomic      Atomic             Coordinates (Angstroms)
 Number     Number       Type             X           Y           Z
 ---------------------------------------------------------------------
      1          8           0        5.436471   -0.061184   -3.312879
      2          8           0       -3.020759   -3.214514    3.098599
      3          8           0       -3.195389   -0.971992    3.266733
      4          8           0       -1.103426    7.290754    1.490224
      5          8           0       -0.001552    6.835535   -0.407950
      6          8           0       -2.126745   -4.044718   -0.181583
      7          7           0        2.349476    0.753223    0.578985
      8          7           0        4.378052   -0.675588   -1.329163
      9          7           0       -1.961210    0.779485   -0.250965
     10          7           0       -2.778031   -1.788543   -0.524931
     11          6           0        4.830893   -1.266412   -0.085936
     12          6           0        4.432302   -0.522471    1.160013
     13          6           0        2.922799   -0.267686    1.167603
     14          6           0        1.942826   -0.865697    2.093162
     15          6           0        0.781830   -0.189282    1.765455
     16          6           0        0.983884    0.923601    0.904132
     17          6           0        6.295223   -1.401637   -0.227311
     18          6           0       -0.558424   -0.398992    2.562288
     19          6           0        6.672477   -0.946396   -1.448290
     20          6           0        0.210058    1.909960    0.246283
     21          6           0       -1.113932    1.829458   -0.204685
     22          6           0        5.493909   -0.520239   -2.217955
     23          6           0       -1.922168    3.009630   -0.702679
     24          6           0        2.298412   -2.006766    3.167654
     25          6           0        7.071171   -2.201021    0.788700
     26          6           0       -3.099136    2.509982   -1.119577
     27          6           0       -1.104598   -1.843880    2.619842
     28          6           0       -3.150551    1.031480   -0.857641
     29          6           0       -1.390406    4.379118   -0.757713
     30          6           0        7.961227   -0.793390   -2.152644
     31          6           0       -1.554483    5.167938    0.568616
     32          6           0       -4.321811    3.186654   -1.619614
     33          6           0       -4.104476    0.115090   -1.291019
     34          6           0       -2.460992   -1.894970    3.027107
     35          6           0       -3.854157   -1.273178   -1.119283
     36          6           0        9.183909   -0.836782   -1.517889
     37          6           0       -0.842374    6.541038    0.439961
     38          6           0       -4.894394   -2.293526   -1.446759
     39          6           0       -4.215721   -3.467595   -1.138734
     40          6           0       -3.012446   -3.137494   -0.549609
     41          6           0       -6.149444   -2.011540   -2.117954
     42          6           0       -4.519381   -4.999304   -1.385965
     43          6           0       -7.015791   -2.857208   -2.954548
     44          1           0        4.250662   -2.336495   -0.143021
     45          1           0        4.777328    0.451307    1.329276
     46          1           0        4.698414   -1.252784    2.027003
     47          1           0        2.753295    1.472896   -0.090730
     48          1           0        3.428144   -0.331539   -1.523299
     49          1           0       -0.344303   -0.042123    3.601951
     50          1           0       -1.234828    0.199932    2.207217
     51          1           0        0.786457    2.922613    0.383008
     52          1           0        3.337651   -2.090455    3.702313
     53          1           0        1.544210   -1.944926    4.049408
     54          1           0        2.172814   -2.922312    2.946556
     55          1           0        6.478493   -3.060049    1.266110
     56          1           0        7.457629   -1.526264    1.547783
     57          1           0        7.771437   -2.754063    0.419824
     58          1           0       -0.876860   -2.234473    1.614513
     59          1           0       -0.496779   -2.488378    3.170194
     60          1           0       -1.647685   -0.237826   -0.234539
     61          1           0       -2.031546    5.030608   -1.380361
     62          1           0       -0.344571    4.134846   -1.222400
     63          1           0        7.934416   -0.427886   -3.208690
     64          1           0       -1.060573    4.801891    1.522962
     65          1           0       -2.530407    5.357954    0.986983
     66          1           0       -4.127826    4.316402   -1.791449
     67          1           0       -5.145929    3.270365   -0.950502
     68          1           0       -4.595408    2.675330   -2.556252
     69          1           0       -4.953795    0.595519   -1.782977
     70          1           0        9.143169   -0.881043   -0.320240
     71          1           0       10.069468   -0.787483   -2.280950
     72          1           0       -3.999443   -3.126208    3.214048
     73          1           0       -6.397787   -0.874593   -1.796610
     74          1           0       -4.150882   -5.154177   -2.387923
     75          1           0       -4.128868   -5.702519   -0.657426
     76          1           0       -5.697296   -4.891974   -1.153066
     77          1           0       -0.674794    7.995563    1.349709
     78          1           0       -7.910744   -2.117942   -3.319417
     79          1           0       -6.857484   -3.841698   -3.051702
 ---------------------------------------------------------------------

 SCF Done:  E(RB3LYP) =  -1947.80044417     A.U. after   19 cycles

 Excitation energies and oscillator strengths:

 Excited State   1:      Singlet-A      1.9659 eV  630.68 nm  f=0.3311  <S**2>=0.000
     153 ->156         0.23400
     154 ->156        -0.27074
     155 ->156         0.60733
 This state for optimization and/or second-order correction.
 Total Energy, E(TD-HF/TD-KS) =  -1947.72819971
 Copying the excited state density for this state as the 1-particle RhoCI density.

 The electronic state is 1-A.
 Alpha  occ. eigenvalues --  -19.19415 -19.14397 -19.13602 -19.11345 -19.10193
 Alpha  occ. eigenvalues --  -19.09376 -14.39996 -14.37480 -14.34438 -14.29517
 Alpha  occ. eigenvalues --  -10.33290 -10.30229 -10.28122 -10.25230 -10.25181
 Alpha  occ. eigenvalues --  -10.25174 -10.25088 -10.24012 -10.23915 -10.23031
 Alpha  occ. eigenvalues --  -10.22880 -10.22694 -10.22584 -10.22290 -10.22275
 Alpha  occ. eigenvalues --  -10.22126 -10.21739 -10.21486 -10.21271 -10.20823
 Alpha  occ. eigenvalues --  -10.20641 -10.20628 -10.20522 -10.20470 -10.20369
 Alpha  occ. eigenvalues --  -10.20354 -10.20246 -10.19963 -10.19808 -10.19463
 Alpha  occ. eigenvalues --  -10.19409 -10.18198 -10.18006  -1.14752  -1.05875
 Alpha  occ. eigenvalues --   -1.03640  -1.01849  -0.99982  -0.99419  -0.97758
 Alpha  occ. eigenvalues --   -0.96966  -0.93743  -0.91448  -0.83382  -0.82175
 Alpha  occ. eigenvalues --   -0.81963  -0.80919  -0.80089  -0.79490  -0.78528
 Alpha  occ. eigenvalues --   -0.77446  -0.77195  -0.75688  -0.74136  -0.72991
 Alpha  occ. eigenvalues --   -0.72206  -0.71768  -0.70198  -0.69579  -0.68808
 Alpha  occ. eigenvalues --   -0.67256  -0.66411  -0.64565  -0.63019  -0.61575
 Alpha  occ. eigenvalues --   -0.59910  -0.59541  -0.59074  -0.58306  -0.56966
 Alpha  occ. eigenvalues --   -0.56659  -0.55887  -0.55172  -0.54236  -0.53244
 Alpha  occ. eigenvalues --   -0.52012  -0.51000  -0.50476  -0.50390  -0.50338
 Alpha  occ. eigenvalues --   -0.50053  -0.49832  -0.49152  -0.47879  -0.47721
 Alpha  occ. eigenvalues --   -0.47495  -0.47059  -0.46713  -0.46265  -0.45820
 Alpha  occ. eigenvalues --   -0.45462  -0.45199  -0.44782  -0.44406  -0.44217
 Alpha  occ. eigenvalues --   -0.44191  -0.43740  -0.43562  -0.43253  -0.42797
 Alpha  occ. eigenvalues --   -0.42065  -0.41687  -0.41260  -0.41177  -0.41014
 Alpha  occ. eigenvalues --   -0.40702  -0.40500  -0.40087  -0.39834  -0.39479
 Alpha  occ. eigenvalues --   -0.39297  -0.39102  -0.38814  -0.38460  -0.38115
 Alpha  occ. eigenvalues --   -0.38039  -0.37782  -0.37742  -0.37365  -0.36720
 Alpha  occ. eigenvalues --   -0.36293  -0.35725  -0.35528  -0.35285  -0.33766
 Alpha  occ. eigenvalues --   -0.33711  -0.33340  -0.33274  -0.32608  -0.31539
 Alpha  occ. eigenvalues --   -0.30309  -0.29715  -0.29251  -0.28137  -0.27359
 Alpha  occ. eigenvalues --   -0.26671  -0.26602  -0.26233  -0.25697  -0.25339
 Alpha  occ. eigenvalues --   -0.24002  -0.23864  -0.23540  -0.22165  -0.19358
 Alpha virt. eigenvalues --   -0.11586  -0.07041  -0.06360  -0.02268  -0.01007
 Alpha virt. eigenvalues --    0.00541   0.00829   0.01005   0.02556   0.03017
 Alpha virt. eigenvalues --    0.03167   0.03965   0.04255   0.04847   0.04980

 Mulliken charges:
               1
     1  O   -0.185049
     2  O   -0.265362
     3  O   -0.217832
     4  O   -0.046984
     5  O   -0.247290
     6  O   -0.293601
     7  N   -0.064821
     8  N   -0.271321
     9  N   -0.049272
    10  N   -0.230714
    11  C    0.050565
    12  C    0.223058
    13  C   -0.135520
    14  C   -0.073120
    15  C   -0.170160
    16  C    0.030609
    17  C   -0.170399
    18  C    0.177755
    19  C   -0.052135
    20  C   -0.128920
    21  C    0.094943
    22  C    0.155292
    23  C   -0.082863
    24  C    0.096431
    25  C    0.156632
    26  C   -0.126422
    27  C    0.051464
    28  C    0.065379
    29  C    0.095824
    30  C   -0.029303
    31  C   -0.014853
    32  C    0.083252
    33  C   -0.111167
    34  C    0.161241
    35  C    0.112014
    36  C   -0.072276
    37  C    0.095800
    38  C   -0.004085
    39  C   -0.174962
    40  C    0.148046
    41  C   -0.095871
    42  C    0.077240
    43  C    0.011897
    44  H    0.049202
    45  H   -0.012009
    46  H    0.017788
    47  H    0.133235
    48  H    0.125040
    49  H    0.011970
    50  H   -0.063853
    51  H    0.043477
    52  H    0.026740
    53  H    0.021050
    54  H   -0.026260
    55  H    0.023601
    56  H    0.034000
    57  H   -0.026285
    58  H    0.063388
    59  H   -0.006909
    60  H    0.172475
    61  H    0.013391
    62  H    0.065452
    63  H    0.031395
    64  H    0.044860
    65  H    0.026242
    66  H    0.007340
    67  H    0.028732
    68  H    0.038193
    69  H   -0.019719
    70  H    0.049491
    71  H    0.055550
    72  H    0.183797
    73  H    0.037527
    74  H    0.044326
    75  H    0.039357
    76  H    0.036119
    77  H    0.092758
    78  H    0.065778
    79  H   -0.000386
 Sum of Mulliken charges =   0.00000

 Dipole moment (field-independent basis, Debye):
    X=              0.8711    Y=              4.0599    Z=              2.9658  Tot=              5.1027
 Quadrupole moment (field-independent basis, Debye-Ang):
   XX=           -222.2666   YY=           -246.0417   ZZ=           -265.9276
   XY=            -20.3938   XZ=             34.4211   YZ=              5.0187

 Normal termination of Gaussian 09 at Wed Jul 10 13:56:39 2019.
