 Gaussian 09, Revision D.01,
 Gaussian 09:  ES64L-G09RevD.01 24-Apr-2013

 --------------------------
 # td=(NStates=1) B3LYP/SVP
 --------------------------

 --
 TD
 --
 Symbolic Z-matrix:
 Charge =  0 Multiplicity = 1

                         Standard orientation:
 ---------------------------------------------------------------------
 Center     Atomic      Atomic             Coordinates (Angstroms)
 Number     Number       Type             X           Y           Z
 ---------------------------------------------------------------------
      1          8           0        5.495237   -0.362065   -3.401510
      2          8           0       -2.809687   -2.979018    3.555453
      3          8           0       -3.202349   -0.722735    3.319091
      4          8           0       -1.419447    7.237279    1.470802
      5          8           0       -0.067061    6.885975   -0.413031
      6          8           0       -2.031658   -4.035880   -0.182847
      7          7           0        2.369111    0.796984    0.450897
      8          7           0        4.453262   -0.648269   -1.303562
      9          7           0       -1.925522    0.722971   -0.455921
     10          7           0       -2.792591   -1.834076   -0.458492
     11          6           0        4.839459   -1.215298   -0.035071
     12          6           0        4.412729   -0.333407    1.110815
     13          6           0        2.987953   -0.055399    1.292623
     14          6           0        2.057786   -0.724688    2.056200
     15          6           0        0.753598   -0.177253    1.659864
     16          6           0        1.003802    0.807636    0.576839
     17          6           0        6.381726   -1.391959   -0.139436
     18          6           0       -0.506279   -0.214127    2.473673
     19          6           0        6.767408   -0.960360   -1.351593
     20          6           0        0.289012    1.802820   -0.079309
     21          6           0       -1.097495    1.802995   -0.436749
     22          6           0        5.603921   -0.639073   -2.181512
     23          6           0       -1.922509    2.946758   -0.907260
     24          6           0        2.258212   -1.719864    3.114461
     25          6           0        7.207077   -1.871602    0.978786
     26          6           0       -3.181545    2.409835   -1.192101
     27          6           0       -1.155653   -1.682189    2.499120
     28          6           0       -3.183715    0.962497   -0.901438
     29          6           0       -1.482900    4.307522   -0.913175
     30          6           0        8.077595   -0.909906   -2.001554
     31          6           0       -1.591156    5.098859    0.389546
     32          6           0       -4.380882    3.169682   -1.708437
     33          6           0       -4.207520    0.050925   -1.190686
     34          6           0       -2.477699   -1.653444    3.191621
     35          6           0       -3.937499   -1.325913   -0.861808
     36          6           0        9.268447   -0.952867   -1.411164
     37          6           0       -0.972088    6.482979    0.382340
     38          6           0       -4.866786   -2.412048   -1.425313
     39          6           0       -4.264131   -3.671842   -1.105988
     40          6           0       -2.901564   -3.216540   -0.514939
     41          6           0       -6.209054   -2.151385   -1.995676
     42          6           0       -4.658812   -5.078391   -1.304622
     43          6           0       -7.028604   -3.033289   -2.584825
     44          1           0        4.377597   -2.287646    0.141566
     45          1           0        5.162521    0.587717    1.225938
     46          1           0        4.864325   -1.018833    1.935619
     47          1           0        2.522250    1.278704   -0.485570
     48          1           0        3.468724   -0.622743   -1.799453
     49          1           0       -0.252669    0.229883    3.501521
     50          1           0       -1.487323    0.451740    2.098188
     51          1           0        0.978760    2.526119   -0.284473
     52          1           0        3.183335   -1.787301    3.506232
     53          1           0        1.475880   -1.638746    4.051755
     54          1           0        1.960656   -2.538366    2.665241
     55          1           0        6.523231   -2.420819    1.772187
     56          1           0        7.943601   -1.070269    1.683840
     57          1           0        8.032771   -2.406500    0.676506
     58          1           0       -1.487657   -2.093387    1.475772
     59          1           0       -0.514312   -2.198660    2.955525
     60          1           0       -1.933532   -0.319927   -0.268851
     61          1           0       -1.975728    5.017121   -1.693393
     62          1           0       -0.558879    4.335671   -1.215541
     63          1           0        8.039132   -0.914633   -2.981900
     64          1           0       -1.182280    4.556063    1.248710
     65          1           0       -2.643271    5.173758    0.681794
     66          1           0       -3.763628    4.182028   -2.027424
     67          1           0       -5.143558    3.300296   -1.024067
     68          1           0       -4.751872    2.552618   -2.655149
     69          1           0       -5.255002    0.458854   -1.455754
     70          1           0        9.302920   -0.934732   -0.286778
     71          1           0       10.225709   -1.089696   -1.808896
     72          1           0       -3.967504   -3.056260    3.443935
     73          1           0       -6.712385   -1.118638   -2.017441
     74          1           0       -5.013544   -5.366978   -2.201026
     75          1           0       -3.912381   -5.719311   -0.706485
     76          1           0       -5.797037   -5.250331   -0.897488
     77          1           0       -0.885338    7.890697    1.619319
     78          1           0       -7.872492   -2.728932   -3.172324
     79          1           0       -6.698116   -4.120265   -3.015123
 ---------------------------------------------------------------------

 SCF Done:  E(RB3LYP) =  -1947.76784025     A.U. after   17 cycles

 Excitation energies and oscillator strengths:

 Excited State   1:      Singlet-A      2.0883 eV  593.70 nm  f=0.5438  <S**2>=0.000
     155 ->156         0.70410
     155 <-156        -0.13532
 This state for optimization and/or second-order correction.
 Total Energy, E(TD-HF/TD-KS) =  -1947.69109490
 Copying the excited state density for this state as the 1-particle RhoCI density.

 The electronic state is 1-A.
 Alpha  occ. eigenvalues --  -19.18497 -19.16435 -19.14330 -19.12345 -19.10721
 Alpha  occ. eigenvalues --  -19.10613 -14.38965 -14.36741 -14.35878 -14.30624
 Alpha  occ. eigenvalues --  -10.34317 -10.30446 -10.29197 -10.27490 -10.26184
 Alpha  occ. eigenvalues --  -10.25598 -10.24417 -10.24388 -10.24144 -10.23346
 Alpha  occ. eigenvalues --  -10.23322 -10.23221 -10.22702 -10.22257 -10.22021
 Alpha  occ. eigenvalues --  -10.21262 -10.21232 -10.21202 -10.21160 -10.21053
 Alpha  occ. eigenvalues --  -10.20930 -10.20846 -10.20808 -10.20676 -10.20462
 Alpha  occ. eigenvalues --  -10.20295 -10.20289 -10.19998 -10.19981 -10.19752
 Alpha  occ. eigenvalues --  -10.19680 -10.19202 -10.18096  -1.10093  -1.06497
 Alpha  occ. eigenvalues --   -1.00891  -1.00777  -1.00195  -0.99991  -0.98886
 Alpha  occ. eigenvalues --   -0.97373  -0.93261  -0.92759  -0.83915  -0.83279
 Alpha  occ. eigenvalues --   -0.82986  -0.81212  -0.79884  -0.79709  -0.78484
 Alpha  occ. eigenvalues --   -0.77985  -0.76564  -0.76240  -0.75171  -0.72999
 Alpha  occ. eigenvalues --   -0.72613  -0.72456  -0.70759  -0.69477  -0.68701
 Alpha  occ. eigenvalues --   -0.66711  -0.65817  -0.63682  -0.62587  -0.61809
 Alpha  occ. eigenvalues --   -0.60610  -0.58933  -0.58367  -0.58329  -0.56988
 Alpha  occ. eigenvalues --   -0.56080  -0.55271  -0.54575  -0.54065  -0.53506
 Alpha  occ. eigenvalues --   -0.52953  -0.51777  -0.51445  -0.51108  -0.50284
 Alpha  occ. eigenvalues --   -0.49649  -0.49091  -0.48798  -0.48470  -0.47589
 Alpha  occ. eigenvalues --   -0.47267  -0.47105  -0.46605  -0.46216  -0.45927
 Alpha  occ. eigenvalues --   -0.45616  -0.45402  -0.44910  -0.44713  -0.44541
 Alpha  occ. eigenvalues --   -0.44184  -0.43322  -0.43167  -0.42969  -0.42704
 Alpha  occ. eigenvalues --   -0.42440  -0.42267  -0.42155  -0.41781  -0.41528
 Alpha  occ. eigenvalues --   -0.41032  -0.40851  -0.40434  -0.40206  -0.39800
 Alpha  occ. eigenvalues --   -0.39602  -0.39376  -0.38968  -0.38794  -0.38402
 Alpha  occ. eigenvalues --   -0.38096  -0.37497  -0.37476  -0.37023  -0.36751
 Alpha  occ. eigenvalues --   -0.36221  -0.35922  -0.35266  -0.34753  -0.34520
 Alpha  occ. eigenvalues --   -0.34236  -0.33753  -0.33136  -0.32127  -0.31801
 Alpha  occ. eigenvalues --   -0.31144  -0.30565  -0.29499  -0.29196  -0.28349
 Alpha  occ. eigenvalues --   -0.27225  -0.26495  -0.25857  -0.25701  -0.25398
 Alpha  occ. eigenvalues --   -0.24883  -0.24612  -0.24480  -0.22397  -0.19057
 Alpha virt. eigenvalues --   -0.11293  -0.07232  -0.06950  -0.03047  -0.01255
 Alpha virt. eigenvalues --   -0.00197  -0.00111   0.01097   0.01754   0.01879
 Alpha virt. eigenvalues --    0.03114   0.03198   0.03396   0.04112   0.04756

 Mulliken charges:
               1
     1  O   -0.252153
     2  O   -0.324869
     3  O   -0.193164
     4  O   -0.141322
     5  O   -0.265053
     6  O   -0.229595
     7  N   -0.074603
     8  N   -0.275732
     9  N   -0.056205
    10  N   -0.280818
    11  C    0.084928
    12  C    0.080201
    13  C    0.005884
    14  C   -0.133372
    15  C   -0.050127
    16  C    0.026185
    17  C   -0.130884
    18  C   -0.078163
    19  C   -0.015854
    20  C   -0.084725
    21  C    0.133774
    22  C    0.171918
    23  C   -0.063508
    24  C    0.188452
    25  C    0.008311
    26  C   -0.160616
    27  C    0.087961
    28  C    0.068795
    29  C    0.147348
    30  C    0.066621
    31  C    0.018958
    32  C    0.054601
    33  C   -0.122267
    34  C    0.137153
    35  C    0.098904
    36  C   -0.008172
    37  C    0.171016
    38  C    0.001469
    39  C   -0.153033
    40  C    0.148796
    41  C   -0.018101
    42  C    0.096866
    43  C   -0.095341
    44  H    0.033961
    45  H    0.025231
    46  H   -0.009491
    47  H    0.145306
    48  H    0.167416
    49  H    0.035484
    50  H    0.057410
    51  H   -0.041762
    52  H   -0.021053
    53  H    0.034196
    54  H    0.001537
    55  H    0.047843
    56  H    0.059495
    57  H    0.016512
    58  H    0.108733
    59  H   -0.064125
    60  H    0.161439
    61  H    0.022673
    62  H   -0.048679
    63  H   -0.052018
    64  H    0.042637
    65  H    0.026667
    66  H    0.037836
    67  H    0.027858
    68  H    0.048038
    69  H    0.025200
    70  H    0.005042
    71  H    0.016155
    72  H    0.243209
    73  H    0.017089
    74  H   -0.007939
    75  H    0.062702
    76  H    0.015615
    77  H    0.121439
    78  H    0.017260
    79  H    0.030617
 Sum of Mulliken charges =   0.00000

 Dipole moment (field-independent basis, Debye):
    X=              1.4149    Y=              1.7965    Z=              3.0515  Tot=              3.8133
 Quadrupole moment (field-independent basis, Debye-Ang):
   XX=           -212.9429   YY=           -255.6308   ZZ=           -268.2683
   XY=            -13.4155   XZ=             36.1246   YZ=              6.9740

 Normal termination of Gaussian 09 at Wed Jul 10 10:35:09 2019.
