 Gaussian 09, Revision D.01,
 Gaussian 09:  ES64L-G09RevD.01 24-Apr-2013

 --------------------------
 # td=(NStates=1) B3LYP/SVP
 --------------------------

 --
 TD
 --
 Symbolic Z-matrix:
 Charge =  0 Multiplicity = 1

                         Standard orientation:
 ---------------------------------------------------------------------
 Center     Atomic      Atomic             Coordinates (Angstroms)
 Number     Number       Type             X           Y           Z
 ---------------------------------------------------------------------
      1          8           0        5.256551   -0.460747   -3.377998
      2          8           0       -2.777229   -2.960335    3.407610
      3          8           0       -3.169236   -0.752230    3.351031
      4          8           0       -1.510704    7.118129    1.393694
      5          8           0       -0.371039    6.887454   -0.566311
      6          8           0       -2.004591   -4.028864    0.004968
      7          7           0        2.352754    0.963771    0.533844
      8          7           0        4.351334   -0.650625   -1.197890
      9          7           0       -1.817325    0.696776   -0.402091
     10          7           0       -2.719646   -1.847624   -0.519805
     11          6           0        4.868615   -1.187040    0.085630
     12          6           0        4.479051   -0.180166    1.195023
     13          6           0        2.964017    0.043011    1.385709
     14          6           0        2.003102   -0.463163    2.164148
     15          6           0        0.679732    0.071151    1.823984
     16          6           0        1.042763    1.030201    0.738047
     17          6           0        6.184922   -1.413468   -0.114332
     18          6           0       -0.606880   -0.134465    2.487233
     19          6           0        6.589289   -1.028663   -1.376951
     20          6           0        0.216005    1.910983    0.020836
     21          6           0       -1.092917    1.829631   -0.413842
     22          6           0        5.375649   -0.644791   -2.141575
     23          6           0       -1.830661    2.905963   -0.958697
     24          6           0        2.240945   -1.476890    3.167320
     25          6           0        7.120361   -1.931442    0.901518
     26          6           0       -3.166495    2.406117   -1.241357
     27          6           0       -1.181594   -1.538318    2.484763
     28          6           0       -3.056500    0.913667   -1.036120
     29          6           0       -1.368302    4.316177   -0.907257
     30          6           0        7.956155   -0.966915   -1.988158
     31          6           0       -1.572191    5.105182    0.332981
     32          6           0       -4.303567    3.082435   -1.836598
     33          6           0       -4.081031   -0.012234   -1.347550
     34          6           0       -2.465407   -1.693967    3.140494
     35          6           0       -3.867831   -1.415874   -1.081490
     36          6           0        9.218293   -0.994672   -1.621065
     37          6           0       -1.192454    6.442144    0.301180
     38          6           0       -4.723709   -2.505342   -1.344603
     39          6           0       -4.125760   -3.756222   -1.064163
     40          6           0       -2.826187   -3.305124   -0.419521
     41          6           0       -6.128216   -2.323204   -1.980893
     42          6           0       -4.501784   -5.149893   -1.070928
     43          6           0       -6.750611   -3.252598   -2.728274
     44          1           0        4.312290   -2.173728    0.286609
     45          1           0        5.007307    0.664905    0.935807
     46          1           0        4.771592   -0.698271    2.323188
     47          1           0        2.930932    1.256955   -0.175965
     48          1           0        3.345034   -0.652958   -1.422374
     49          1           0       -0.454996    0.312377    3.514903
     50          1           0       -1.383372    0.475560    2.040557
     51          1           0        0.745932    2.785146   -0.179792
     52          1           0        3.308188   -1.545324    3.333199
     53          1           0        1.659036   -1.352869    4.265453
     54          1           0        2.178528   -2.520474    2.769712
     55          1           0        6.585641   -2.359508    1.755871
     56          1           0        8.009172   -0.969297    1.028409
     57          1           0        7.798826   -2.846919    0.471350
     58          1           0       -1.146099   -2.088060    1.499371
     59          1           0       -0.396084   -2.087947    3.257046
     60          1           0       -1.727413   -0.288507   -0.278460
     61          1           0       -1.818929    4.924421   -1.663309
     62          1           0       -0.258971    4.245592   -1.297199
     63          1           0        7.952957   -0.801327   -3.126397
     64          1           0       -0.883355    4.414093    1.040845
     65          1           0       -2.700633    4.991021    0.711636
     66          1           0       -3.912817    4.137934   -2.099398
     67          1           0       -5.270189    3.355104   -1.182822
     68          1           0       -4.869023    2.726748   -2.659209
     69          1           0       -5.017676    0.351975   -1.894564
     70          1           0        9.553440   -1.188759   -0.649992
     71          1           0        9.904720   -1.141064   -2.407989
     72          1           0       -3.647081   -2.967485    3.749526
     73          1           0       -6.684421   -1.439316   -1.695546
     74          1           0       -4.155116   -5.591272   -2.183428
     75          1           0       -4.028754   -5.788185   -0.189400
     76          1           0       -5.698097   -5.430949   -1.070128
     77          1           0       -0.875027    8.029334    1.309498
     78          1           0       -7.809290   -3.144533   -2.955007
     79          1           0       -6.466922   -4.251032   -3.097320
 ---------------------------------------------------------------------

 SCF Done:  E(RB3LYP) =  -1947.83071193     A.U. after   16 cycles

 Excitation energies and oscillator strengths:

 Excited State   1:      Singlet-A      1.9998 eV  619.97 nm  f=0.4110  <S**2>=0.000
     154 ->156         0.12241
     155 ->156         0.69203
     155 <-156        -0.12417
 This state for optimization and/or second-order correction.
 Total Energy, E(TD-HF/TD-KS) =  -1947.75721882
 Copying the excited state density for this state as the 1-particle RhoCI density.

 The electronic state is 1-A.
 Alpha  occ. eigenvalues --  -19.20454 -19.17147 -19.12517 -19.11529 -19.10937
 Alpha  occ. eigenvalues --  -19.09857 -14.38071 -14.36264 -14.36217 -14.28903
 Alpha  occ. eigenvalues --  -10.32381 -10.30113 -10.28969 -10.26872 -10.25493
 Alpha  occ. eigenvalues --  -10.24919 -10.24280 -10.24045 -10.23963 -10.23582
 Alpha  occ. eigenvalues --  -10.23057 -10.22896 -10.22416 -10.22092 -10.22067
 Alpha  occ. eigenvalues --  -10.21821 -10.21469 -10.21248 -10.20968 -10.20927
 Alpha  occ. eigenvalues --  -10.20749 -10.20733 -10.20639 -10.20617 -10.20434
 Alpha  occ. eigenvalues --  -10.20378 -10.20248 -10.20154 -10.19404 -10.19341
 Alpha  occ. eigenvalues --  -10.19067 -10.18986 -10.18706  -1.09912  -1.09647
 Alpha  occ. eigenvalues --   -1.04371  -1.00922  -1.00544  -0.99977  -0.98285
 Alpha  occ. eigenvalues --   -0.98210  -0.94770  -0.91390  -0.83594  -0.83191
 Alpha  occ. eigenvalues --   -0.82208  -0.81796  -0.79849  -0.79273  -0.78788
 Alpha  occ. eigenvalues --   -0.78157  -0.76984  -0.76002  -0.74771  -0.72988
 Alpha  occ. eigenvalues --   -0.71935  -0.71610  -0.69959  -0.69211  -0.68896
 Alpha  occ. eigenvalues --   -0.68656  -0.66672  -0.63865  -0.61571  -0.61064
 Alpha  occ. eigenvalues --   -0.60318  -0.59600  -0.58093  -0.57414  -0.56903
 Alpha  occ. eigenvalues --   -0.56422  -0.55745  -0.55135  -0.54293  -0.53306
 Alpha  occ. eigenvalues --   -0.52848  -0.52171  -0.51665  -0.51263  -0.49951
 Alpha  occ. eigenvalues --   -0.49552  -0.49295  -0.48623  -0.48515  -0.48391
 Alpha  occ. eigenvalues --   -0.47481  -0.47096  -0.47010  -0.46289  -0.45977
 Alpha  occ. eigenvalues --   -0.45115  -0.44689  -0.44661  -0.44139  -0.43836
 Alpha  occ. eigenvalues --   -0.43611  -0.43435  -0.43073  -0.42714  -0.42417
 Alpha  occ. eigenvalues --   -0.42365  -0.42108  -0.41801  -0.41285  -0.41054
 Alpha  occ. eigenvalues --   -0.40842  -0.40533  -0.40201  -0.40045  -0.39864
 Alpha  occ. eigenvalues --   -0.39669  -0.39209  -0.39171  -0.39115  -0.38790
 Alpha  occ. eigenvalues --   -0.38291  -0.38089  -0.37651  -0.37235  -0.36988
 Alpha  occ. eigenvalues --   -0.36590  -0.35825  -0.35292  -0.35043  -0.34153
 Alpha  occ. eigenvalues --   -0.34110  -0.33145  -0.31760  -0.31706  -0.31468
 Alpha  occ. eigenvalues --   -0.31146  -0.30281  -0.28521  -0.28055  -0.27769
 Alpha  occ. eigenvalues --   -0.26842  -0.26652  -0.25386  -0.25333  -0.25160
 Alpha  occ. eigenvalues --   -0.24479  -0.24191  -0.23797  -0.22092  -0.18777
 Alpha virt. eigenvalues --   -0.11069  -0.07083  -0.06802  -0.03202  -0.00570
 Alpha virt. eigenvalues --    0.00452   0.00654   0.01106   0.02004   0.02141
 Alpha virt. eigenvalues --    0.03130   0.03720   0.03933   0.04153   0.04722

 Mulliken charges:
               1
     1  O   -0.255455
     2  O   -0.138555
     3  O   -0.222111
     4  O   -0.215074
     5  O   -0.300840
     6  O   -0.145694
     7  N    0.003506
     8  N   -0.247773
     9  N   -0.030185
    10  N   -0.357448
    11  C    0.106346
    12  C    0.170909
    13  C   -0.090553
    14  C   -0.130438
    15  C   -0.072895
    16  C    0.055848
    17  C   -0.142004
    18  C    0.099258
    19  C   -0.026653
    20  C   -0.108186
    21  C    0.136814
    22  C    0.182189
    23  C   -0.080474
    24  C    0.065112
    25  C   -0.013943
    26  C   -0.071668
    27  C   -0.065805
    28  C    0.077577
    29  C    0.055737
    30  C   -0.029799
    31  C   -0.020067
    32  C    0.020147
    33  C   -0.112501
    34  C    0.111998
    35  C    0.119367
    36  C   -0.013918
    37  C    0.170233
    38  C   -0.008230
    39  C   -0.121991
    40  C    0.139186
    41  C    0.003642
    42  C   -0.061200
    43  C   -0.038792
    44  H    0.030933
    45  H   -0.031619
    46  H    0.043369
    47  H    0.078946
    48  H    0.141900
    49  H    0.019391
    50  H    0.000522
    51  H   -0.037407
    52  H   -0.042774
    53  H    0.053889
    54  H    0.028574
    55  H    0.026431
    56  H    0.082391
    57  H    0.066860
    58  H    0.092909
    59  H    0.035173
    60  H    0.116837
    61  H   -0.007816
    62  H    0.040947
    63  H    0.030645
    64  H    0.077395
    65  H    0.060189
    66  H    0.020420
    67  H    0.030665
    68  H    0.020145
    69  H    0.005571
    70  H   -0.018963
    71  H    0.020289
    72  H    0.154998
    73  H    0.006187
    74  H    0.060870
    75  H    0.067356
    76  H    0.045760
    77  H    0.247071
    78  H    0.013753
    79  H    0.022575
 Sum of Mulliken charges =   0.00000

 Dipole moment (field-independent basis, Debye):
    X=              0.2587    Y=              0.9766    Z=              3.8363  Tot=              3.9671
 Quadrupole moment (field-independent basis, Debye-Ang):
   XX=           -218.0037   YY=           -242.7098   ZZ=           -268.2564
   XY=             -7.6694   XZ=             33.1433   YZ=              3.6866

 Normal termination of Gaussian 09 at Mon Jul  8 17:11:18 2019.
