 Gaussian 09, Revision D.01,
 Gaussian 09:  ES64L-G09RevD.01 24-Apr-2013

 --------------------------
 # td=(NStates=1) B3LYP/SVP
 --------------------------

 --
 TD
 --
 Symbolic Z-matrix:
 Charge =  0 Multiplicity = 1

                         Standard orientation:
 ---------------------------------------------------------------------
 Center     Atomic      Atomic             Coordinates (Angstroms)
 Number     Number       Type             X           Y           Z
 ---------------------------------------------------------------------
      1          8           0        5.271907   -0.126755   -3.318960
      2          8           0       -2.754936   -3.223727    3.444100
      3          8           0       -3.183960   -0.965422    3.402786
      4          8           0       -1.423841    7.132902    1.651763
      5          8           0       -0.842813    7.077440   -0.600658
      6          8           0       -2.100192   -4.021333   -0.252890
      7          7           0        2.373747    0.925384    0.618581
      8          7           0        4.454476   -0.567030   -1.233760
      9          7           0       -1.917616    0.664265   -0.434556
     10          7           0       -2.693651   -1.869614   -0.573852
     11          6           0        4.855735   -1.200759   -0.005811
     12          6           0        4.550390   -0.377465    1.250724
     13          6           0        3.062533   -0.071425    1.365332
     14          6           0        2.052600   -0.782556    2.162262
     15          6           0        0.802941   -0.167529    1.885365
     16          6           0        1.018129    0.823007    0.923173
     17          6           0        6.365754   -1.358237   -0.249787
     18          6           0       -0.417217   -0.459915    2.560797
     19          6           0        6.672109   -0.989435   -1.500857
     20          6           0        0.248652    1.768221    0.184219
     21          6           0       -1.030431    1.712356   -0.447329
     22          6           0        5.431632   -0.571284   -2.200939
     23          6           0       -1.882984    2.827360   -0.816135
     24          6           0        2.419878   -1.700408    3.195144
     25          6           0        7.261354   -1.893516    0.740616
     26          6           0       -3.081110    2.429595   -1.148826
     27          6           0       -1.116377   -1.794571    2.420224
     28          6           0       -3.075751    1.000777   -0.866020
     29          6           0       -1.438467    4.349935   -0.787385
     30          6           0        7.999736   -0.921173   -2.184027
     31          6           0       -1.502039    5.011048    0.522881
     32          6           0       -4.251329    3.217836   -1.795558
     33          6           0       -4.153114    0.048539   -1.221755
     34          6           0       -2.472104   -1.915214    3.153933
     35          6           0       -3.946859   -1.365233   -1.067968
     36          6           0        9.238882   -0.609187   -1.710805
     37          6           0       -1.277726    6.537580    0.418891
     38          6           0       -4.905649   -2.381849   -1.436268
     39          6           0       -4.245633   -3.591917   -1.105552
     40          6           0       -2.932692   -3.184605   -0.585452
     41          6           0       -6.078321   -2.142840   -2.089505
     42          6           0       -4.732731   -4.987031   -1.318574
     43          6           0       -6.883375   -2.914877   -2.852896
     44          1           0        4.446332   -2.230811    0.018742
     45          1           0        5.030361    0.554353    1.176277
     46          1           0        4.919774   -0.833586    2.182002
     47          1           0        2.753735    1.835167    0.070708
     48          1           0        3.482597   -0.553814   -1.603572
     49          1           0       -0.278256   -0.203023    3.659337
     50          1           0       -1.211874    0.307967    2.052728
     51          1           0        0.719577    2.574570    0.106187
     52          1           0        3.601268   -1.631680    3.541276
     53          1           0        1.614294   -1.517665    3.937708
     54          1           0        2.165242   -2.869460    3.059488
     55          1           0        6.835302   -2.475611    1.572472
     56          1           0        7.607108   -1.009115    1.440834
     57          1           0        8.312576   -2.180897    0.272325
     58          1           0       -1.342081   -1.977618    1.321695
     59          1           0       -0.715178   -2.669156    2.764019
     60          1           0       -1.779329   -0.448158   -0.589654
     61          1           0       -2.023642    5.000274   -1.482569
     62          1           0       -0.372279    4.282415   -0.944196
     63          1           0        7.856768   -0.995536   -3.398407
     64          1           0       -0.739081    4.593803    1.480238
     65          1           0       -2.643164    4.976622    0.844008
     66          1           0       -4.031564    4.321397   -1.573480
     67          1           0       -5.176857    3.017546   -1.167753
     68          1           0       -4.487748    2.951855   -2.739043
     69          1           0       -4.813960    0.516747   -1.797706
     70          1           0        9.509452   -0.244301   -0.601636
     71          1           0       10.230363   -0.743805   -2.321172
     72          1           0       -3.688300   -3.282351    3.867336
     73          1           0       -6.425059   -1.002683   -1.898251
     74          1           0       -4.613563   -5.347320   -2.387406
     75          1           0       -3.901569   -5.730538   -0.930442
     76          1           0       -5.617486   -5.383106   -0.740970
     77          1           0       -1.164507    8.053283    1.586106
     78          1           0       -7.947974   -2.768548   -3.324865
     79          1           0       -6.697782   -4.014450   -3.049035
 ---------------------------------------------------------------------

 SCF Done:  E(RB3LYP) =  -1947.83097021     A.U. after   19 cycles

 Excitation energies and oscillator strengths:

 Excited State   1:      Singlet-A      2.1010 eV  590.12 nm  f=0.3506  <S**2>=0.000
     154 ->156         0.30874
     155 ->156         0.63181
 This state for optimization and/or second-order correction.
 Total Energy, E(TD-HF/TD-KS) =  -1947.75376049
 Copying the excited state density for this state as the 1-particle RhoCI density.

 The electronic state is 1-A.
 Alpha  occ. eigenvalues --  -19.19512 -19.17374 -19.14235 -19.11116 -19.09878
 Alpha  occ. eigenvalues --  -19.07774 -14.40242 -14.36464 -14.35177 -14.29126
 Alpha  occ. eigenvalues --  -10.33660 -10.30458 -10.28180 -10.25432 -10.24872
 Alpha  occ. eigenvalues --  -10.24841 -10.24494 -10.24325 -10.23725 -10.23672
 Alpha  occ. eigenvalues --  -10.23525 -10.22470 -10.22204 -10.22162 -10.22150
 Alpha  occ. eigenvalues --  -10.22135 -10.21886 -10.21805 -10.21144 -10.20924
 Alpha  occ. eigenvalues --  -10.20870 -10.20474 -10.20340 -10.20311 -10.20201
 Alpha  occ. eigenvalues --  -10.20147 -10.20091 -10.19932 -10.19878 -10.19356
 Alpha  occ. eigenvalues --  -10.19342 -10.18797 -10.17886  -1.09575  -1.06790
 Alpha  occ. eigenvalues --   -1.02815  -1.01358  -1.00990  -0.99810  -0.98689
 Alpha  occ. eigenvalues --   -0.97716  -0.94590  -0.90659  -0.83291  -0.82678
 Alpha  occ. eigenvalues --   -0.82526  -0.82044  -0.80669  -0.79727  -0.78645
 Alpha  occ. eigenvalues --   -0.77229  -0.76142  -0.75335  -0.74159  -0.72675
 Alpha  occ. eigenvalues --   -0.71789  -0.71640  -0.69860  -0.68839  -0.68320
 Alpha  occ. eigenvalues --   -0.66980  -0.66748  -0.63664  -0.61757  -0.60520
 Alpha  occ. eigenvalues --   -0.60315  -0.59093  -0.58438  -0.58036  -0.57032
 Alpha  occ. eigenvalues --   -0.56027  -0.55431  -0.54434  -0.53607  -0.52470
 Alpha  occ. eigenvalues --   -0.52161  -0.51358  -0.50859  -0.50060  -0.49894
 Alpha  occ. eigenvalues --   -0.49327  -0.48658  -0.48134  -0.47910  -0.47454
 Alpha  occ. eigenvalues --   -0.47244  -0.47155  -0.46582  -0.46369  -0.45336
 Alpha  occ. eigenvalues --   -0.45115  -0.44723  -0.44639  -0.44141  -0.43907
 Alpha  occ. eigenvalues --   -0.43717  -0.43468  -0.43137  -0.42928  -0.42486
 Alpha  occ. eigenvalues --   -0.42337  -0.42223  -0.41995  -0.41561  -0.41167
 Alpha  occ. eigenvalues --   -0.41058  -0.40508  -0.40197  -0.39985  -0.39693
 Alpha  occ. eigenvalues --   -0.39643  -0.39195  -0.39133  -0.38776  -0.38401
 Alpha  occ. eigenvalues --   -0.38196  -0.37894  -0.37428  -0.37073  -0.36901
 Alpha  occ. eigenvalues --   -0.35976  -0.35314  -0.34813  -0.34273  -0.33749
 Alpha  occ. eigenvalues --   -0.33713  -0.33609  -0.32336  -0.31551  -0.30967
 Alpha  occ. eigenvalues --   -0.30672  -0.30594  -0.29046  -0.28137  -0.27854
 Alpha  occ. eigenvalues --   -0.27168  -0.26608  -0.26168  -0.25924  -0.25037
 Alpha  occ. eigenvalues --   -0.24376  -0.23273  -0.22742  -0.21670  -0.19507
 Alpha virt. eigenvalues --   -0.11104  -0.07114  -0.05602  -0.02283  -0.01281
 Alpha virt. eigenvalues --   -0.00154   0.00060   0.01455   0.01996   0.02333
 Alpha virt. eigenvalues --    0.02443   0.03486   0.04776   0.04927   0.04967

 Mulliken charges:
               1
     1  O   -0.213725
     2  O   -0.222953
     3  O   -0.229006
     4  O   -0.189549
     5  O   -0.236925
     6  O   -0.228934
     7  N   -0.174698
     8  N   -0.206114
     9  N   -0.038916
    10  N   -0.306061
    11  C    0.120188
    12  C    0.279100
    13  C   -0.104883
    14  C   -0.079526
    15  C   -0.002124
    16  C    0.119244
    17  C   -0.189002
    18  C   -0.024376
    19  C   -0.048822
    20  C   -0.021697
    21  C    0.075299
    22  C    0.126657
    23  C   -0.108062
    24  C   -0.001625
    25  C    0.049499
    26  C   -0.140088
    27  C    0.047150
    28  C   -0.033091
    29  C    0.155541
    30  C   -0.022655
    31  C   -0.113927
    32  C    0.142129
    33  C   -0.032190
    34  C    0.115919
    35  C    0.128150
    36  C   -0.117934
    37  C    0.160565
    38  C    0.102922
    39  C   -0.163713
    40  C    0.122827
    41  C   -0.056440
    42  C    0.026533
    43  C   -0.107003
    44  H    0.029553
    45  H   -0.033146
    46  H   -0.008963
    47  H    0.181687
    48  H    0.137191
    49  H    0.026575
    50  H    0.043422
    51  H   -0.116165
    52  H    0.045549
    53  H    0.015496
    54  H    0.042847
    55  H    0.017610
    56  H    0.029289
    57  H    0.058794
    58  H    0.085954
    59  H   -0.018015
    60  H    0.211587
    61  H    0.037522
    62  H   -0.006415
    63  H    0.061401
    64  H    0.083936
    65  H    0.048117
    66  H    0.021442
    67  H    0.024310
    68  H    0.018677
    69  H   -0.078290
    70  H    0.044394
    71  H    0.054121
    72  H    0.205212
    73  H    0.023319
    74  H    0.040263
    75  H    0.018825
    76  H    0.046741
    77  H    0.178595
    78  H    0.045475
    79  H    0.025404
 Sum of Mulliken charges =   0.00000

 Dipole moment (field-independent basis, Debye):
    X=              1.9480    Y=              3.2319    Z=              4.1244  Tot=              5.5903
 Quadrupole moment (field-independent basis, Debye-Ang):
   XX=           -219.2243   YY=           -245.5615   ZZ=           -264.1647
   XY=             -6.8387   XZ=             33.7369   YZ=              5.5554

 Normal termination of Gaussian 09 at Mon Jul  8 11:32:27 2019.
