 Gaussian 09, Revision D.01,
 Gaussian 09:  ES64L-G09RevD.01 24-Apr-2013

 --------------------------
 # td=(NStates=1) B3LYP/SVP
 --------------------------

 --
 TD
 --
 Symbolic Z-matrix:
 Charge =  0 Multiplicity = 1

                         Standard orientation:
 ---------------------------------------------------------------------
 Center     Atomic      Atomic             Coordinates (Angstroms)
 Number     Number       Type             X           Y           Z
 ---------------------------------------------------------------------
      1          8           0        5.098237   -0.151648   -3.357809
      2          8           0       -2.581005   -3.284363    3.374199
      3          8           0       -3.290717   -1.053954    3.122885
      4          8           0       -1.978648    7.414680    1.314320
      5          8           0       -0.477365    6.933467   -0.390536
      6          8           0       -1.728540   -4.045798   -0.240546
      7          7           0        2.348857    0.955630    0.797837
      8          7           0        4.352715   -0.364274   -1.248146
      9          7           0       -1.826864    0.643306   -0.296151
     10          7           0       -2.591709   -1.914931   -0.550894
     11          6           0        4.756850   -1.142975   -0.025784
     12          6           0        4.455194   -0.330515    1.327131
     13          6           0        3.016096   -0.015347    1.485070
     14          6           0        1.980867   -0.622940    2.233815
     15          6           0        0.769527   -0.179079    1.898854
     16          6           0        0.986685    0.874055    0.957698
     17          6           0        6.245471   -1.255716   -0.312760
     18          6           0       -0.471938   -0.314736    2.689641
     19          6           0        6.621261   -0.813766   -1.554619
     20          6           0        0.195260    1.906737    0.367425
     21          6           0       -1.149584    1.828731   -0.142563
     22          6           0        5.327186   -0.366599   -2.215343
     23          6           0       -1.905283    2.880698   -0.771697
     24          6           0        2.296175   -1.696289    3.219383
     25          6           0        7.194385   -1.711691    0.803378
     26          6           0       -3.089252    2.388996   -1.177313
     27          6           0       -1.044034   -1.800204    2.607202
     28          6           0       -2.996886    0.963088   -0.913477
     29          6           0       -1.511606    4.343729   -0.784154
     30          6           0        7.850370   -0.628642   -2.239140
     31          6           0       -1.969885    5.229016    0.327984
     32          6           0       -4.405868    2.901898   -1.830327
     33          6           0       -3.964710   -0.070360   -1.328435
     34          6           0       -2.389232   -1.960929    3.009762
     35          6           0       -3.709930   -1.454905   -1.127256
     36          6           0        9.184520   -0.706569   -1.753247
     37          6           0       -1.386645    6.645220    0.341286
     38          6           0       -4.561134   -2.563898   -1.549507
     39          6           0       -4.000751   -3.736738   -1.195231
     40          6           0       -2.678585   -3.355602   -0.537501
     41          6           0       -5.989044   -2.286270   -2.060908
     42          6           0       -4.361459   -5.115718   -1.309960
     43          6           0       -6.728139   -3.240489   -2.759352
     44          1           0        4.323851   -2.200699   -0.032776
     45          1           0        5.058909    0.527552    1.261657
     46          1           0        4.839615   -0.907071    2.263828
     47          1           0        2.730526    1.260204   -0.091024
     48          1           0        3.400269   -0.784737   -1.662983
     49          1           0       -0.182112   -0.177740    3.766544
     50          1           0       -1.321106    0.427665    2.334853
     51          1           0        0.678987    2.816787    0.130327
     52          1           0        3.406688   -1.855956    3.195745
     53          1           0        2.005196   -1.701320    4.331798
     54          1           0        1.938598   -2.680275    2.779109
     55          1           0        6.690502   -2.540092    1.195613
     56          1           0        7.529986   -1.115761    1.775931
     57          1           0        8.035783   -2.474695    0.577427
     58          1           0       -1.004179   -2.323517    1.563443
     59          1           0       -0.285535   -2.504903    3.101889
     60          1           0       -1.713158   -0.413655   -0.048696
     61          1           0       -1.970494    4.804098   -1.669860
     62          1           0       -0.312287    4.481580   -0.988447
     63          1           0        7.645118   -0.487180   -3.302660
     64          1           0       -1.707726    4.794704    1.271930
     65          1           0       -3.135736    5.407801    0.355391
     66          1           0       -4.371194    3.969227   -2.041917
     67          1           0       -5.290082    2.454491   -1.180036
     68          1           0       -4.460864    2.504943   -2.826041
     69          1           0       -4.802382    0.414449   -1.851556
     70          1           0        9.387461   -0.768495   -0.667533
     71          1           0       10.091269   -0.205371   -2.416487
     72          1           0       -3.560899   -3.344386    3.455334
     73          1           0       -6.275097   -1.330664   -1.755201
     74          1           0       -4.132602   -5.758835   -2.296968
     75          1           0       -3.820850   -5.579871   -0.193379
     76          1           0       -5.444846   -5.052411   -1.102964
     77          1           0       -1.535647    8.246651    1.453283
     78          1           0       -7.740123   -2.983826   -3.166750
     79          1           0       -6.407824   -4.209007   -3.097761
 ---------------------------------------------------------------------

 SCF Done:  E(RB3LYP) =  -1947.89529468     A.U. after   17 cycles

 Excitation energies and oscillator strengths:

 Excited State   1:      Singlet-A      2.0618 eV  601.35 nm  f=0.4993  <S**2>=0.000
     154 ->156         0.12387
     155 ->156         0.69526
     155 <-156        -0.12597
 This state for optimization and/or second-order correction.
 Total Energy, E(TD-HF/TD-KS) =  -1947.81952619
 Copying the excited state density for this state as the 1-particle RhoCI density.

 The electronic state is 1-A.
 Alpha  occ. eigenvalues --  -19.19106 -19.17016 -19.13780 -19.11611 -19.11284
 Alpha  occ. eigenvalues --  -19.10345 -14.38370 -14.36749 -14.36132 -14.28171
 Alpha  occ. eigenvalues --  -10.33057 -10.30895 -10.29234 -10.26787 -10.25990
 Alpha  occ. eigenvalues --  -10.24199 -10.23803 -10.23619 -10.23465 -10.23202
 Alpha  occ. eigenvalues --  -10.22987 -10.22306 -10.22291 -10.21925 -10.21908
 Alpha  occ. eigenvalues --  -10.21586 -10.21361 -10.21346 -10.21329 -10.21256
 Alpha  occ. eigenvalues --  -10.20924 -10.20675 -10.20579 -10.20524 -10.20448
 Alpha  occ. eigenvalues --  -10.20366 -10.19944 -10.19595 -10.19314 -10.18979
 Alpha  occ. eigenvalues --  -10.18943 -10.18908 -10.18808  -1.09681  -1.06209
 Alpha  occ. eigenvalues --   -1.05613  -1.02309  -1.01346  -0.99812  -0.98114
 Alpha  occ. eigenvalues --   -0.96273  -0.94433  -0.90785  -0.82634  -0.82451
 Alpha  occ. eigenvalues --   -0.82269  -0.81427  -0.79474  -0.79033  -0.77774
 Alpha  occ. eigenvalues --   -0.77098  -0.76275  -0.75182  -0.73904  -0.71918
 Alpha  occ. eigenvalues --   -0.71320  -0.71274  -0.69165  -0.68607  -0.68215
 Alpha  occ. eigenvalues --   -0.67835  -0.66297  -0.63300  -0.61758  -0.60967
 Alpha  occ. eigenvalues --   -0.60106  -0.58590  -0.57844  -0.57474  -0.56615
 Alpha  occ. eigenvalues --   -0.55490  -0.55390  -0.54808  -0.53925  -0.53071
 Alpha  occ. eigenvalues --   -0.52185  -0.51157  -0.50689  -0.50228  -0.49719
 Alpha  occ. eigenvalues --   -0.49086  -0.48528  -0.48313  -0.47940  -0.47032
 Alpha  occ. eigenvalues --   -0.46564  -0.46479  -0.46276  -0.45843  -0.45248
 Alpha  occ. eigenvalues --   -0.44555  -0.44336  -0.44162  -0.43960  -0.43494
 Alpha  occ. eigenvalues --   -0.43346  -0.42962  -0.42863  -0.42539  -0.42414
 Alpha  occ. eigenvalues --   -0.42096  -0.41941  -0.40989  -0.40943  -0.40860
 Alpha  occ. eigenvalues --   -0.40589  -0.40305  -0.40202  -0.39925  -0.39739
 Alpha  occ. eigenvalues --   -0.39625  -0.39346  -0.38924  -0.38681  -0.38391
 Alpha  occ. eigenvalues --   -0.38233  -0.37962  -0.37952  -0.37298  -0.36367
 Alpha  occ. eigenvalues --   -0.36251  -0.35501  -0.35399  -0.34683  -0.34127
 Alpha  occ. eigenvalues --   -0.33863  -0.33722  -0.33136  -0.32733  -0.32563
 Alpha  occ. eigenvalues --   -0.29850  -0.29827  -0.29064  -0.28835  -0.27974
 Alpha  occ. eigenvalues --   -0.26905  -0.26767  -0.26503  -0.26382  -0.26005
 Alpha  occ. eigenvalues --   -0.24482  -0.23941  -0.23324  -0.21738  -0.18201
 Alpha virt. eigenvalues --   -0.10318  -0.07945  -0.06033  -0.00937  -0.00735
 Alpha virt. eigenvalues --   -0.00243  -0.00185   0.00731   0.02087   0.03492
 Alpha virt. eigenvalues --    0.03558   0.03780   0.04792   0.04962   0.05595

 Mulliken charges:
               1
     1  O   -0.175210
     2  O   -0.207486
     3  O   -0.296278
     4  O   -0.195903
     5  O   -0.202854
     6  O   -0.198581
     7  N   -0.045663
     8  N   -0.232426
     9  N   -0.083040
    10  N   -0.334257
    11  C    0.029939
    12  C    0.221172
    13  C   -0.092298
    14  C   -0.126362
    15  C   -0.037503
    16  C    0.052250
    17  C   -0.181763
    18  C    0.067330
    19  C    0.000149
    20  C   -0.068666
    21  C    0.077985
    22  C    0.115077
    23  C   -0.092800
    24  C    0.050441
    25  C    0.039272
    26  C   -0.111502
    27  C   -0.072917
    28  C   -0.001061
    29  C    0.042942
    30  C   -0.026145
    31  C   -0.000026
    32  C    0.112053
    33  C   -0.103110
    34  C    0.176837
    35  C    0.142555
    36  C   -0.067625
    37  C    0.139847
    38  C    0.000595
    39  C   -0.173198
    40  C    0.154966
    41  C    0.026286
    42  C   -0.024906
    43  C   -0.031868
    44  H    0.052637
    45  H   -0.023067
    46  H    0.032631
    47  H    0.123311
    48  H    0.167129
    49  H    0.023602
    50  H    0.056839
    51  H   -0.030340
    52  H   -0.024090
    53  H    0.042825
    54  H    0.037403
    55  H   -0.016212
    56  H    0.068332
    57  H    0.029826
    58  H    0.095502
    59  H    0.037958
    60  H    0.188290
    61  H    0.002739
    62  H    0.048740
    63  H    0.019052
    64  H    0.027467
    65  H    0.049329
    66  H    0.006329
    67  H    0.064299
    68  H    0.026462
    69  H   -0.031294
    70  H    0.038214
    71  H    0.064148
    72  H    0.180562
    73  H   -0.014805
    74  H    0.076560
    75  H    0.052005
    76  H    0.027371
    77  H    0.177768
    78  H    0.029344
    79  H    0.026888
 Sum of Mulliken charges =   0.00000

 Dipole moment (field-independent basis, Debye):
    X=              2.4341    Y=              2.5577    Z=              2.8684  Tot=              4.5491
 Quadrupole moment (field-independent basis, Debye-Ang):
   XX=           -219.8072   YY=           -241.0255   ZZ=           -262.7245
   XY=            -14.9979   XZ=             33.2436   YZ=              4.2410

 Normal termination of Gaussian 09 at Tue Jul  9 03:27:18 2019.
