 Gaussian 09, Revision D.01,
 Gaussian 09:  ES64L-G09RevD.01 24-Apr-2013

 --------------------------
 # td=(NStates=1) B3LYP/SVP
 --------------------------

 --
 TD
 --
 Symbolic Z-matrix:
 Charge =  0 Multiplicity = 1

                         Standard orientation:
 ---------------------------------------------------------------------
 Center     Atomic      Atomic             Coordinates (Angstroms)
 Number     Number       Type             X           Y           Z
 ---------------------------------------------------------------------
      1          8           0        5.393679   -0.219856   -3.314614
      2          8           0       -2.829575   -2.877461    3.266943
      3          8           0       -3.175709   -0.705455    3.292671
      4          8           0       -2.016626    7.240464    1.273384
      5          8           0       -0.638732    6.906973   -0.628426
      6          8           0       -1.924462   -4.244738    0.102681
      7          7           0        2.335262    1.024705    0.587994
      8          7           0        4.365406   -0.822866   -1.267439
      9          7           0       -1.893598    0.712338   -0.228117
     10          7           0       -2.671442   -2.057397   -0.474325
     11          6           0        4.831755   -1.116293    0.076422
     12          6           0        4.486876   -0.137163    1.252882
     13          6           0        2.998246    0.076854    1.300157
     14          6           0        2.035086   -0.515203    2.126218
     15          6           0        0.738640    0.010217    1.786001
     16          6           0        0.983819    0.922041    0.798697
     17          6           0        6.395747   -1.254873   -0.121893
     18          6           0       -0.468237   -0.175032    2.522548
     19          6           0        6.699640   -0.858526   -1.401375
     20          6           0        0.175286    1.896827    0.166712
     21          6           0       -1.091925    1.772755   -0.227503
     22          6           0        5.435275   -0.636978   -2.115016
     23          6           0       -1.845897    2.794942   -0.936458
     24          6           0        2.220596   -1.619308    3.161352
     25          6           0        7.238292   -1.830069    0.943247
     26          6           0       -3.075386    2.238059   -1.277714
     27          6           0       -1.026979   -1.666175    2.558947
     28          6           0       -2.966628    0.855452   -0.884197
     29          6           0       -1.498574    4.313856   -0.934894
     30          6           0        7.919132   -0.733067   -2.227348
     31          6           0       -1.778172    5.100979    0.396100
     32          6           0       -4.217064    2.905689   -1.890555
     33          6           0       -3.929792   -0.127289   -1.186132
     34          6           0       -2.400041   -1.603652    3.103879
     35          6           0       -3.754331   -1.456605   -1.055376
     36          6           0        9.174871   -0.688426   -1.616165
     37          6           0       -1.354790    6.480904    0.310837
     38          6           0       -4.729462   -2.587765   -1.433001
     39          6           0       -4.116219   -3.747323   -1.005279
     40          6           0       -2.708315   -3.393664   -0.377810
     41          6           0       -5.953090   -2.339542   -2.282225
     42          6           0       -4.521527   -5.258936   -1.187102
     43          6           0       -6.808783   -3.227279   -2.826524
     44          1           0        4.383333   -2.123403    0.206260
     45          1           0        4.797123    0.817194    0.907358
     46          1           0        4.874722   -0.642370    2.243450
     47          1           0        2.641120    1.608669   -0.179081
     48          1           0        3.479856   -0.810723   -1.636080
     49          1           0       -0.447844   -0.014830    3.604656
     50          1           0       -1.184812    0.532952    2.140100
     51          1           0        0.519281    2.987194    0.160020
     52          1           0        3.271511   -1.826453    3.462879
     53          1           0        1.767211   -1.432341    4.153023
     54          1           0        1.944442   -2.709169    2.912340
     55          1           0        6.633807   -2.495539    1.431355
     56          1           0        7.503136   -1.095978    1.670241
     57          1           0        8.300528   -2.215898    0.601746
     58          1           0       -0.716076   -2.292021    1.653957
     59          1           0       -0.365470   -2.119202    3.330810
     60          1           0       -1.498712   -0.380306   -0.038061
     61          1           0       -1.818804    4.904524   -1.864708
     62          1           0       -0.399750    4.410805   -1.092118
     63          1           0        7.709465   -0.584459   -3.347511
     64          1           0       -1.305938    4.760338    1.442688
     65          1           0       -2.841941    5.157431    0.647960
     66          1           0       -3.919336    3.957177   -2.062433
     67          1           0       -5.164958    2.928132   -1.224281
     68          1           0       -4.763838    2.471980   -2.756942
     69          1           0       -4.900497    0.290824   -1.583275
     70          1           0        9.365101   -0.691254   -0.486844
     71          1           0       10.201225   -0.913830   -2.345123
     72          1           0       -3.831762   -2.854559    3.461977
     73          1           0       -6.159206   -1.300473   -2.144074
     74          1           0       -4.713370   -5.272605   -2.311358
     75          1           0       -3.804326   -5.837888   -0.551725
     76          1           0       -5.433574   -5.365055   -0.669909
     77          1           0       -1.990643    8.167063    1.135691
     78          1           0       -7.619366   -2.924259   -3.407865
     79          1           0       -6.457940   -4.260962   -2.837590
 ---------------------------------------------------------------------

 SCF Done:  E(RB3LYP) =  -1947.89561985     A.U. after   17 cycles

 Excitation energies and oscillator strengths:

 Excited State   1:      Singlet-A      2.0704 eV  598.85 nm  f=0.0620  <S**2>=0.000
     153 ->156         0.46543
     154 ->156        -0.27686
     155 ->156        -0.44068
 This state for optimization and/or second-order correction.
 Total Energy, E(TD-HF/TD-KS) =  -1947.81953533
 Copying the excited state density for this state as the 1-particle RhoCI density.

 The electronic state is 1-A.
 Alpha  occ. eigenvalues --  -19.19344 -19.15855 -19.14223 -19.11687 -19.09417
 Alpha  occ. eigenvalues --  -19.09303 -14.39319 -14.38378 -14.35855 -14.28214
 Alpha  occ. eigenvalues --  -10.33893 -10.30693 -10.28196 -10.26156 -10.25763
 Alpha  occ. eigenvalues --  -10.25125 -10.24354 -10.24136 -10.23705 -10.23365
 Alpha  occ. eigenvalues --  -10.23048 -10.23024 -10.22988 -10.22902 -10.22708
 Alpha  occ. eigenvalues --  -10.22298 -10.22156 -10.21447 -10.21355 -10.21310
 Alpha  occ. eigenvalues --  -10.20988 -10.20780 -10.20448 -10.19899 -10.19806
 Alpha  occ. eigenvalues --  -10.19582 -10.19365 -10.19358 -10.19012 -10.18961
 Alpha  occ. eigenvalues --  -10.18883 -10.18260 -10.18250  -1.09030  -1.08017
 Alpha  occ. eigenvalues --   -1.03122  -1.00858  -1.00688  -1.00335  -0.98475
 Alpha  occ. eigenvalues --   -0.98303  -0.93736  -0.90594  -0.84139  -0.83051
 Alpha  occ. eigenvalues --   -0.82629  -0.82365  -0.80781  -0.79490  -0.78241
 Alpha  occ. eigenvalues --   -0.77656  -0.77048  -0.75945  -0.73904  -0.73085
 Alpha  occ. eigenvalues --   -0.72204  -0.72020  -0.70627  -0.69678  -0.68844
 Alpha  occ. eigenvalues --   -0.67972  -0.66803  -0.64528  -0.61741  -0.60565
 Alpha  occ. eigenvalues --   -0.60527  -0.59210  -0.59102  -0.58875  -0.58253
 Alpha  occ. eigenvalues --   -0.57690  -0.56314  -0.55966  -0.54450  -0.52938
 Alpha  occ. eigenvalues --   -0.52220  -0.51394  -0.50974  -0.50667  -0.50084
 Alpha  occ. eigenvalues --   -0.49675  -0.48881  -0.48691  -0.47940  -0.47863
 Alpha  occ. eigenvalues --   -0.47678  -0.47089  -0.46934  -0.46448  -0.45822
 Alpha  occ. eigenvalues --   -0.45691  -0.44903  -0.44804  -0.44364  -0.44032
 Alpha  occ. eigenvalues --   -0.43403  -0.42985  -0.42840  -0.42765  -0.42603
 Alpha  occ. eigenvalues --   -0.42246  -0.41882  -0.41823  -0.41574  -0.41284
 Alpha  occ. eigenvalues --   -0.40912  -0.40597  -0.40318  -0.40211  -0.40185
 Alpha  occ. eigenvalues --   -0.39586  -0.39194  -0.38905  -0.38848  -0.38583
 Alpha  occ. eigenvalues --   -0.38209  -0.37909  -0.37753  -0.37627  -0.37261
 Alpha  occ. eigenvalues --   -0.36805  -0.35860  -0.35461  -0.34569  -0.34326
 Alpha  occ. eigenvalues --   -0.33801  -0.33591  -0.33496  -0.32747  -0.31168
 Alpha  occ. eigenvalues --   -0.30809  -0.30630  -0.29297  -0.28719  -0.27425
 Alpha  occ. eigenvalues --   -0.26932  -0.26286  -0.25559  -0.25245  -0.25036
 Alpha  occ. eigenvalues --   -0.24128  -0.23636  -0.22129  -0.21555  -0.20161
 Alpha virt. eigenvalues --   -0.11121  -0.06430  -0.05503  -0.02722  -0.00477
 Alpha virt. eigenvalues --   -0.00114   0.00415   0.00767   0.02145   0.02803
 Alpha virt. eigenvalues --    0.03359   0.04179   0.04311   0.04833   0.05036

 Mulliken charges:
               1
     1  O   -0.290340
     2  O   -0.214034
     3  O   -0.221303
     4  O   -0.207594
     5  O   -0.257788
     6  O   -0.255519
     7  N   -0.045483
     8  N   -0.166794
     9  N    0.007724
    10  N   -0.283741
    11  C    0.051453
    12  C    0.292986
    13  C   -0.114366
    14  C   -0.112490
    15  C   -0.022765
    16  C    0.054451
    17  C   -0.203463
    18  C    0.049911
    19  C   -0.028916
    20  C   -0.133843
    21  C    0.037855
    22  C    0.135431
    23  C   -0.071374
    24  C    0.037811
    25  C    0.132267
    26  C   -0.100765
    27  C   -0.060383
    28  C    0.053432
    29  C    0.052102
    30  C    0.003621
    31  C   -0.005272
    32  C    0.073027
    33  C   -0.137815
    34  C    0.159646
    35  C    0.120893
    36  C   -0.110470
    37  C    0.164068
    38  C    0.000858
    39  C   -0.295024
    40  C    0.173178
    41  C    0.009220
    42  C    0.108687
    43  C    0.017081
    44  H    0.021921
    45  H   -0.031919
    46  H    0.040917
    47  H    0.116309
    48  H    0.104300
    49  H    0.003980
    50  H    0.007939
    51  H    0.028901
    52  H   -0.019367
    53  H    0.022215
    54  H    0.047403
    55  H   -0.003183
    56  H    0.018761
    57  H    0.051814
    58  H    0.091220
    59  H    0.027003
    60  H    0.217277
    61  H    0.044056
    62  H    0.015912
    63  H    0.059062
    64  H    0.069557
    65  H    0.039783
    66  H    0.018962
    67  H    0.027631
    68  H    0.029921
    69  H   -0.008709
    70  H    0.043834
    71  H    0.057357
    72  H    0.195714
    73  H   -0.027264
    74  H    0.060598
    75  H    0.040010
    76  H    0.003734
    77  H    0.174089
    78  H    0.007225
    79  H    0.006878
 Sum of Mulliken charges =   0.00000

 Dipole moment (field-independent basis, Debye):
    X=              0.8516    Y=              5.0230    Z=              4.1718  Tot=              6.5848
 Quadrupole moment (field-independent basis, Debye-Ang):
   XX=           -229.2791   YY=           -250.0534   ZZ=           -264.7191
   XY=            -24.5620   XZ=             35.7291   YZ=              1.6687

 Normal termination of Gaussian 09 at Tue Jul  9 15:52:29 2019.
