 Gaussian 09, Revision D.01,
 Gaussian 09:  ES64L-G09RevD.01 24-Apr-2013

 --------------------------
 # td=(NStates=1) B3LYP/SVP
 --------------------------

 --
 TD
 --
 Symbolic Z-matrix:
 Charge =  0 Multiplicity = 1

                         Standard orientation:
 ---------------------------------------------------------------------
 Center     Atomic      Atomic             Coordinates (Angstroms)
 Number     Number       Type             X           Y           Z
 ---------------------------------------------------------------------
      1          8           0        5.311852   -0.149443   -3.311054
      2          8           0       -2.767791   -3.193781    3.212972
      3          8           0       -3.212478   -1.035796    3.263131
      4          8           0       -1.537772    7.238548    1.485047
      5          8           0       -0.560164    6.976637   -0.465261
      6          8           0       -2.051913   -4.090669   -0.308207
      7          7           0        2.465244    0.891395    0.619292
      8          7           0        4.494421   -0.414093   -1.231815
      9          7           0       -1.899698    0.671965   -0.369222
     10          7           0       -2.750215   -1.908427   -0.603196
     11          6           0        4.843097   -1.122452   -0.021571
     12          6           0        4.533525   -0.327306    1.263004
     13          6           0        3.065038   -0.014447    1.345983
     14          6           0        2.044149   -0.626311    2.161981
     15          6           0        0.834100   -0.025913    1.794143
     16          6           0        1.080563    0.944488    0.826192
     17          6           0        6.361364   -1.412708   -0.244056
     18          6           0       -0.439679   -0.324521    2.425830
     19          6           0        6.740539   -0.976421   -1.498648
     20          6           0        0.273576    1.949930    0.095806
     21          6           0       -1.081221    1.804948   -0.329996
     22          6           0        5.477478   -0.424720   -2.128290
     23          6           0       -1.792763    2.846386   -0.834354
     24          6           0        2.206021   -1.786771    3.178274
     25          6           0        7.225477   -2.004034    0.865672
     26          6           0       -2.997925    2.377659   -1.186862
     27          6           0       -1.001193   -1.727697    2.393064
     28          6           0       -3.049213    1.034526   -0.916187
     29          6           0       -1.357922    4.368373   -0.781209
     30          6           0        7.984098   -0.900107   -2.252444
     31          6           0       -1.569877    4.976314    0.549547
     32          6           0       -4.271033    3.136482   -1.716533
     33          6           0       -4.094160    0.022410   -1.223727
     34          6           0       -2.366812   -1.926835    3.069975
     35          6           0       -3.788008   -1.346035   -1.059657
     36          6           0        9.192128   -1.009783   -1.549816
     37          6           0       -1.216498    6.501600    0.485637
     38          6           0       -4.894461   -2.447454   -1.420449
     39          6           0       -4.314875   -3.552224   -1.130121
     40          6           0       -2.886063   -3.261109   -0.679209
     41          6           0       -6.199795   -2.075299   -2.076104
     42          6           0       -4.786132   -4.976330   -1.101673
     43          6           0       -7.096187   -2.886287   -2.560011
     44          1           0        4.289236   -2.143175   -0.162495
     45          1           0        5.047833    0.474891    1.211666
     46          1           0        4.761148   -0.903347    2.149909
     47          1           0        2.862037    1.400869   -0.069743
     48          1           0        3.346579   -0.824794   -1.450142
     49          1           0       -0.544134   -0.308961    3.527667
     50          1           0       -1.183049    0.344529    2.077325
     51          1           0        0.848500    2.926148   -0.158097
     52          1           0        3.397190   -1.942429    3.267471
     53          1           0        1.627578   -1.549054    4.201081
     54          1           0        1.649007   -2.624758    2.699278
     55          1           0        6.452284   -2.754572    1.285643
     56          1           0        7.589362   -1.292239    1.680722
     57          1           0        7.962231   -2.866461    0.557285
     58          1           0       -1.078425   -2.179791    1.440652
     59          1           0       -0.325078   -2.457206    2.920860
     60          1           0       -1.677652   -0.325696   -0.211679
     61          1           0       -1.839999    5.008256   -1.551525
     62          1           0       -0.294761    4.398928   -1.166567
     63          1           0        7.908110   -0.363413   -3.219303
     64          1           0       -1.033542    4.564011    1.637278
     65          1           0       -2.502556    4.938256    0.804944
     66          1           0       -4.182694    4.142277   -1.414995
     67          1           0       -5.208389    2.598347   -1.128451
     68          1           0       -4.426577    2.603670   -2.729506
     69          1           0       -5.186030    0.254815   -1.660819
     70          1           0        9.245333   -1.272395   -0.458813
     71          1           0       10.040043   -0.820424   -2.232521
     72          1           0       -3.562687   -2.976589    3.670250
     73          1           0       -6.574340   -1.187471   -2.058020
     74          1           0       -4.711416   -5.472649   -2.026079
     75          1           0       -4.208181   -5.596320   -0.249071
     76          1           0       -5.761042   -5.027104   -0.766080
     77          1           0       -1.350619    8.251569    1.333317
     78          1           0       -8.014355   -2.387372   -3.185989
     79          1           0       -6.927113   -4.130310   -2.949028
 ---------------------------------------------------------------------

 SCF Done:  E(RB3LYP) =  -1947.77861531     A.U. after   17 cycles

 Excitation energies and oscillator strengths:

 Excited State   1:      Singlet-A      2.2440 eV  552.51 nm  f=0.6064  <S**2>=0.000
     155 ->156         0.70778
     155 <-156        -0.12852
 This state for optimization and/or second-order correction.
 Total Energy, E(TD-HF/TD-KS) =  -1947.69614961
 Copying the excited state density for this state as the 1-particle RhoCI density.

 The electronic state is 1-A.
 Alpha  occ. eigenvalues --  -19.20532 -19.17410 -19.11935 -19.11475 -19.09726
 Alpha  occ. eigenvalues --  -19.09337 -14.38935 -14.37063 -14.36880 -14.28339
 Alpha  occ. eigenvalues --  -10.32785 -10.31301 -10.28374 -10.26140 -10.25590
 Alpha  occ. eigenvalues --  -10.24345 -10.24296 -10.24207 -10.24076 -10.23660
 Alpha  occ. eigenvalues --  -10.23179 -10.23158 -10.22406 -10.22390 -10.22387
 Alpha  occ. eigenvalues --  -10.21846 -10.21640 -10.21530 -10.21385 -10.21312
 Alpha  occ. eigenvalues --  -10.21232 -10.20973 -10.20312 -10.19769 -10.19680
 Alpha  occ. eigenvalues --  -10.19591 -10.19546 -10.19470 -10.18802 -10.18750
 Alpha  occ. eigenvalues --  -10.18743 -10.17636 -10.17098  -1.11774  -1.10378
 Alpha  occ. eigenvalues --   -1.02782  -1.01196  -1.00588  -1.00020  -0.99009
 Alpha  occ. eigenvalues --   -0.98078  -0.94717  -0.92942  -0.83497  -0.83198
 Alpha  occ. eigenvalues --   -0.81901  -0.81696  -0.80389  -0.79811  -0.78994
 Alpha  occ. eigenvalues --   -0.77695  -0.76564  -0.75919  -0.74725  -0.72381
 Alpha  occ. eigenvalues --   -0.71020  -0.70809  -0.69315  -0.68784  -0.68388
 Alpha  occ. eigenvalues --   -0.67995  -0.66771  -0.64295  -0.62197  -0.61386
 Alpha  occ. eigenvalues --   -0.60176  -0.58950  -0.57840  -0.57745  -0.56708
 Alpha  occ. eigenvalues --   -0.56638  -0.56144  -0.55743  -0.54247  -0.53622
 Alpha  occ. eigenvalues --   -0.53105  -0.52287  -0.51164  -0.50391  -0.49469
 Alpha  occ. eigenvalues --   -0.49056  -0.48831  -0.48613  -0.48379  -0.48156
 Alpha  occ. eigenvalues --   -0.47612  -0.47241  -0.46846  -0.46619  -0.45757
 Alpha  occ. eigenvalues --   -0.45622  -0.45397  -0.44531  -0.44336  -0.43780
 Alpha  occ. eigenvalues --   -0.43471  -0.43234  -0.43003  -0.42804  -0.42527
 Alpha  occ. eigenvalues --   -0.42431  -0.42294  -0.41744  -0.41461  -0.41168
 Alpha  occ. eigenvalues --   -0.40770  -0.40486  -0.40374  -0.40021  -0.39863
 Alpha  occ. eigenvalues --   -0.39758  -0.39471  -0.39127  -0.39081  -0.38466
 Alpha  occ. eigenvalues --   -0.37578  -0.37489  -0.37170  -0.36982  -0.36051
 Alpha  occ. eigenvalues --   -0.35771  -0.35709  -0.34987  -0.34535  -0.34418
 Alpha  occ. eigenvalues --   -0.33243  -0.33086  -0.32594  -0.32441  -0.32038
 Alpha  occ. eigenvalues --   -0.31343  -0.30809  -0.29384  -0.27905  -0.27375
 Alpha  occ. eigenvalues --   -0.26991  -0.26698  -0.26041  -0.25593  -0.25235
 Alpha  occ. eigenvalues --   -0.24262  -0.24008  -0.23628  -0.23114  -0.19006
 Alpha virt. eigenvalues --   -0.10619  -0.07016  -0.05040  -0.02419  -0.00780
 Alpha virt. eigenvalues --   -0.00036   0.00250   0.00702   0.01385   0.01712
 Alpha virt. eigenvalues --    0.02611   0.03654   0.03880   0.04646   0.04869

 Mulliken charges:
               1
     1  O   -0.233730
     2  O   -0.126277
     3  O   -0.281785
     4  O   -0.154253
     5  O   -0.285375
     6  O   -0.220356
     7  N    0.043742
     8  N   -0.216563
     9  N   -0.042370
    10  N   -0.187488
    11  C   -0.037048
    12  C    0.448477
    13  C   -0.208713
    14  C   -0.157771
    15  C   -0.025942
    16  C    0.025357
    17  C   -0.176896
    18  C    0.090789
    19  C   -0.032590
    20  C   -0.112742
    21  C    0.095804
    22  C    0.108840
    23  C   -0.095288
    24  C    0.028065
    25  C    0.002987
    26  C   -0.164286
    27  C   -0.006004
    28  C    0.093342
    29  C    0.091129
    30  C   -0.026215
    31  C    0.060558
    32  C    0.094080
    33  C   -0.156718
    34  C    0.120177
    35  C    0.017221
    36  C   -0.028394
    37  C    0.099799
    38  C    0.074383
    39  C   -0.252244
    40  C    0.135184
    41  C    0.095950
    42  C    0.120268
    43  C   -0.143717
    44  H    0.040990
    45  H   -0.087152
    46  H   -0.015486
    47  H    0.073800
    48  H    0.202839
    49  H    0.002156
    50  H   -0.007154
    51  H    0.035484
    52  H    0.030323
    53  H    0.048938
    54  H    0.063476
    55  H    0.021675
    56  H    0.071010
    57  H    0.056021
    58  H    0.044604
    59  H    0.012453
    60  H    0.149150
    61  H    0.023296
    62  H    0.026218
    63  H    0.035455
    64  H    0.072591
    65  H   -0.032761
    66  H    0.022169
    67  H    0.038217
    68  H    0.053383
    69  H    0.019452
    70  H    0.047423
    71  H    0.038422
    72  H    0.149437
    73  H   -0.073119
    74  H    0.015699
    75  H    0.035161
    76  H   -0.007816
    77  H    0.231215
    78  H    0.037029
    79  H    0.052015
 Sum of Mulliken charges =   0.00000

 Dipole moment (field-independent basis, Debye):
    X=              2.9498    Y=              4.0212    Z=              4.3753  Tot=              6.6344
 Quadrupole moment (field-independent basis, Debye-Ang):
   XX=           -222.0129   YY=           -245.0167   ZZ=           -264.3251
   XY=            -21.4869   XZ=             29.8158   YZ=              5.2763

 Normal termination of Gaussian 09 at Wed Jul 10 21:18:28 2019.
