 Gaussian 09, Revision D.01,
 Gaussian 09:  ES64L-G09RevD.01 24-Apr-2013

 --------------------------
 # td=(NStates=1) B3LYP/SVP
 --------------------------

 --
 TD
 --
 Symbolic Z-matrix:
 Charge =  0 Multiplicity = 1

                         Standard orientation:
 ---------------------------------------------------------------------
 Center     Atomic      Atomic             Coordinates (Angstroms)
 Number     Number       Type             X           Y           Z
 ---------------------------------------------------------------------
      1          8           0        5.266165   -0.270229   -3.322889
      2          8           0       -3.023190   -3.116520    2.982931
      3          8           0       -3.255725   -0.923191    3.393901
      4          8           0       -1.219824    7.257826    1.535703
      5          8           0       -0.318987    6.853669   -0.441166
      6          8           0       -2.099017   -4.006105   -0.198810
      7          7           0        2.474836    0.862626    0.765851
      8          7           0        4.258583   -0.812346   -1.338961
      9          7           0       -1.752645    0.741939   -0.375101
     10          7           0       -2.730412   -1.788969   -0.542599
     11          6           0        4.764077   -1.169039    0.068066
     12          6           0        4.473783   -0.434452    1.402052
     13          6           0        2.979789   -0.244765    1.484901
     14          6           0        1.990884   -0.797319    2.224978
     15          6           0        0.745396   -0.203762    1.775621
     16          6           0        1.092692    0.922570    0.900835
     17          6           0        6.334094   -1.399424   -0.216977
     18          6           0       -0.550456   -0.378521    2.466991
     19          6           0        6.570351   -0.880376   -1.363982
     20          6           0        0.279271    1.921684    0.251302
     21          6           0       -0.956625    1.822853   -0.250658
     22          6           0        5.399630   -0.552349   -2.142599
     23          6           0       -1.822489    2.971104   -0.701648
     24          6           0        2.136349   -1.960780    3.181237
     25          6           0        7.307655   -2.028795    0.768326
     26          6           0       -2.999148    2.387192   -1.238303
     27          6           0       -1.204161   -1.800588    2.261968
     28          6           0       -2.960605    0.964089   -0.937268
     29          6           0       -1.410703    4.298942   -0.752778
     30          6           0        7.947091   -0.855688   -2.137211
     31          6           0       -1.742867    5.115549    0.483073
     32          6           0       -4.108155    3.207053   -1.884165
     33          6           0       -3.920525    0.117007   -1.306987
     34          6           0       -2.545962   -1.834852    2.984617
     35          6           0       -3.811596   -1.261183   -1.110666
     36          6           0        9.256940   -0.772335   -1.710823
     37          6           0       -1.011683    6.476101    0.458717
     38          6           0       -4.884536   -2.296324   -1.375270
     39          6           0       -4.320140   -3.502822   -1.069064
     40          6           0       -2.915564   -3.221236   -0.638189
     41          6           0       -6.149978   -2.002642   -2.027993
     42          6           0       -4.691744   -4.909897   -1.189901
     43          6           0       -7.013546   -2.834391   -2.694771
     44          1           0        4.342687   -2.196494    0.356073
     45          1           0        4.982804    0.571307    1.545071
     46          1           0        4.856692   -1.091397    2.172174
     47          1           0        3.057481    1.339024    0.150288
     48          1           0        3.186027   -0.604754   -1.609325
     49          1           0       -0.421703   -0.393237    3.626628
     50          1           0       -1.224455    0.421410    2.113918
     51          1           0        0.708481    2.839735    0.071590
     52          1           0        3.222322   -2.067428    3.337017
     53          1           0        1.936225   -1.793804    4.139628
     54          1           0        1.741505   -3.052963    2.830150
     55          1           0        6.696295   -2.783668    1.527751
     56          1           0        7.907537   -1.123061    1.218767
     57          1           0        8.063001   -2.615516   -0.064177
     58          1           0       -1.441055   -2.139326    1.132336
     59          1           0       -0.731437   -2.736736    2.771077
     60          1           0       -1.436695   -0.545232   -0.526357
     61          1           0       -1.754855    4.861262   -1.566424
     62          1           0       -0.338716    4.240485   -0.906960
     63          1           0        7.846378   -0.796394   -3.320787
     64          1           0       -1.471654    4.712513    1.527600
     65          1           0       -2.844938    5.295809    0.491784
     66          1           0       -3.862485    4.135305   -1.869795
     67          1           0       -5.051811    3.025145   -1.243598
     68          1           0       -4.487197    2.748885   -2.913558
     69          1           0       -4.811320    0.744264   -1.638337
     70          1           0        9.568325   -0.867001   -0.582871
     71          1           0       10.067203   -0.552947   -2.584070
     72          1           0       -3.793279   -3.071599    3.354254
     73          1           0       -6.458681   -1.022221   -2.062552
     74          1           0       -4.645755   -5.097267   -2.304742
     75          1           0       -4.022315   -5.578744   -0.684590
     76          1           0       -5.807689   -5.188770   -0.902668
     77          1           0       -0.823838    8.165336    1.391919
     78          1           0       -7.977069   -2.436490   -3.082116
     79          1           0       -6.869052   -3.907419   -2.837374
 ---------------------------------------------------------------------

 SCF Done:  E(RB3LYP) =  -1947.83643841     A.U. after   16 cycles

 Excitation energies and oscillator strengths:

 Excited State   1:      Singlet-A      2.0799 eV  596.10 nm  f=0.4011  <S**2>=0.000
     155 ->156         0.70029
 This state for optimization and/or second-order correction.
 Total Energy, E(TD-HF/TD-KS) =  -1947.76000212
 Copying the excited state density for this state as the 1-particle RhoCI density.

 The electronic state is 1-A.
 Alpha  occ. eigenvalues --  -19.18701 -19.15019 -19.13042 -19.11368 -19.10896
 Alpha  occ. eigenvalues --  -19.09841 -14.37890 -14.35954 -14.35633 -14.30586
 Alpha  occ. eigenvalues --  -10.32528 -10.30023 -10.28559 -10.27285 -10.26022
 Alpha  occ. eigenvalues --  -10.24668 -10.24015 -10.23667 -10.23424 -10.23415
 Alpha  occ. eigenvalues --  -10.22901 -10.22669 -10.22415 -10.22283 -10.21930
 Alpha  occ. eigenvalues --  -10.21878 -10.20860 -10.20729 -10.20603 -10.20494
 Alpha  occ. eigenvalues --  -10.20456 -10.20372 -10.20359 -10.20340 -10.20285
 Alpha  occ. eigenvalues --  -10.19832 -10.19588 -10.19583 -10.19478 -10.19364
 Alpha  occ. eigenvalues --  -10.19336 -10.19151 -10.18843  -1.10333  -1.08859
 Alpha  occ. eigenvalues --   -1.02453  -1.01919  -1.01074  -0.98535  -0.97833
 Alpha  occ. eigenvalues --   -0.97417  -0.92481  -0.91321  -0.83746  -0.82185
 Alpha  occ. eigenvalues --   -0.81575  -0.81052  -0.80882  -0.79782  -0.77300
 Alpha  occ. eigenvalues --   -0.77159  -0.75878  -0.75499  -0.74172  -0.72466
 Alpha  occ. eigenvalues --   -0.71533  -0.71013  -0.70143  -0.69035  -0.68036
 Alpha  occ. eigenvalues --   -0.67302  -0.65619  -0.63518  -0.61135  -0.60763
 Alpha  occ. eigenvalues --   -0.59276  -0.58745  -0.58315  -0.57958  -0.56326
 Alpha  occ. eigenvalues --   -0.56120  -0.55589  -0.54422  -0.53667  -0.52427
 Alpha  occ. eigenvalues --   -0.51536  -0.50756  -0.50528  -0.49700  -0.49464
 Alpha  occ. eigenvalues --   -0.48392  -0.48205  -0.47793  -0.47345  -0.47172
 Alpha  occ. eigenvalues --   -0.46664  -0.46490  -0.46317  -0.45790  -0.45457
 Alpha  occ. eigenvalues --   -0.44967  -0.44494  -0.44204  -0.44057  -0.43727
 Alpha  occ. eigenvalues --   -0.43269  -0.42981  -0.42944  -0.42334  -0.42241
 Alpha  occ. eigenvalues --   -0.41908  -0.41581  -0.41371  -0.41044  -0.40969
 Alpha  occ. eigenvalues --   -0.40854  -0.40366  -0.40134  -0.39970  -0.39584
 Alpha  occ. eigenvalues --   -0.39272  -0.39216  -0.38952  -0.38784  -0.38484
 Alpha  occ. eigenvalues --   -0.38310  -0.37770  -0.37462  -0.37153  -0.36931
 Alpha  occ. eigenvalues --   -0.36637  -0.36075  -0.35922  -0.35361  -0.34636
 Alpha  occ. eigenvalues --   -0.34302  -0.33046  -0.32900  -0.32246  -0.31312
 Alpha  occ. eigenvalues --   -0.30461  -0.30448  -0.29119  -0.28690  -0.28292
 Alpha  occ. eigenvalues --   -0.26213  -0.26025  -0.25581  -0.25356  -0.24883
 Alpha  occ. eigenvalues --   -0.24712  -0.24495  -0.23891  -0.22819  -0.19089
 Alpha virt. eigenvalues --   -0.10799  -0.06464  -0.05028  -0.00943   0.00104
 Alpha virt. eigenvalues --    0.00261   0.00935   0.01501   0.01685   0.02897
 Alpha virt. eigenvalues --    0.03473   0.03726   0.04269   0.05205   0.05291

 Mulliken charges:
               1
     1  O   -0.217741
     2  O   -0.118406
     3  O   -0.250947
     4  O   -0.200828
     5  O   -0.215682
     6  O   -0.189294
     7  N   -0.074601
     8  N   -0.299759
     9  N   -0.165055
    10  N   -0.337748
    11  C    0.073706
    12  C    0.185004
    13  C   -0.076125
    14  C   -0.122947
    15  C   -0.099080
    16  C    0.088376
    17  C   -0.151968
    18  C    0.089450
    19  C   -0.035700
    20  C   -0.055844
    21  C    0.099293
    22  C    0.181537
    23  C   -0.067708
    24  C    0.142186
    25  C   -0.052370
    26  C   -0.157089
    27  C   -0.108566
    28  C    0.113680
    29  C    0.109217
    30  C   -0.044603
    31  C   -0.034438
    32  C    0.151974
    33  C   -0.159331
    34  C    0.120666
    35  C    0.152380
    36  C   -0.108073
    37  C    0.118154
    38  C    0.094366
    39  C   -0.196589
    40  C    0.175646
    41  C   -0.008751
    42  C    0.062360
    43  C   -0.036678
    44  H    0.021889
    45  H    0.017325
    46  H   -0.012731
    47  H    0.086505
    48  H    0.177739
    49  H    0.022648
    50  H    0.029358
    51  H   -0.060692
    52  H   -0.038508
    53  H   -0.025897
    54  H    0.065464
    55  H    0.068186
    56  H    0.078032
    57  H    0.084403
    58  H    0.116942
    59  H    0.042591
    60  H    0.260346
    61  H   -0.003162
    62  H    0.006945
    63  H    0.055189
    64  H    0.057855
    65  H    0.043136
    66  H   -0.045883
    67  H    0.032982
    68  H    0.042736
    69  H   -0.015954
    70  H    0.040161
    71  H    0.063161
    72  H    0.098659
    73  H   -0.040312
    74  H    0.041388
    75  H    0.031938
    76  H    0.038064
    77  H    0.200632
    78  H    0.031665
    79  H    0.015125
 Sum of Mulliken charges =   0.00000

 Dipole moment (field-independent basis, Debye):
    X=              0.3049    Y=              2.4429    Z=              2.4226  Tot=              3.4539
 Quadrupole moment (field-independent basis, Debye-Ang):
   XX=           -218.8461   YY=           -239.3160   ZZ=           -266.7375
   XY=             -7.6639   XZ=             39.1060   YZ=              2.3808

 Normal termination of Gaussian 09 at Wed Jul 10 03:32:54 2019.
