 Gaussian 09, Revision D.01,
 Gaussian 09:  ES64L-G09RevD.01 24-Apr-2013

 --------------------------
 # td=(NStates=1) B3LYP/SVP
 --------------------------

 --
 TD
 --
 Symbolic Z-matrix:
 Charge =  0 Multiplicity = 1

                         Standard orientation:
 ---------------------------------------------------------------------
 Center     Atomic      Atomic             Coordinates (Angstroms)
 Number     Number       Type             X           Y           Z
 ---------------------------------------------------------------------
      1          8           0        5.388294   -0.096389   -3.301357
      2          8           0       -2.822808   -3.219703    3.332142
      3          8           0       -3.294858   -0.977999    3.113213
      4          8           0       -1.486853    7.228722    1.650624
      5          8           0       -0.935749    7.073529   -0.660193
      6          8           0       -2.032462   -4.031452   -0.055204
      7          7           0        2.340169    0.887036    0.740033
      8          7           0        4.473975   -0.577299   -1.297775
      9          7           0       -1.826549    0.669017   -0.307190
     10          7           0       -2.575040   -1.903656   -0.589169
     11          6           0        4.872293   -1.194545   -0.042393
     12          6           0        4.489218   -0.235597    1.191680
     13          6           0        3.004070   -0.065865    1.389466
     14          6           0        1.959097   -0.759189    2.165577
     15          6           0        0.740933   -0.150292    1.864186
     16          6           0        0.999794    0.883116    0.912523
     17          6           0        6.396887   -1.380562   -0.255297
     18          6           0       -0.532451   -0.386653    2.627211
     19          6           0        6.721126   -0.764045   -1.439696
     20          6           0        0.254307    1.821863    0.272375
     21          6           0       -1.053728    1.715273   -0.236510
     22          6           0        5.532076   -0.444581   -2.188420
     23          6           0       -1.791773    2.886166   -0.759333
     24          6           0        2.145064   -1.891198    3.101640
     25          6           0        7.260408   -1.891726    0.848075
     26          6           0       -3.018729    2.399867   -1.232117
     27          6           0       -1.098570   -1.781229    2.597026
     28          6           0       -3.017768    0.930248   -0.973742
     29          6           0       -1.360685    4.258495   -0.713203
     30          6           0        7.982771   -0.716509   -2.081956
     31          6           0       -1.886701    5.125831    0.427108
     32          6           0       -4.231883    3.216647   -1.778983
     33          6           0       -3.945114    0.028958   -1.362461
     34          6           0       -2.511603   -1.927338    3.003299
     35          6           0       -3.780618   -1.376050   -1.082389
     36          6           0        9.226259   -0.619551   -1.581322
     37          6           0       -1.434862    6.601247    0.378608
     38          6           0       -4.706273   -2.405923   -1.571192
     39          6           0       -4.116279   -3.587402   -1.254647
     40          6           0       -2.882868   -3.280539   -0.599432
     41          6           0       -6.078441   -2.234280   -2.058440
     42          6           0       -4.555389   -4.992025   -1.368437
     43          6           0       -6.821792   -3.182906   -2.784099
     44          1           0        3.997541   -2.125875   -0.025574
     45          1           0        5.091564    0.720892    1.054601
     46          1           0        4.788058   -0.804088    2.148337
     47          1           0        2.847371    1.388872    0.027598
     48          1           0        3.461721   -0.743370   -1.688770
     49          1           0       -0.364267   -0.081147    3.692142
     50          1           0       -1.303981    0.317830    2.487138
     51          1           0        0.777566    2.690339    0.263493
     52          1           0        3.223554   -2.399444    3.231447
     53          1           0        1.924789   -1.624887    4.317258
     54          1           0        1.552852   -2.715887    2.639928
     55          1           0        6.550143   -2.747015    1.255490
     56          1           0        7.714281   -1.323825    1.681930
     57          1           0        8.042041   -2.341649    0.165411
     58          1           0       -0.971050   -2.157847    1.653130
     59          1           0       -0.622916   -2.452819    3.237380
     60          1           0       -1.643468   -0.408766   -0.042909
     61          1           0       -1.582401    4.690004   -1.715393
     62          1           0       -0.151729    4.302788   -0.582833
     63          1           0        7.788497   -0.606831   -3.125348
     64          1           0       -1.429596    4.720421    1.371524
     65          1           0       -3.138221    5.078773    0.452187
     66          1           0       -4.075225    4.365139   -1.806142
     67          1           0       -5.236847    3.151178   -1.267625
     68          1           0       -4.322665    2.890379   -2.830911
     69          1           0       -4.887235    0.261720   -1.853287
     70          1           0        9.526291   -0.878832   -0.530555
     71          1           0       10.172867   -0.547295   -2.087319
     72          1           0       -3.798429   -3.255471    3.618328
     73          1           0       -6.516135   -1.216572   -1.918672
     74          1           0       -4.360156   -5.346076   -2.410181
     75          1           0       -3.886337   -5.651752   -0.503151
     76          1           0       -5.806593   -5.055000   -1.403005
     77          1           0       -1.212430    8.186387    1.685731
     78          1           0       -7.706791   -2.950496   -3.171733
     79          1           0       -6.407696   -4.267340   -2.962973
 ---------------------------------------------------------------------

 SCF Done:  E(RB3LYP) =  -1947.87121118     A.U. after   19 cycles

 Excitation energies and oscillator strengths:

 Excited State   1:      Singlet-A      1.9408 eV  638.84 nm  f=0.4851  <S**2>=0.000
     154 ->156         0.12456
     155 ->156         0.69704
     155 <-156        -0.14003
 This state for optimization and/or second-order correction.
 Total Energy, E(TD-HF/TD-KS) =  -1947.79988948
 Copying the excited state density for this state as the 1-particle RhoCI density.

 The electronic state is 1-A.
 Alpha  occ. eigenvalues --  -19.18963 -19.17244 -19.13975 -19.11039 -19.10353
 Alpha  occ. eigenvalues --  -19.09321 -14.38755 -14.36593 -14.35136 -14.29157
 Alpha  occ. eigenvalues --  -10.33843 -10.30574 -10.28031 -10.26535 -10.25366
 Alpha  occ. eigenvalues --  -10.24291 -10.23881 -10.23675 -10.23413 -10.23413
 Alpha  occ. eigenvalues --  -10.23259 -10.23196 -10.22314 -10.22205 -10.21653
 Alpha  occ. eigenvalues --  -10.21618 -10.21366 -10.21333 -10.21141 -10.21107
 Alpha  occ. eigenvalues --  -10.20651 -10.20504 -10.20444 -10.20336 -10.20255
 Alpha  occ. eigenvalues --  -10.20211 -10.20171 -10.19745 -10.19359 -10.19327
 Alpha  occ. eigenvalues --  -10.19004 -10.18468 -10.17126  -1.06827  -1.06612
 Alpha  occ. eigenvalues --   -1.05098  -1.00660  -0.99955  -0.99147  -0.98589
 Alpha  occ. eigenvalues --   -0.97896  -0.94024  -0.90380  -0.83070  -0.82598
 Alpha  occ. eigenvalues --   -0.82187  -0.81548  -0.80211  -0.79176  -0.77580
 Alpha  occ. eigenvalues --   -0.77336  -0.76487  -0.75662  -0.74494  -0.72438
 Alpha  occ. eigenvalues --   -0.71716  -0.70683  -0.69707  -0.68362  -0.67806
 Alpha  occ. eigenvalues --   -0.67505  -0.65751  -0.63519  -0.62384  -0.61194
 Alpha  occ. eigenvalues --   -0.60276  -0.59154  -0.58524  -0.57680  -0.57036
 Alpha  occ. eigenvalues --   -0.56144  -0.55499  -0.54735  -0.54159  -0.53696
 Alpha  occ. eigenvalues --   -0.51586  -0.50962  -0.50402  -0.49997  -0.49520
 Alpha  occ. eigenvalues --   -0.48927  -0.48404  -0.47658  -0.47382  -0.47362
 Alpha  occ. eigenvalues --   -0.46939  -0.46516  -0.46265  -0.45890  -0.45366
 Alpha  occ. eigenvalues --   -0.44911  -0.44834  -0.44469  -0.44211  -0.44046
 Alpha  occ. eigenvalues --   -0.44015  -0.43001  -0.42819  -0.42774  -0.42644
 Alpha  occ. eigenvalues --   -0.41895  -0.41524  -0.41353  -0.41014  -0.40989
 Alpha  occ. eigenvalues --   -0.40277  -0.40257  -0.39933  -0.39879  -0.39725
 Alpha  occ. eigenvalues --   -0.39453  -0.38688  -0.38485  -0.38217  -0.38037
 Alpha  occ. eigenvalues --   -0.37899  -0.37752  -0.37345  -0.37126  -0.36866
 Alpha  occ. eigenvalues --   -0.36731  -0.35792  -0.34607  -0.34125  -0.33998
 Alpha  occ. eigenvalues --   -0.33596  -0.33384  -0.32846  -0.32627  -0.32137
 Alpha  occ. eigenvalues --   -0.30706  -0.30610  -0.28583  -0.28017  -0.27763
 Alpha  occ. eigenvalues --   -0.26509  -0.26396  -0.25971  -0.25375  -0.25221
 Alpha  occ. eigenvalues --   -0.24832  -0.24076  -0.23455  -0.22079  -0.18097
 Alpha virt. eigenvalues --   -0.10894  -0.07361  -0.06360  -0.02326  -0.01479
 Alpha virt. eigenvalues --    0.00557   0.01012   0.01573   0.02426   0.02729
 Alpha virt. eigenvalues --    0.03309   0.03832   0.04165   0.04554   0.05218

 Mulliken charges:
               1
     1  O   -0.167605
     2  O   -0.217111
     3  O   -0.257289
     4  O   -0.255569
     5  O   -0.238302
     6  O   -0.240043
     7  N    0.006468
     8  N   -0.253947
     9  N   -0.068411
    10  N   -0.317937
    11  C   -0.004969
    12  C    0.169832
    13  C   -0.123964
    14  C   -0.105146
    15  C   -0.074382
    16  C    0.095497
    17  C   -0.113872
    18  C    0.101636
    19  C   -0.072242
    20  C   -0.137343
    21  C    0.111780
    22  C    0.137355
    23  C   -0.074995
    24  C   -0.032604
    25  C    0.017262
    26  C   -0.111554
    27  C    0.087675
    28  C    0.162162
    29  C    0.030241
    30  C    0.025514
    31  C   -0.039610
    32  C    0.038406
    33  C   -0.120877
    34  C    0.132499
    35  C    0.073085
    36  C   -0.045306
    37  C    0.198869
    38  C    0.037498
    39  C   -0.137427
    40  C    0.139276
    41  C   -0.052889
    42  C   -0.023558
    43  C   -0.004306
    44  H    0.049454
    45  H    0.017346
    46  H    0.020713
    47  H    0.106860
    48  H    0.158453
    49  H   -0.002435
    50  H   -0.012055
    51  H   -0.060085
    52  H    0.016327
    53  H    0.050213
    54  H    0.058948
    55  H    0.041482
    56  H    0.067415
    57  H    0.050432
    58  H    0.029187
    59  H    0.004048
    60  H    0.209343
    61  H    0.036473
    62  H    0.026009
    63  H    0.001773
    64  H    0.045849
    65  H    0.073700
    66  H    0.025481
    67  H    0.044870
    68  H    0.034339
    69  H   -0.030205
    70  H    0.016750
    71  H    0.024117
    72  H    0.202707
    73  H    0.008726
    74  H    0.042774
    75  H    0.083204
    76  H    0.041717
    77  H    0.205917
    78  H   -0.007804
    79  H    0.044156
 Sum of Mulliken charges =   0.00000

 Dipole moment (field-independent basis, Debye):
    X=              1.4142    Y=              2.3159    Z=              3.2210  Tot=              4.2116
 Quadrupole moment (field-independent basis, Debye-Ang):
   XX=           -210.1184   YY=           -247.1454   ZZ=           -262.7396
   XY=            -10.4286   XZ=             31.4128   YZ=              9.7428

 Normal termination of Gaussian 09 at Mon Jul  8 14:14:37 2019.
