 Gaussian 09, Revision D.01,
 Gaussian 09:  ES64L-G09RevD.01 24-Apr-2013

 --------------------------
 # td=(NStates=1) B3LYP/SVP
 --------------------------

 --
 TD
 --
 Symbolic Z-matrix:
 Charge =  0 Multiplicity = 1

                         Standard orientation:
 ---------------------------------------------------------------------
 Center     Atomic      Atomic             Coordinates (Angstroms)
 Number     Number       Type             X           Y           Z
 ---------------------------------------------------------------------
      1          8           0        5.383203   -0.179384   -3.432680
      2          8           0       -2.727133   -3.168496    3.263706
      3          8           0       -3.203661   -0.916899    3.014830
      4          8           0       -1.322544    7.284769    1.468192
      5          8           0       -0.624045    7.043366   -0.671792
      6          8           0       -2.042169   -4.040851   -0.025081
      7          7           0        2.346750    0.895150    0.591604
      8          7           0        4.471474   -0.630676   -1.238326
      9          7           0       -1.921877    0.625427   -0.237626
     10          7           0       -2.661971   -1.779738   -0.589859
     11          6           0        4.788637   -1.177244    0.043361
     12          6           0        4.588166   -0.248028    1.206129
     13          6           0        3.035030    0.028564    1.376425
     14          6           0        2.054814   -0.605304    2.252241
     15          6           0        0.804672   -0.110597    1.834443
     16          6           0        1.013112    0.896851    0.824054
     17          6           0        6.331316   -1.355257   -0.227516
     18          6           0       -0.489574   -0.373342    2.620930
     19          6           0        6.696690   -0.853638   -1.458902
     20          6           0        0.202323    1.785196    0.107698
     21          6           0       -1.175999    1.758342   -0.290509
     22          6           0        5.425979   -0.490181   -2.276432
     23          6           0       -1.993056    2.907610   -0.686725
     24          6           0        2.309149   -1.535880    3.318101
     25          6           0        7.205160   -1.831092    0.909297
     26          6           0       -3.196863    2.331457   -1.103373
     27          6           0       -1.069667   -1.687649    2.397613
     28          6           0       -3.148245    0.855147   -0.845606
     29          6           0       -1.488697    4.342364   -0.839107
     30          6           0        7.920096   -1.017202   -2.113977
     31          6           0       -1.686000    5.065543    0.469144
     32          6           0       -4.446415    3.086494   -1.832682
     33          6           0       -4.117152   -0.006319   -1.229492
     34          6           0       -2.483962   -1.861740    2.896862
     35          6           0       -3.757374   -1.328358   -1.100336
     36          6           0        9.172118   -1.010327   -1.700283
     37          6           0       -1.157121    6.532431    0.359556
     38          6           0       -4.756448   -2.493829   -1.476446
     39          6           0       -4.159175   -3.642463   -1.092399
     40          6           0       -2.797134   -3.200311   -0.517992
     41          6           0       -6.116117   -2.263912   -2.074071
     42          6           0       -4.528988   -5.066897   -1.114889
     43          6           0       -6.889058   -3.186586   -2.575808
     44          1           0        4.244967   -2.266450    0.267844
     45          1           0        5.051950    0.804587    0.931473
     46          1           0        4.835777   -0.623004    2.264171
     47          1           0        2.721450    1.562610   -0.152333
     48          1           0        3.390961   -0.528411   -1.489812
     49          1           0       -0.316201   -0.121197    3.634312
     50          1           0       -1.039540    0.649540    2.342100
     51          1           0        0.733337    2.836358   -0.045599
     52          1           0        3.284629   -1.511498    3.622654
     53          1           0        1.681806   -1.132676    4.106013
     54          1           0        1.911627   -2.446082    2.975292
     55          1           0        6.646514   -2.543904    1.839081
     56          1           0        7.863775   -0.902061    1.454176
     57          1           0        8.075275   -2.586373    0.525799
     58          1           0       -1.120999   -2.219370    1.395899
     59          1           0       -0.433675   -2.463205    2.784541
     60          1           0       -1.729267   -0.574663   -0.348634
     61          1           0       -2.057185    4.905640   -1.543777
     62          1           0       -0.404116    4.491146   -1.064976
     63          1           0        8.003072   -1.161914   -3.231713
     64          1           0       -1.258482    4.607675    1.389839
     65          1           0       -2.531463    5.276158    0.805376
     66          1           0       -3.977231    4.070570   -2.350675
     67          1           0       -5.266920    3.300367   -1.116829
     68          1           0       -4.848561    2.376409   -2.669468
     69          1           0       -4.982918    0.167450   -1.882189
     70          1           0        9.370061   -0.832512   -0.610566
     71          1           0        9.898979   -0.955714   -2.484184
     72          1           0       -3.678485   -3.234287    3.365242
     73          1           0       -6.395827   -1.211485   -1.950306
     74          1           0       -4.467918   -5.515023   -2.008157
     75          1           0       -3.928081   -5.620150   -0.508427
     76          1           0       -5.515475   -5.128060   -0.833132
     77          1           0       -1.159568    8.260540    1.353069
     78          1           0       -7.917462   -2.995698   -3.258565
     79          1           0       -6.575955   -4.149557   -2.481347
 ---------------------------------------------------------------------

 SCF Done:  E(RB3LYP) =  -1947.82526819     A.U. after   16 cycles

 Excitation energies and oscillator strengths:

 Excited State   1:      Singlet-A      2.2208 eV  558.30 nm  f=0.5959  <S**2>=0.000
     155 ->156         0.70740
     155 <-156        -0.12505
 This state for optimization and/or second-order correction.
 Total Energy, E(TD-HF/TD-KS) =  -1947.74365667
 Copying the excited state density for this state as the 1-particle RhoCI density.

 The electronic state is 1-A.
 Alpha  occ. eigenvalues --  -19.19132 -19.16830 -19.12583 -19.12302 -19.11495
 Alpha  occ. eigenvalues --  -19.11209 -14.39389 -14.36773 -14.34841 -14.31218
 Alpha  occ. eigenvalues --  -10.33026 -10.30357 -10.30340 -10.27824 -10.26844
 Alpha  occ. eigenvalues --  -10.24704 -10.24003 -10.23930 -10.23852 -10.23823
 Alpha  occ. eigenvalues --  -10.23407 -10.22935 -10.22713 -10.22361 -10.22221
 Alpha  occ. eigenvalues --  -10.21135 -10.21048 -10.21039 -10.20473 -10.20444
 Alpha  occ. eigenvalues --  -10.20272 -10.20256 -10.19756 -10.19428 -10.19213
 Alpha  occ. eigenvalues --  -10.19161 -10.19070 -10.19007 -10.18781 -10.18308
 Alpha  occ. eigenvalues --  -10.18278 -10.18143 -10.16489  -1.08743  -1.07765
 Alpha  occ. eigenvalues --   -1.04271  -1.01462  -1.00261  -0.99430  -0.98182
 Alpha  occ. eigenvalues --   -0.96793  -0.94620  -0.93386  -0.82407  -0.82119
 Alpha  occ. eigenvalues --   -0.81834  -0.81231  -0.80854  -0.79540  -0.77685
 Alpha  occ. eigenvalues --   -0.77134  -0.76796  -0.76178  -0.75017  -0.72562
 Alpha  occ. eigenvalues --   -0.71442  -0.70707  -0.69913  -0.68494  -0.67292
 Alpha  occ. eigenvalues --   -0.66842  -0.65658  -0.63528  -0.61445  -0.60974
 Alpha  occ. eigenvalues --   -0.60057  -0.58930  -0.58429  -0.57068  -0.56355
 Alpha  occ. eigenvalues --   -0.55890  -0.55323  -0.54487  -0.53408  -0.52826
 Alpha  occ. eigenvalues --   -0.52265  -0.50999  -0.50538  -0.50351  -0.49209
 Alpha  occ. eigenvalues --   -0.49098  -0.48533  -0.47676  -0.47494  -0.47121
 Alpha  occ. eigenvalues --   -0.46926  -0.46687  -0.46526  -0.46215  -0.45623
 Alpha  occ. eigenvalues --   -0.45217  -0.44720  -0.44561  -0.44103  -0.43664
 Alpha  occ. eigenvalues --   -0.43476  -0.43298  -0.42884  -0.42603  -0.42163
 Alpha  occ. eigenvalues --   -0.42042  -0.41947  -0.41848  -0.41651  -0.41240
 Alpha  occ. eigenvalues --   -0.41045  -0.40665  -0.40600  -0.40435  -0.40269
 Alpha  occ. eigenvalues --   -0.39767  -0.39148  -0.39012  -0.38805  -0.38689
 Alpha  occ. eigenvalues --   -0.37940  -0.37739  -0.37493  -0.37374  -0.36952
 Alpha  occ. eigenvalues --   -0.36455  -0.35689  -0.35365  -0.34925  -0.34490
 Alpha  occ. eigenvalues --   -0.33948  -0.33032  -0.31822  -0.31601  -0.31481
 Alpha  occ. eigenvalues --   -0.31355  -0.30505  -0.28901  -0.28452  -0.27865
 Alpha  occ. eigenvalues --   -0.27561  -0.26978  -0.26831  -0.25357  -0.24938
 Alpha  occ. eigenvalues --   -0.24659  -0.24310  -0.23971  -0.23438  -0.18448
 Alpha virt. eigenvalues --   -0.10148  -0.06229  -0.05631  -0.00952  -0.00289
 Alpha virt. eigenvalues --    0.00925   0.01420   0.01994   0.02306   0.02822
 Alpha virt. eigenvalues --    0.03295   0.03989   0.04252   0.04546   0.05171

 Mulliken charges:
               1
     1  O   -0.172116
     2  O   -0.191881
     3  O   -0.200567
     4  O   -0.199839
     5  O   -0.284817
     6  O   -0.224120
     7  N   -0.054494
     8  N   -0.282817
     9  N   -0.166100
    10  N   -0.287606
    11  C    0.068831
    12  C    0.175244
    13  C   -0.133601
    14  C   -0.191274
    15  C   -0.140281
    16  C    0.085851
    17  C   -0.101764
    18  C    0.119711
    19  C   -0.019321
    20  C   -0.141622
    21  C    0.042089
    22  C    0.208942
    23  C   -0.064894
    24  C    0.230185
    25  C   -0.100470
    26  C   -0.153830
    27  C    0.033758
    28  C    0.188830
    29  C    0.161777
    30  C   -0.070472
    31  C    0.078700
    32  C    0.016489
    33  C   -0.167321
    34  C    0.115253
    35  C    0.066481
    36  C   -0.036362
    37  C    0.131365
    38  C    0.005231
    39  C   -0.250990
    40  C    0.180420
    41  C    0.011880
    42  C    0.264334
    43  C   -0.020051
    44  H    0.057865
    45  H    0.018539
    46  H    0.033252
    47  H    0.137670
    48  H    0.150332
    49  H   -0.012518
    50  H    0.030101
    51  H    0.012521
    52  H   -0.029281
    53  H    0.006491
    54  H    0.029103
    55  H    0.050266
    56  H    0.074347
    57  H    0.064765
    58  H    0.052241
    59  H   -0.012799
    60  H    0.246598
    61  H   -0.003532
    62  H    0.032443
    63  H    0.019492
    64  H    0.037772
    65  H   -0.051983
    66  H    0.046625
    67  H    0.048181
    68  H    0.042668
    69  H   -0.004797
    70  H    0.008296
    71  H    0.020998
    72  H    0.166616
    73  H   -0.006985
    74  H   -0.009497
    75  H   -0.017103
    76  H   -0.007013
    77  H    0.207034
    78  H    0.057022
    79  H   -0.024489
 Sum of Mulliken charges =   0.00000

 Dipole moment (field-independent basis, Debye):
    X=              0.2971    Y=              1.8074    Z=              3.1722  Tot=              3.6630
 Quadrupole moment (field-independent basis, Debye-Ang):
   XX=           -225.9442   YY=           -243.6225   ZZ=           -263.7807
   XY=             -5.8365   XZ=             30.6156   YZ=              9.5136

 Normal termination of Gaussian 09 at Mon Jul  8 18:03:04 2019.
