 Gaussian 09, Revision D.01,
 Gaussian 09:  ES64L-G09RevD.01 24-Apr-2013

 --------------------------
 # td=(NStates=1) B3LYP/SVP
 --------------------------

 --
 TD
 --
 Symbolic Z-matrix:
 Charge =  0 Multiplicity = 1

                         Standard orientation:
 ---------------------------------------------------------------------
 Center     Atomic      Atomic             Coordinates (Angstroms)
 Number     Number       Type             X           Y           Z
 ---------------------------------------------------------------------
      1          8           0        5.279582   -0.020510   -3.260943
      2          8           0       -3.095570   -2.813839    3.161932
      3          8           0       -3.261648   -0.576978    3.222870
      4          8           0       -1.836069    7.250219    1.306025
      5          8           0       -0.161210    6.833596   -0.269125
      6          8           0       -1.943212   -4.124243   -0.100491
      7          7           0        2.438568    0.885058    0.738004
      8          7           0        4.385586   -0.518964   -1.192059
      9          7           0       -1.800227    0.665978   -0.341278
     10          7           0       -2.723241   -1.897010   -0.531430
     11          6           0        4.742312   -1.230722   -0.003071
     12          6           0        4.417485   -0.452608    1.274936
     13          6           0        2.966916   -0.139287    1.369296
     14          6           0        1.949144   -0.766538    2.192917
     15          6           0        0.732843   -0.083234    1.881987
     16          6           0        1.071282    0.968804    0.872595
     17          6           0        6.293694   -1.321118   -0.136843
     18          6           0       -0.497328   -0.199323    2.660818
     19          6           0        6.694393   -0.925211   -1.457271
     20          6           0        0.307099    1.931763    0.235710
     21          6           0       -1.037165    1.902313   -0.301426
     22          6           0        5.413978   -0.413275   -2.119239
     23          6           0       -1.847094    2.870008   -0.873619
     24          6           0        2.138483   -1.714203    3.376697
     25          6           0        7.203861   -2.154562    0.791652
     26          6           0       -3.047110    2.299051   -1.268978
     27          6           0       -1.166062   -1.632514    2.431093
     28          6           0       -3.015247    0.873751   -0.961069
     29          6           0       -1.359709    4.332012   -0.949526
     30          6           0        7.918460   -0.927194   -2.151172
     31          6           0       -1.710163    5.040883    0.363156
     32          6           0       -4.133649    2.903303   -2.106247
     33          6           0       -3.923218   -0.067026   -1.360790
     34          6           0       -2.635012   -1.557445    2.990204
     35          6           0       -3.816719   -1.485834   -1.126661
     36          6           0        9.217209   -0.844915   -1.583545
     37          6           0       -1.177727    6.493422    0.362392
     38          6           0       -4.700107   -2.506524   -1.514209
     39          6           0       -4.127984   -3.617921   -1.000292
     40          6           0       -2.790739   -3.230097   -0.473776
     41          6           0       -6.022469   -2.239708   -1.973258
     42          6           0       -4.601764   -5.007984   -1.120480
     43          6           0       -6.831465   -3.095991   -2.694273
     44          1           0        4.300141   -2.180559   -0.182975
     45          1           0        4.864397    0.574922    1.266827
     46          1           0        4.908292   -1.034779    2.217164
     47          1           0        2.926074    1.001121   -0.242703
     48          1           0        3.403328   -0.595684   -1.510360
     49          1           0       -0.243530   -0.142173    3.728495
     50          1           0       -1.258858    0.392725    2.408269
     51          1           0        0.794394    2.842887   -0.149947
     52          1           0        3.138522   -1.891002    3.558097
     53          1           0        1.500817   -1.477388    4.178479
     54          1           0        1.834696   -2.840922    3.098074
     55          1           0        6.559462   -3.041142    1.075037
     56          1           0        7.588406   -1.518380    1.749124
     57          1           0        8.106762   -2.456101    0.184480
     58          1           0       -1.141485   -1.795705    1.338582
     59          1           0       -0.423365   -2.373330    2.816059
     60          1           0       -1.315059   -0.318646   -0.359863
     61          1           0       -2.019172    4.961898   -1.626845
     62          1           0       -0.393993    4.288163   -1.349266
     63          1           0        7.979841   -0.868608   -3.238623
     64          1           0       -1.168949    4.596678    1.266117
     65          1           0       -2.748084    5.027345    0.383963
     66          1           0       -3.795878    3.980528   -2.111105
     67          1           0       -4.961383    2.818032   -1.583888
     68          1           0       -4.219829    2.442753   -3.096584
     69          1           0       -4.805740    0.315896   -1.626826
     70          1           0        9.268087   -0.659343   -0.358469
     71          1           0       10.137326   -1.061102   -2.062294
     72          1           0       -3.974634   -3.013819    3.403670
     73          1           0       -6.362651   -1.257293   -1.976185
     74          1           0       -4.524753   -5.490961   -2.207715
     75          1           0       -4.101084   -5.697307   -0.461469
     76          1           0       -5.795473   -4.986422   -0.765845
     77          1           0       -1.376009    8.084227    1.311200
     78          1           0       -7.824899   -2.846828   -3.139902
     79          1           0       -6.574085   -4.123502   -2.893832
 ---------------------------------------------------------------------

 SCF Done:  E(RB3LYP) =  -1947.89005193     A.U. after   21 cycles

 Excitation energies and oscillator strengths:

 Excited State   1:      Singlet-A      1.9919 eV  622.44 nm  f=0.4508  <S**2>=0.000
     153 ->156        -0.10196
     154 ->156         0.24318
     155 ->156         0.65859
     155 <-156        -0.13423
 This state for optimization and/or second-order correction.
 Total Energy, E(TD-HF/TD-KS) =  -1947.81685060
 Copying the excited state density for this state as the 1-particle RhoCI density.

 The electronic state is 1-A.
 Alpha  occ. eigenvalues --  -19.19475 -19.15853 -19.13810 -19.11775 -19.11128
 Alpha  occ. eigenvalues --  -19.08797 -14.39813 -14.36920 -14.35873 -14.27536
 Alpha  occ. eigenvalues --  -10.33238 -10.31278 -10.29814 -10.26144 -10.24841
 Alpha  occ. eigenvalues --  -10.24366 -10.24343 -10.23982 -10.23915 -10.23757
 Alpha  occ. eigenvalues --  -10.23317 -10.23304 -10.22486 -10.22411 -10.22295
 Alpha  occ. eigenvalues --  -10.21997 -10.21904 -10.21514 -10.20914 -10.20870
 Alpha  occ. eigenvalues --  -10.20579 -10.20345 -10.20327 -10.20067 -10.19378
 Alpha  occ. eigenvalues --  -10.19320 -10.19150 -10.18940 -10.18857 -10.18392
 Alpha  occ. eigenvalues --  -10.17915 -10.17766 -10.17345  -1.09465  -1.08270
 Alpha  occ. eigenvalues --   -1.03693  -1.00833  -1.00580  -1.00345  -0.98037
 Alpha  occ. eigenvalues --   -0.95774  -0.95693  -0.92332  -0.82533  -0.82387
 Alpha  occ. eigenvalues --   -0.82146  -0.81412  -0.80319  -0.79813  -0.77881
 Alpha  occ. eigenvalues --   -0.77208  -0.75810  -0.75375  -0.74113  -0.72657
 Alpha  occ. eigenvalues --   -0.71274  -0.71201  -0.69770  -0.69095  -0.67874
 Alpha  occ. eigenvalues --   -0.67528  -0.66324  -0.63842  -0.62917  -0.61033
 Alpha  occ. eigenvalues --   -0.60234  -0.59722  -0.59170  -0.57559  -0.57096
 Alpha  occ. eigenvalues --   -0.56007  -0.55532  -0.54588  -0.54309  -0.53307
 Alpha  occ. eigenvalues --   -0.52540  -0.51991  -0.51709  -0.51004  -0.50367
 Alpha  occ. eigenvalues --   -0.49633  -0.49246  -0.48869  -0.48510  -0.48272
 Alpha  occ. eigenvalues --   -0.47280  -0.46773  -0.46293  -0.45957  -0.45598
 Alpha  occ. eigenvalues --   -0.45229  -0.45056  -0.44087  -0.44002  -0.43710
 Alpha  occ. eigenvalues --   -0.43510  -0.43324  -0.43162  -0.42688  -0.42496
 Alpha  occ. eigenvalues --   -0.42475  -0.42283  -0.41618  -0.41487  -0.41030
 Alpha  occ. eigenvalues --   -0.40870  -0.40707  -0.40361  -0.39825  -0.39647
 Alpha  occ. eigenvalues --   -0.39342  -0.39179  -0.38807  -0.38621  -0.38344
 Alpha  occ. eigenvalues --   -0.37949  -0.37694  -0.37535  -0.37018  -0.36799
 Alpha  occ. eigenvalues --   -0.35783  -0.35459  -0.35241  -0.34899  -0.34788
 Alpha  occ. eigenvalues --   -0.34051  -0.33125  -0.32977  -0.32598  -0.32037
 Alpha  occ. eigenvalues --   -0.31464  -0.30703  -0.28750  -0.28237  -0.27922
 Alpha  occ. eigenvalues --   -0.27551  -0.26583  -0.26335  -0.25500  -0.25356
 Alpha  occ. eigenvalues --   -0.24275  -0.23966  -0.22564  -0.21477  -0.18188
 Alpha virt. eigenvalues --   -0.10781  -0.08138  -0.06639  -0.01719  -0.01213
 Alpha virt. eigenvalues --   -0.00896   0.00176   0.01949   0.02064   0.02832
 Alpha virt. eigenvalues --    0.03220   0.03915   0.05110   0.05365   0.05658

 Mulliken charges:
               1
     1  O   -0.204774
     2  O   -0.178513
     3  O   -0.192723
     4  O   -0.177566
     5  O   -0.252613
     6  O   -0.282877
     7  N   -0.027588
     8  N   -0.236039
     9  N   -0.163960
    10  N   -0.210675
    11  C    0.110523
    12  C    0.143093
    13  C   -0.138258
    14  C   -0.132654
    15  C   -0.108274
    16  C    0.070770
    17  C   -0.178659
    18  C    0.172763
    19  C   -0.001860
    20  C   -0.071090
    21  C    0.018549
    22  C    0.146314
    23  C   -0.075858
    24  C    0.149274
    25  C    0.018786
    26  C   -0.211506
    27  C   -0.080056
    28  C    0.140420
    29  C    0.100255
    30  C   -0.049862
    31  C    0.052130
    32  C    0.209304
    33  C   -0.070602
    34  C    0.176653
    35  C    0.057005
    36  C   -0.074414
    37  C    0.144422
    38  C    0.082568
    39  C   -0.155172
    40  C    0.137429
    41  C   -0.017429
    42  C    0.016531
    43  C   -0.051583
    44  H    0.022087
    45  H    0.019129
    46  H    0.044761
    47  H    0.152169
    48  H    0.145454
    49  H    0.009622
    50  H   -0.030531
    51  H   -0.006229
    52  H   -0.029102
    53  H    0.015556
    54  H    0.036411
    55  H    0.041794
    56  H    0.061861
    57  H    0.048099
    58  H    0.067405
    59  H    0.019651
    60  H    0.185218
    61  H    0.007599
    62  H    0.016675
    63  H    0.027387
    64  H    0.065651
    65  H    0.011738
    66  H    0.000399
    67  H   -0.017109
    68  H    0.038632
    69  H   -0.089847
    70  H    0.047284
    71  H    0.034987
    72  H    0.161938
    73  H   -0.029496
    74  H    0.054555
    75  H    0.018162
    76  H    0.032676
    77  H    0.170988
    78  H    0.027097
    79  H    0.015145
 Sum of Mulliken charges =   0.00000

 Dipole moment (field-independent basis, Debye):
    X=              2.9163    Y=              1.6440    Z=              2.8930  Tot=              4.4246
 Quadrupole moment (field-independent basis, Debye-Ang):
   XX=           -213.2868   YY=           -251.2885   ZZ=           -259.2679
   XY=            -20.9397   XZ=             25.7800   YZ=              0.6512

 Normal termination of Gaussian 09 at Tue Jul  9 15:27:50 2019.
