 Gaussian 09, Revision D.01,
 Gaussian 09:  ES64L-G09RevD.01 24-Apr-2013

 --------------------------
 # td=(NStates=1) B3LYP/SVP
 --------------------------

 --
 TD
 --
 Symbolic Z-matrix:
 Charge =  0 Multiplicity = 1

                         Standard orientation:
 ---------------------------------------------------------------------
 Center     Atomic      Atomic             Coordinates (Angstroms)
 Number     Number       Type             X           Y           Z
 ---------------------------------------------------------------------
      1          8           0        5.409999   -0.052316   -3.307786
      2          8           0       -3.011552   -3.004687    3.009530
      3          8           0       -3.166238   -0.814858    3.468733
      4          8           0       -1.409259    7.152436    1.596781
      5          8           0       -0.523867    7.097146   -0.437710
      6          8           0       -2.000605   -3.959587   -0.090875
      7          7           0        2.402547    0.698499    0.522333
      8          7           0        4.429240   -0.560329   -1.354128
      9          7           0       -1.964557    0.621907   -0.325854
     10          7           0       -2.752712   -1.871115   -0.574425
     11          6           0        4.800005   -1.199910   -0.109192
     12          6           0        4.372811   -0.376150    1.230243
     13          6           0        2.993103   -0.139873    1.339180
     14          6           0        2.029556   -0.801155    2.092824
     15          6           0        0.720208   -0.119774    1.805123
     16          6           0        1.087926    0.707456    0.713542
     17          6           0        6.316949   -1.434215   -0.205939
     18          6           0       -0.560062   -0.344448    2.598376
     19          6           0        6.767691   -0.873468   -1.356039
     20          6           0        0.256468    1.802798    0.094603
     21          6           0       -1.112942    1.713745   -0.157526
     22          6           0        5.500457   -0.412474   -2.194215
     23          6           0       -1.904669    2.910725   -0.857268
     24          6           0        2.302399   -1.774439    3.160621
     25          6           0        7.125620   -1.967475    0.788889
     26          6           0       -3.078185    2.524758   -1.230635
     27          6           0       -1.097666   -1.741387    2.511520
     28          6           0       -3.097641    0.996871   -0.978202
     29          6           0       -1.368181    4.369792   -0.850814
     30          6           0        8.023620   -0.855318   -1.982868
     31          6           0       -1.634142    5.086962    0.418212
     32          6           0       -4.207845    3.162899   -1.877813
     33          6           0       -4.008903    0.054342   -1.255293
     34          6           0       -2.523260   -1.751289    3.038908
     35          6           0       -3.871839   -1.311567   -1.070173
     36          6           0        9.165047   -0.988790   -1.389466
     37          6           0       -1.087613    6.544176    0.436578
     38          6           0       -4.851845   -2.527941   -1.468702
     39          6           0       -4.144308   -3.609065   -1.097590
     40          6           0       -2.830301   -3.218317   -0.517597
     41          6           0       -6.152151   -2.236095   -1.993636
     42          6           0       -4.647969   -4.972065   -1.170618
     43          6           0       -6.915565   -3.088493   -2.702633
     44          1           0        4.363178   -2.220404    0.146511
     45          1           0        4.885716    0.542088    1.285827
     46          1           0        4.968435   -0.954180    2.006885
     47          1           0        2.909124    1.245487   -0.042145
     48          1           0        3.440732   -0.358770   -1.507214
     49          1           0       -0.419295    0.006770    3.617837
     50          1           0       -1.296957    0.201721    1.867736
     51          1           0        0.815338    2.635085   -0.206047
     52          1           0        3.355242   -1.895919    3.463363
     53          1           0        1.640520   -1.539362    3.913512
     54          1           0        1.979968   -2.772170    2.737730
     55          1           0        6.821535   -2.814171    1.417536
     56          1           0        7.436155   -1.148051    1.290124
     57          1           0        8.056072   -2.456505    0.116362
     58          1           0       -0.972775   -2.231415    1.521557
     59          1           0       -0.446557   -2.521176    2.910080
     60          1           0       -1.823966   -0.373546   -0.296819
     61          1           0       -1.775295    4.938857   -1.584275
     62          1           0       -0.185186    4.369608   -1.092638
     63          1           0        7.870188   -0.576498   -3.118268
     64          1           0       -0.906123    4.646026    1.213598
     65          1           0       -2.620750    5.065668    0.873156
     66          1           0       -4.032982    4.396572   -1.957561
     67          1           0       -5.283723    2.969452   -1.398129
     68          1           0       -4.181944    2.904740   -3.158968
     69          1           0       -4.906885    0.389585   -1.827412
     70          1           0        9.160563   -0.951489   -0.431666
     71          1           0       10.138567   -0.818959   -1.920118
     72          1           0       -4.119345   -3.046324    3.215714
     73          1           0       -6.580634   -1.169602   -1.545320
     74          1           0       -4.155676   -5.376121   -2.176720
     75          1           0       -3.914774   -5.534355   -0.505170
     76          1           0       -5.715443   -5.125958   -1.139470
     77          1           0       -0.980640    8.075867    1.787450
     78          1           0       -8.000279   -2.619978   -2.865030
     79          1           0       -6.912174   -4.235291   -2.971285
 ---------------------------------------------------------------------

 SCF Done:  E(RB3LYP) =  -1947.81189719     A.U. after   16 cycles

 Excitation energies and oscillator strengths:

 Excited State   1:      Singlet-A      2.2337 eV  555.06 nm  f=0.4259  <S**2>=0.000
     155 ->156         0.70069
 This state for optimization and/or second-order correction.
 Total Energy, E(TD-HF/TD-KS) =  -1947.72980926
 Copying the excited state density for this state as the 1-particle RhoCI density.

 The electronic state is 1-A.
 Alpha  occ. eigenvalues --  -19.18291 -19.16988 -19.13117 -19.11008 -19.10598
 Alpha  occ. eigenvalues --  -19.10368 -14.37920 -14.36918 -14.35421 -14.28957
 Alpha  occ. eigenvalues --  -10.32403 -10.30478 -10.28539 -10.26326 -10.25624
 Alpha  occ. eigenvalues --  -10.25204 -10.25056 -10.24342 -10.24034 -10.22905
 Alpha  occ. eigenvalues --  -10.22047 -10.22022 -10.21852 -10.21793 -10.21433
 Alpha  occ. eigenvalues --  -10.21421 -10.21301 -10.21263 -10.21160 -10.20981
 Alpha  occ. eigenvalues --  -10.20460 -10.19768 -10.19510 -10.19490 -10.19366
 Alpha  occ. eigenvalues --  -10.19332 -10.19247 -10.18977 -10.18860 -10.18596
 Alpha  occ. eigenvalues --  -10.18522 -10.18158 -10.17636  -1.09902  -1.06557
 Alpha  occ. eigenvalues --   -1.04808  -1.03268  -1.01902  -1.01231  -0.98512
 Alpha  occ. eigenvalues --   -0.97664  -0.93984  -0.92269  -0.84126  -0.83748
 Alpha  occ. eigenvalues --   -0.81965  -0.81286  -0.80820  -0.80109  -0.78843
 Alpha  occ. eigenvalues --   -0.78372  -0.76944  -0.76158  -0.75074  -0.72321
 Alpha  occ. eigenvalues --   -0.71988  -0.70984  -0.69320  -0.68594  -0.68140
 Alpha  occ. eigenvalues --   -0.66957  -0.66171  -0.64435  -0.62065  -0.61007
 Alpha  occ. eigenvalues --   -0.60367  -0.59060  -0.58703  -0.57892  -0.57250
 Alpha  occ. eigenvalues --   -0.56591  -0.55747  -0.55258  -0.54330  -0.53356
 Alpha  occ. eigenvalues --   -0.52337  -0.51787  -0.50655  -0.50210  -0.49886
 Alpha  occ. eigenvalues --   -0.49737  -0.48833  -0.48372  -0.48068  -0.47799
 Alpha  occ. eigenvalues --   -0.47251  -0.47111  -0.46841  -0.46277  -0.45948
 Alpha  occ. eigenvalues --   -0.45430  -0.45274  -0.44870  -0.44818  -0.44531
 Alpha  occ. eigenvalues --   -0.44104  -0.43895  -0.43544  -0.43453  -0.43125
 Alpha  occ. eigenvalues --   -0.42527  -0.42367  -0.42082  -0.41738  -0.41264
 Alpha  occ. eigenvalues --   -0.41118  -0.40581  -0.40313  -0.40277  -0.39943
 Alpha  occ. eigenvalues --   -0.39513  -0.38843  -0.38740  -0.38289  -0.38192
 Alpha  occ. eigenvalues --   -0.37818  -0.37516  -0.37159  -0.36827  -0.36015
 Alpha  occ. eigenvalues --   -0.35869  -0.35033  -0.34870  -0.34563  -0.33989
 Alpha  occ. eigenvalues --   -0.33698  -0.33266  -0.33032  -0.32058  -0.31192
 Alpha  occ. eigenvalues --   -0.30779  -0.30260  -0.28904  -0.28731  -0.27455
 Alpha  occ. eigenvalues --   -0.26994  -0.26812  -0.26605  -0.26000  -0.24722
 Alpha  occ. eigenvalues --   -0.24415  -0.23870  -0.23319  -0.22418  -0.19270
 Alpha virt. eigenvalues --   -0.10225  -0.05651  -0.04788  -0.01389   0.01015
 Alpha virt. eigenvalues --    0.01199   0.01550   0.02130   0.02295   0.02422
 Alpha virt. eigenvalues --    0.02708   0.03328   0.03501   0.04336   0.04717

 Mulliken charges:
               1
     1  O   -0.166853
     2  O   -0.259180
     3  O   -0.234594
     4  O   -0.238891
     5  O   -0.182845
     6  O   -0.171623
     7  N    0.079106
     8  N   -0.182109
     9  N   -0.060508
    10  N   -0.268751
    11  C    0.095800
    12  C    0.135768
    13  C   -0.081503
    14  C   -0.183457
    15  C   -0.124643
    16  C   -0.029786
    17  C   -0.158112
    18  C    0.139166
    19  C   -0.101538
    20  C   -0.037275
    21  C    0.139959
    22  C    0.143180
    23  C   -0.119629
    24  C    0.146015
    25  C    0.052814
    26  C    0.008686
    27  C   -0.042239
    28  C    0.062807
    29  C    0.109919
    30  C   -0.040552
    31  C   -0.023195
    32  C   -0.080034
    33  C   -0.108952
    34  C    0.175392
    35  C    0.050977
    36  C    0.040933
    37  C    0.113752
    38  C    0.079168
    39  C   -0.251247
    40  C    0.146503
    41  C   -0.070577
    42  C    0.088965
    43  C   -0.095070
    44  H    0.018515
    45  H   -0.035991
    46  H   -0.003127
    47  H    0.062109
    48  H    0.124457
    49  H    0.027291
    50  H    0.030280
    51  H   -0.032739
    52  H    0.004212
    53  H   -0.003670
    54  H    0.026768
    55  H    0.025874
    56  H    0.027834
    57  H    0.059098
    58  H    0.050255
    59  H    0.006002
    60  H    0.129960
    61  H   -0.019260
    62  H    0.036141
    63  H    0.033024
    64  H    0.044415
    65  H    0.043519
    66  H    0.042606
    67  H    0.072364
    68  H    0.066537
    69  H   -0.017670
    70  H   -0.046591
    71  H    0.030429
    72  H    0.240206
    73  H    0.054145
    74  H    0.031299
    75  H    0.025400
    76  H    0.032973
    77  H    0.218503
    78  H    0.032346
    79  H    0.066739
 Sum of Mulliken charges =   0.00000

 Dipole moment (field-independent basis, Debye):
    X=             -0.2524    Y=              2.5292    Z=              2.8936  Tot=              3.8514
 Quadrupole moment (field-independent basis, Debye-Ang):
   XX=           -221.7557   YY=           -243.0665   ZZ=           -268.8926
   XY=             -3.8564   XZ=             33.3819   YZ=              6.3002

 Normal termination of Gaussian 09 at Mon Jul  8 23:08:05 2019.
