 Gaussian 09, Revision D.01,
 Gaussian 09:  ES64L-G09RevD.01 24-Apr-2013

 --------------------------
 # td=(NStates=1) B3LYP/SVP
 --------------------------

 --
 TD
 --
 Symbolic Z-matrix:
 Charge =  0 Multiplicity = 1

                         Standard orientation:
 ---------------------------------------------------------------------
 Center     Atomic      Atomic             Coordinates (Angstroms)
 Number     Number       Type             X           Y           Z
 ---------------------------------------------------------------------
      1          8           0        5.313201   -0.082379   -3.334422
      2          8           0       -2.677674   -3.322869    3.363428
      3          8           0       -3.207830   -1.118452    3.019957
      4          8           0       -1.550882    7.288131    1.496518
      5          8           0       -0.473958    6.984357   -0.460666
      6          8           0       -1.948323   -4.120360   -0.234959
      7          7           0        2.351699    0.978392    0.633451
      8          7           0        4.354231   -0.658282   -1.273096
      9          7           0       -1.957629    0.688289   -0.284886
     10          7           0       -2.685193   -1.841948   -0.579213
     11          6           0        4.875724   -1.145866   -0.039773
     12          6           0        4.517180   -0.209632    1.143136
     13          6           0        3.017486    0.050859    1.284714
     14          6           0        2.077297   -0.609476    2.043937
     15          6           0        0.779890   -0.078222    1.748185
     16          6           0        0.922460    0.860714    0.697666
     17          6           0        6.438009   -1.384384   -0.198026
     18          6           0       -0.506552   -0.310012    2.497434
     19          6           0        6.667302   -0.947889   -1.461221
     20          6           0        0.169506    1.916756    0.144310
     21          6           0       -1.154783    1.828925   -0.118705
     22          6           0        5.382591   -0.536374   -2.212385
     23          6           0       -1.950135    2.960651   -0.644093
     24          6           0        2.347954   -1.720044    3.145219
     25          6           0        7.161996   -1.827515    1.002158
     26          6           0       -3.086695    2.421710   -1.183914
     27          6           0       -0.979675   -1.741736    2.584932
     28          6           0       -3.153544    0.999569   -0.905522
     29          6           0       -1.531536    4.403210   -0.782880
     30          6           0        7.982822   -0.866729   -2.218977
     31          6           0       -1.745093    5.190582    0.510062
     32          6           0       -4.269392    3.075262   -1.916095
     33          6           0       -4.137015    0.020466   -1.242783
     34          6           0       -2.372805   -2.068350    3.019422
     35          6           0       -3.828193   -1.382043   -1.078756
     36          6           0        9.148034   -1.001944   -1.615774
     37          6           0       -1.184449    6.578145    0.456967
     38          6           0       -4.776789   -2.430260   -1.485470
     39          6           0       -4.083838   -3.592327   -1.237774
     40          6           0       -2.777200   -3.266708   -0.582815
     41          6           0       -6.094692   -2.213484   -2.099340
     42          6           0       -4.478147   -5.147114   -1.271912
     43          6           0       -7.049628   -3.186694   -2.256107
     44          1           0        4.385594   -2.174212    0.273167
     45          1           0        5.100656    0.800202    1.173328
     46          1           0        4.817554   -0.741353    2.027117
     47          1           0        2.868270    1.635551   -0.024139
     48          1           0        3.444932   -0.538043   -1.486549
     49          1           0       -0.530971    0.109088    3.594107
     50          1           0       -1.305567    0.276464    2.011817
     51          1           0        0.666585    2.826991   -0.099823
     52          1           0        3.347056   -1.444705    3.882739
     53          1           0        1.302352   -1.795333    3.913049
     54          1           0        2.342703   -2.762933    2.703230
     55          1           0        6.630914   -2.639682    1.342903
     56          1           0        7.473470   -1.019262    1.759496
     57          1           0        8.036876   -2.180284    0.429011
     58          1           0       -1.067157   -2.227252    1.555520
     59          1           0       -0.239583   -2.591496    2.955990
     60          1           0       -1.681583   -0.284102   -0.130310
     61          1           0       -2.029785    5.017473   -1.584288
     62          1           0       -0.318767    4.290143   -0.815274
     63          1           0        7.836906   -0.376609   -3.290238
     64          1           0       -1.194637    4.696898    1.363001
     65          1           0       -2.811057    5.310335    0.790638
     66          1           0       -4.264409    4.183162   -1.974577
     67          1           0       -5.200209    2.944265   -1.276721
     68          1           0       -4.404262    2.821797   -2.939645
     69          1           0       -4.939677    0.496053   -1.807220
     70          1           0        9.139762   -1.268864   -0.476834
     71          1           0       10.147144   -0.760921   -2.004475
     72          1           0       -3.660195   -3.288392    3.434018
     73          1           0       -6.506581   -1.056217   -2.281330
     74          1           0       -4.452507   -5.380131   -2.232381
     75          1           0       -3.758160   -5.647064   -0.551709
     76          1           0       -5.439190   -5.305032   -0.864174
     77          1           0       -1.090779    8.222373    1.405570
     78          1           0       -7.843889   -2.783978   -3.030737
     79          1           0       -6.848362   -4.397798   -2.371848
 ---------------------------------------------------------------------

 SCF Done:  E(RB3LYP) =  -1947.88993890     A.U. after   16 cycles

 Excitation energies and oscillator strengths:

 Excited State   1:      Singlet-A      2.1306 eV  581.93 nm  f=0.4711  <S**2>=0.000
     154 ->156         0.18238
     155 ->156         0.68191
     155 <-156        -0.10641
 This state for optimization and/or second-order correction.
 Total Energy, E(TD-HF/TD-KS) =  -1947.81164128
 Copying the excited state density for this state as the 1-particle RhoCI density.

 The electronic state is 1-A.
 Alpha  occ. eigenvalues --  -19.20494 -19.18362 -19.12900 -19.10982 -19.10927
 Alpha  occ. eigenvalues --  -19.10164 -14.39154 -14.36420 -14.35514 -14.29050
 Alpha  occ. eigenvalues --  -10.32565 -10.30915 -10.29487 -10.26698 -10.25662
 Alpha  occ. eigenvalues --  -10.24695 -10.24388 -10.23622 -10.23549 -10.23539
 Alpha  occ. eigenvalues --  -10.23292 -10.22746 -10.22716 -10.22647 -10.22061
 Alpha  occ. eigenvalues --  -10.22041 -10.21701 -10.21570 -10.21536 -10.21389
 Alpha  occ. eigenvalues --  -10.21031 -10.20891 -10.20780 -10.20516 -10.20454
 Alpha  occ. eigenvalues --  -10.20270 -10.20232 -10.19992 -10.19876 -10.19698
 Alpha  occ. eigenvalues --  -10.19646 -10.19459 -10.17479  -1.11146  -1.08611
 Alpha  occ. eigenvalues --   -1.03218  -1.00626  -1.00425  -0.99681  -0.97491
 Alpha  occ. eigenvalues --   -0.96895  -0.94914  -0.91799  -0.83173  -0.83069
 Alpha  occ. eigenvalues --   -0.82380  -0.80636  -0.79336  -0.79162  -0.78275
 Alpha  occ. eigenvalues --   -0.77171  -0.76104  -0.75690  -0.73704  -0.73006
 Alpha  occ. eigenvalues --   -0.72291  -0.70768  -0.69296  -0.68709  -0.67865
 Alpha  occ. eigenvalues --   -0.67137  -0.65702  -0.64040  -0.61284  -0.60523
 Alpha  occ. eigenvalues --   -0.60395  -0.58934  -0.58635  -0.57488  -0.57256
 Alpha  occ. eigenvalues --   -0.55678  -0.55353  -0.55060  -0.53935  -0.52792
 Alpha  occ. eigenvalues --   -0.51744  -0.51107  -0.50967  -0.50539  -0.50116
 Alpha  occ. eigenvalues --   -0.49233  -0.48984  -0.48717  -0.47944  -0.47477
 Alpha  occ. eigenvalues --   -0.47281  -0.47014  -0.46602  -0.46243  -0.45533
 Alpha  occ. eigenvalues --   -0.45323  -0.45160  -0.44908  -0.44333  -0.43882
 Alpha  occ. eigenvalues --   -0.43291  -0.43224  -0.43053  -0.42694  -0.42130
 Alpha  occ. eigenvalues --   -0.41861  -0.41534  -0.41347  -0.41084  -0.40888
 Alpha  occ. eigenvalues --   -0.40572  -0.40414  -0.40314  -0.40108  -0.39761
 Alpha  occ. eigenvalues --   -0.39748  -0.39552  -0.39000  -0.38791  -0.38411
 Alpha  occ. eigenvalues --   -0.38007  -0.37481  -0.37091  -0.36931  -0.36664
 Alpha  occ. eigenvalues --   -0.36411  -0.35582  -0.34812  -0.34600  -0.33772
 Alpha  occ. eigenvalues --   -0.33262  -0.33071  -0.32799  -0.32098  -0.31803
 Alpha  occ. eigenvalues --   -0.31401  -0.29607  -0.29180  -0.28605  -0.27723
 Alpha  occ. eigenvalues --   -0.26846  -0.26531  -0.26087  -0.25645  -0.25203
 Alpha  occ. eigenvalues --   -0.24862  -0.24239  -0.23822  -0.22277  -0.19287
 Alpha virt. eigenvalues --   -0.10902  -0.06726  -0.05904  -0.01593  -0.00194
 Alpha virt. eigenvalues --    0.00673   0.01043   0.01468   0.01997   0.02558
 Alpha virt. eigenvalues --    0.02921   0.03418   0.03752   0.04561   0.05142

 Mulliken charges:
               1
     1  O   -0.207270
     2  O   -0.157986
     3  O   -0.301880
     4  O   -0.181023
     5  O   -0.252661
     6  O   -0.228917
     7  N   -0.097328
     8  N   -0.145983
     9  N   -0.103942
    10  N   -0.294860
    11  C    0.015817
    12  C    0.192945
    13  C   -0.115219
    14  C   -0.097579
    15  C   -0.071835
    16  C    0.086522
    17  C   -0.138929
    18  C    0.119547
    19  C   -0.135560
    20  C   -0.096674
    21  C    0.138788
    22  C    0.172618
    23  C   -0.069479
    24  C   -0.069048
    25  C    0.128561
    26  C   -0.119366
    27  C   -0.052794
    28  C    0.061068
    29  C    0.063360
    30  C    0.012212
    31  C   -0.022185
    32  C    0.080360
    33  C   -0.081043
    34  C    0.135955
    35  C    0.123201
    36  C   -0.063186
    37  C    0.117270
    38  C    0.040938
    39  C   -0.236661
    40  C    0.182206
    41  C   -0.065859
    42  C    0.146095
    43  C   -0.097744
    44  H    0.029952
    45  H    0.012948
    46  H   -0.023371
    47  H    0.133696
    48  H    0.091942
    49  H    0.031499
    50  H    0.010165
    51  H   -0.019436
    52  H    0.054279
    53  H    0.055795
    54  H    0.054037
    55  H    0.005486
    56  H    0.072243
    57  H    0.033875
    58  H    0.062200
    59  H    0.022292
    60  H    0.147524
    61  H    0.038368
    62  H    0.037044
    63  H    0.047460
    64  H    0.047133
    65  H    0.040186
    66  H   -0.004741
    67  H    0.040107
    68  H    0.029251
    69  H   -0.024499
    70  H    0.022893
    71  H    0.034917
    72  H    0.189066
    73  H    0.047219
    74  H   -0.002397
    75  H    0.042325
    76  H    0.012410
    77  H    0.219151
    78  H    0.036312
    79  H    0.060215
 Sum of Mulliken charges =   0.00000

 Dipole moment (field-independent basis, Debye):
    X=              2.0306    Y=              4.1193    Z=              3.4041  Tot=              5.7167
 Quadrupole moment (field-independent basis, Debye-Ang):
   XX=           -225.5895   YY=           -241.0293   ZZ=           -265.8973
   XY=            -12.6753   XZ=             34.0697   YZ=              4.2375

 Normal termination of Gaussian 09 at Mon Jul  8 00:26:26 2019.
