 Gaussian 09, Revision D.01,
 Gaussian 09:  ES64L-G09RevD.01 24-Apr-2013

 --------------------------
 # td=(NStates=1) B3LYP/SVP
 --------------------------

 --
 TD
 --
 Symbolic Z-matrix:
 Charge =  0 Multiplicity = 1

                         Standard orientation:
 ---------------------------------------------------------------------
 Center     Atomic      Atomic             Coordinates (Angstroms)
 Number     Number       Type             X           Y           Z
 ---------------------------------------------------------------------
      1          8           0        5.220290   -0.268794   -3.321221
      2          8           0       -3.064596   -2.975368    3.152875
      3          8           0       -3.213281   -0.749250    3.243447
      4          8           0       -1.520564    7.192092    1.379151
      5          8           0       -0.177807    6.947624   -0.301854
      6          8           0       -2.064951   -3.963100   -0.027199
      7          7           0        2.472392    0.876319    0.655699
      8          7           0        4.419686   -0.722444   -1.252768
      9          7           0       -1.901368    0.710195   -0.281849
     10          7           0       -2.805629   -1.846982   -0.556128
     11          6           0        4.851857   -1.237903    0.025210
     12          6           0        4.417655   -0.402400    1.314671
     13          6           0        2.972596   -0.132994    1.389896
     14          6           0        1.953577   -0.816547    2.127414
     15          6           0        0.785872   -0.054900    1.861693
     16          6           0        1.124218    0.921654    0.883404
     17          6           0        6.299779   -1.287784   -0.232128
     18          6           0       -0.589491   -0.336298    2.604343
     19          6           0        6.707611   -0.859547   -1.464071
     20          6           0        0.338087    1.937884    0.183745
     21          6           0       -1.004172    1.803078   -0.340591
     22          6           0        5.433625   -0.575603   -2.179026
     23          6           0       -1.761914    2.892663   -0.812784
     24          6           0        2.232797   -1.819414    3.173145
     25          6           0        7.175387   -2.034240    0.796884
     26          6           0       -3.045957    2.394002   -1.199045
     27          6           0       -1.126971   -1.672464    2.623318
     28          6           0       -3.078415    0.866302   -0.901510
     29          6           0       -1.386911    4.372428   -0.978942
     30          6           0        7.919124   -1.026462   -2.145699
     31          6           0       -1.602579    5.102112    0.334222
     32          6           0       -4.124538    3.074724   -1.863572
     33          6           0       -4.074318    0.040309   -1.367258
     34          6           0       -2.499866   -1.667084    3.075733
     35          6           0       -3.830509   -1.383254   -1.161109
     36          6           0        9.221799   -0.874084   -1.557948
     37          6           0       -0.981426    6.483929    0.342894
     38          6           0       -4.841255   -2.382420   -1.565188
     39          6           0       -4.270980   -3.536461   -1.122255
     40          6           0       -2.882115   -3.157588   -0.512108
     41          6           0       -6.171487   -2.095310   -2.093430
     42          6           0       -4.592986   -5.052728   -1.127085
     43          6           0       -7.009711   -3.017377   -2.692216
     44          1           0        4.582589   -2.266049    0.123193
     45          1           0        4.739457    0.567551    1.112523
     46          1           0        4.766370   -0.861834    2.156334
     47          1           0        3.108253    1.509210   -0.072967
     48          1           0        3.390609   -0.676172   -1.607133
     49          1           0       -0.375142    0.086865    3.658368
     50          1           0       -1.505376    0.281634    2.080022
     51          1           0        0.768928    2.874880   -0.009977
     52          1           0        3.318731   -2.126435    3.170201
     53          1           0        1.824124   -1.466857    4.122359
     54          1           0        1.848182   -2.778120    2.924988
     55          1           0        6.757435   -2.792317    1.357920
     56          1           0        7.368669   -1.246353    1.635656
     57          1           0        8.230851   -2.520112    0.299197
     58          1           0       -1.169885   -2.209971    1.603957
     59          1           0       -0.574320   -2.419631    3.181935
     60          1           0       -1.654231   -0.269373   -0.007572
     61          1           0       -1.909098    5.025982   -1.690582
     62          1           0       -0.320980    4.266738   -1.356514
     63          1           0        7.976202   -1.311380   -3.190109
     64          1           0       -1.208661    4.398244    1.222374
     65          1           0       -2.491428    4.850667    0.779743
     66          1           0       -3.928777    4.201806   -1.867075
     67          1           0       -4.946520    2.881663   -1.181324
     68          1           0       -4.257376    2.828126   -2.975380
     69          1           0       -5.023454    0.210953   -1.744174
     70          1           0        9.413302   -0.777426   -0.523020
     71          1           0        9.788883   -1.098667   -2.352987
     72          1           0       -3.961044   -2.674525    3.273981
     73          1           0       -6.495860   -1.066613   -2.025246
     74          1           0       -4.699961   -5.490129   -2.246243
     75          1           0       -3.914327   -5.466535   -0.600120
     76          1           0       -5.648969   -4.988772   -0.653279
     77          1           0       -1.117133    7.921613    1.516828
     78          1           0       -7.939429   -2.639023   -3.073685
     79          1           0       -6.819179   -4.142207   -2.522093
 ---------------------------------------------------------------------

 SCF Done:  E(RB3LYP) =  -1947.81416689     A.U. after   17 cycles

 Excitation energies and oscillator strengths:

 Excited State   1:      Singlet-A      2.1565 eV  574.93 nm  f=0.5072  <S**2>=0.000
     155 ->156         0.69673
     155 <-156        -0.10403
 This state for optimization and/or second-order correction.
 Total Energy, E(TD-HF/TD-KS) =  -1947.73491642
 Copying the excited state density for this state as the 1-particle RhoCI density.

 The electronic state is 1-A.
 Alpha  occ. eigenvalues --  -19.15775 -19.15039 -19.14020 -19.12651 -19.10408
 Alpha  occ. eigenvalues --  -19.09781 -14.40162 -14.37511 -14.35506 -14.28792
 Alpha  occ. eigenvalues --  -10.32452 -10.30537 -10.28163 -10.26243 -10.25348
 Alpha  occ. eigenvalues --  -10.25164 -10.25014 -10.23577 -10.23442 -10.23100
 Alpha  occ. eigenvalues --  -10.22751 -10.22603 -10.22272 -10.21544 -10.21347
 Alpha  occ. eigenvalues --  -10.21179 -10.21064 -10.20924 -10.20793 -10.20790
 Alpha  occ. eigenvalues --  -10.20670 -10.20370 -10.20241 -10.20190 -10.20103
 Alpha  occ. eigenvalues --  -10.20026 -10.19938 -10.19496 -10.19444 -10.19310
 Alpha  occ. eigenvalues --  -10.19214 -10.19057 -10.19028  -1.13246  -1.09015
 Alpha  occ. eigenvalues --   -1.04257  -1.03283  -1.00918  -0.99727  -0.99350
 Alpha  occ. eigenvalues --   -0.98133  -0.94482  -0.94426  -0.83038  -0.82211
 Alpha  occ. eigenvalues --   -0.81969  -0.81658  -0.80403  -0.80013  -0.78744
 Alpha  occ. eigenvalues --   -0.78382  -0.77100  -0.75711  -0.74406  -0.73211
 Alpha  occ. eigenvalues --   -0.71742  -0.71554  -0.70054  -0.69155  -0.68491
 Alpha  occ. eigenvalues --   -0.66893  -0.66553  -0.63971  -0.62073  -0.61992
 Alpha  occ. eigenvalues --   -0.60581  -0.59906  -0.57929  -0.57541  -0.56765
 Alpha  occ. eigenvalues --   -0.56727  -0.55956  -0.54451  -0.54097  -0.53708
 Alpha  occ. eigenvalues --   -0.53108  -0.52413  -0.52047  -0.51586  -0.50361
 Alpha  occ. eigenvalues --   -0.49702  -0.48919  -0.48675  -0.48355  -0.48028
 Alpha  occ. eigenvalues --   -0.47947  -0.47423  -0.47092  -0.46843  -0.46275
 Alpha  occ. eigenvalues --   -0.45947  -0.45694  -0.44848  -0.44528  -0.44324
 Alpha  occ. eigenvalues --   -0.43920  -0.43809  -0.43291  -0.42904  -0.42514
 Alpha  occ. eigenvalues --   -0.42256  -0.42177  -0.41900  -0.41602  -0.41391
 Alpha  occ. eigenvalues --   -0.41356  -0.41202  -0.40982  -0.40672  -0.40485
 Alpha  occ. eigenvalues --   -0.40143  -0.39883  -0.39720  -0.39188  -0.39078
 Alpha  occ. eigenvalues --   -0.38629  -0.38373  -0.38105  -0.37922  -0.37719
 Alpha  occ. eigenvalues --   -0.36916  -0.36138  -0.35610  -0.34158  -0.33738
 Alpha  occ. eigenvalues --   -0.33613  -0.33518  -0.32743  -0.32452  -0.31051
 Alpha  occ. eigenvalues --   -0.30921  -0.30721  -0.30105  -0.28781  -0.28041
 Alpha  occ. eigenvalues --   -0.27417  -0.26551  -0.25879  -0.25496  -0.24870
 Alpha  occ. eigenvalues --   -0.24143  -0.24077  -0.23491  -0.22483  -0.19101
 Alpha virt. eigenvalues --   -0.10735  -0.06655  -0.06264  -0.01628  -0.00246
 Alpha virt. eigenvalues --    0.00089   0.00340   0.01128   0.01719   0.03096
 Alpha virt. eigenvalues --    0.04092   0.04516   0.04802   0.04847   0.05909

 Mulliken charges:
               1
     1  O   -0.200294
     2  O   -0.224953
     3  O   -0.196655
     4  O   -0.135736
     5  O   -0.116465
     6  O   -0.234302
     7  N   -0.108697
     8  N   -0.255537
     9  N   -0.088993
    10  N   -0.154319
    11  C    0.157002
    12  C    0.327631
    13  C   -0.143124
    14  C   -0.136837
    15  C   -0.075277
    16  C    0.070678
    17  C   -0.188661
    18  C   -0.002901
    19  C    0.033756
    20  C   -0.081349
    21  C    0.090951
    22  C    0.114543
    23  C   -0.102260
    24  C    0.133999
    25  C    0.028043
    26  C   -0.185116
    27  C    0.029799
    28  C    0.206452
    29  C    0.092589
    30  C   -0.133756
    31  C   -0.017760
    32  C    0.084819
    33  C   -0.103187
    34  C    0.114064
    35  C   -0.006938
    36  C    0.047003
    37  C    0.128861
    38  C    0.036606
    39  C   -0.249518
    40  C    0.125479
    41  C   -0.045298
    42  C    0.141697
    43  C   -0.023333
    44  H    0.006362
    45  H   -0.045420
    46  H   -0.035682
    47  H    0.190288
    48  H    0.155570
    49  H    0.031047
    50  H    0.053363
    51  H   -0.025689
    52  H   -0.008354
    53  H    0.032913
    54  H    0.012630
    55  H   -0.001510
    56  H    0.039411
    57  H    0.066227
    58  H    0.086584
    59  H    0.011068
    60  H    0.159209
    61  H    0.019212
    62  H    0.029387
    63  H    0.021401
    64  H    0.044068
    65  H   -0.015075
    66  H    0.010857
    67  H    0.031240
    68  H    0.052766
    69  H   -0.058238
    70  H    0.017866
    71  H   -0.001505
    72  H    0.150804
    73  H   -0.008560
    74  H    0.055308
    75  H   -0.028760
    76  H    0.038928
    77  H    0.097378
    78  H    0.020433
    79  H    0.041767
 Sum of Mulliken charges =   0.00000

 Dipole moment (field-independent basis, Debye):
    X=              1.5131    Y=              2.2259    Z=              3.1010  Tot=              4.1061
 Quadrupole moment (field-independent basis, Debye-Ang):
   XX=           -224.2515   YY=           -255.1837   ZZ=           -264.4342
   XY=            -15.7060   XZ=             33.1719   YZ=              3.2060

 Normal termination of Gaussian 09 at Tue Jul  9 05:44:00 2019.
