 Gaussian 09, Revision D.01,
 Gaussian 09:  ES64L-G09RevD.01 24-Apr-2013

 --------------------------
 # td=(NStates=1) B3LYP/SVP
 --------------------------

 --
 TD
 --
 Symbolic Z-matrix:
 Charge =  0 Multiplicity = 1

                         Standard orientation:
 ---------------------------------------------------------------------
 Center     Atomic      Atomic             Coordinates (Angstroms)
 Number     Number       Type             X           Y           Z
 ---------------------------------------------------------------------
      1          8           0        5.308096   -0.704268   -3.383810
      2          8           0       -2.899119   -2.792812    3.145280
      3          8           0       -3.204083   -0.524934    3.228033
      4          8           0       -1.323210    7.262967    1.304722
      5          8           0       -0.550540    6.919046   -0.775508
      6          8           0       -1.890142   -4.063056    0.087264
      7          7           0        2.384086    1.046732    0.428036
      8          7           0        4.335567   -0.845348   -1.221032
      9          7           0       -1.948029    0.587387   -0.456806
     10          7           0       -2.739211   -1.828612   -0.440791
     11          6           0        4.883173   -1.243872    0.120904
     12          6           0        4.454745   -0.196427    1.165147
     13          6           0        3.031844    0.116961    1.280420
     14          6           0        2.065823   -0.431504    2.099833
     15          6           0        0.748828    0.079158    1.874545
     16          6           0        0.970355    1.051844    0.734519
     17          6           0        6.374152   -1.299218   -0.102188
     18          6           0       -0.457665   -0.040459    2.486658
     19          6           0        6.723399   -1.048201   -1.363252
     20          6           0        0.135493    2.009673    0.108191
     21          6           0       -1.162653    1.825587   -0.335084
     22          6           0        5.432099   -0.850994   -2.152645
     23          6           0       -1.990356    2.900160   -0.904984
     24          6           0        2.317399   -1.496222    3.165195
     25          6           0        7.332053   -1.635024    1.126835
     26          6           0       -3.245234    2.295048   -1.283759
     27          6           0       -1.059912   -1.506128    2.589629
     28          6           0       -3.240113    0.876446   -0.919618
     29          6           0       -1.520250    4.301719   -1.027193
     30          6           0        7.989487   -0.934745   -2.097078
     31          6           0       -1.686184    5.072106    0.266121
     32          6           0       -4.475244    2.893957   -1.809133
     33          6           0       -4.082055   -0.100136   -1.319762
     34          6           0       -2.539398   -1.504835    3.018189
     35          6           0       -3.935868   -1.450559   -0.918352
     36          6           0        9.216493   -0.922457   -1.602522
     37          6           0       -1.048288    6.503869    0.185700
     38          6           0       -4.734354   -2.661767   -1.393008
     39          6           0       -4.045482   -3.846118   -1.069622
     40          6           0       -2.761701   -3.302232   -0.327964
     41          6           0       -6.079668   -2.401441   -1.914029
     42          6           0       -4.346648   -5.234793   -1.125837
     43          6           0       -6.852195   -3.386111   -2.317559
     44          1           0        4.595468   -2.272804    0.461797
     45          1           0        4.952380    0.847788    0.915633
     46          1           0        4.856538   -0.732904    2.195959
     47          1           0        2.766396    1.545668   -0.380236
     48          1           0        3.373268   -1.307626   -1.631851
     49          1           0       -0.405633    0.309307    3.636350
     50          1           0       -1.116371    0.596680    1.882711
     51          1           0        0.550022    3.067683   -0.062245
     52          1           0        3.262021   -1.411906    3.782001
     53          1           0        1.469267   -1.496866    3.972004
     54          1           0        1.964355   -2.699491    2.782951
     55          1           0        6.705269   -2.158165    2.185326
     56          1           0        7.814169   -0.565575    1.542616
     57          1           0        8.150745   -2.343387    0.585066
     58          1           0       -0.890241   -2.167567    1.645045
     59          1           0       -0.632096   -2.056868    3.367780
     60          1           0       -1.594825   -0.369924   -0.189540
     61          1           0       -1.964866    4.770997   -1.871261
     62          1           0       -0.597447    4.352366   -1.349166
     63          1           0        7.835402   -0.989114   -3.244050
     64          1           0       -1.220587    4.651459    1.100184
     65          1           0       -2.766149    5.448911    0.570402
     66          1           0       -4.332458    3.920533   -2.010119
     67          1           0       -5.481264    2.594080   -1.192840
     68          1           0       -4.689313    2.591469   -2.934024
     69          1           0       -5.056072    0.050260   -1.767269
     70          1           0        9.281098   -0.882777   -0.418186
     71          1           0       10.130318   -0.742519   -2.384695
     72          1           0       -3.775772   -3.000013    3.416293
     73          1           0       -6.383489   -1.441684   -1.942426
     74          1           0       -4.541940   -5.644763   -2.188460
     75          1           0       -3.569068   -5.785082   -0.646514
     76          1           0       -5.217822   -5.348907   -0.375156
     77          1           0       -1.020716    8.103806    1.000736
     78          1           0       -7.972217   -3.071697   -2.642212
     79          1           0       -6.705732   -4.457743   -2.256088
 ---------------------------------------------------------------------

 SCF Done:  E(RB3LYP) =  -1947.83194054     A.U. after   16 cycles

 Excitation energies and oscillator strengths:

 Excited State   1:      Singlet-A      2.0058 eV  618.12 nm  f=0.4181  <S**2>=0.000
     155 ->156         0.69741
     155 <-156        -0.10641
 This state for optimization and/or second-order correction.
 Total Energy, E(TD-HF/TD-KS) =  -1947.75822828
 Copying the excited state density for this state as the 1-particle RhoCI density.

 The electronic state is 1-A.
 Alpha  occ. eigenvalues --  -19.18389 -19.16871 -19.14221 -19.11489 -19.11440
 Alpha  occ. eigenvalues --  -19.10904 -14.38176 -14.36181 -14.35780 -14.29362
 Alpha  occ. eigenvalues --  -10.32385 -10.30874 -10.29294 -10.27430 -10.25879
 Alpha  occ. eigenvalues --  -10.25391 -10.24221 -10.24163 -10.23357 -10.23331
 Alpha  occ. eigenvalues --  -10.23119 -10.23018 -10.22922 -10.22033 -10.21918
 Alpha  occ. eigenvalues --  -10.21665 -10.21630 -10.21383 -10.21125 -10.21050
 Alpha  occ. eigenvalues --  -10.20951 -10.20645 -10.20283 -10.19979 -10.19791
 Alpha  occ. eigenvalues --  -10.19659 -10.19635 -10.19394 -10.19282 -10.19153
 Alpha  occ. eigenvalues --  -10.19122 -10.18878 -10.18401  -1.11786  -1.08322
 Alpha  occ. eigenvalues --   -1.03328  -1.01046  -1.00979  -1.00174  -0.95626
 Alpha  occ. eigenvalues --   -0.94754  -0.92254  -0.90104  -0.82884  -0.81937
 Alpha  occ. eigenvalues --   -0.81715  -0.80804  -0.80408  -0.79154  -0.77534
 Alpha  occ. eigenvalues --   -0.76912  -0.76201  -0.75210  -0.74634  -0.72280
 Alpha  occ. eigenvalues --   -0.70988  -0.69702  -0.69078  -0.68048  -0.67634
 Alpha  occ. eigenvalues --   -0.67309  -0.65460  -0.62767  -0.61088  -0.59591
 Alpha  occ. eigenvalues --   -0.59308  -0.58782  -0.57459  -0.56681  -0.55995
 Alpha  occ. eigenvalues --   -0.55839  -0.55057  -0.54219  -0.53032  -0.51894
 Alpha  occ. eigenvalues --   -0.51284  -0.50764  -0.50446  -0.50000  -0.49702
 Alpha  occ. eigenvalues --   -0.49527  -0.48737  -0.47974  -0.47325  -0.47189
 Alpha  occ. eigenvalues --   -0.46728  -0.46402  -0.46220  -0.45398  -0.45237
 Alpha  occ. eigenvalues --   -0.44751  -0.44566  -0.44181  -0.43725  -0.43299
 Alpha  occ. eigenvalues --   -0.42867  -0.42712  -0.42597  -0.42209  -0.42036
 Alpha  occ. eigenvalues --   -0.41866  -0.41815  -0.41611  -0.41118  -0.40526
 Alpha  occ. eigenvalues --   -0.40383  -0.39914  -0.39753  -0.39532  -0.39379
 Alpha  occ. eigenvalues --   -0.38856  -0.38650  -0.38577  -0.38311  -0.38087
 Alpha  occ. eigenvalues --   -0.37745  -0.37624  -0.36966  -0.36940  -0.36577
 Alpha  occ. eigenvalues --   -0.36208  -0.35689  -0.35180  -0.34851  -0.34455
 Alpha  occ. eigenvalues --   -0.34134  -0.34019  -0.33990  -0.32494  -0.32249
 Alpha  occ. eigenvalues --   -0.31644  -0.31352  -0.29142  -0.28543  -0.27490
 Alpha  occ. eigenvalues --   -0.27117  -0.26833  -0.25692  -0.25267  -0.24553
 Alpha  occ. eigenvalues --   -0.23930  -0.23743  -0.23193  -0.21726  -0.18595
 Alpha virt. eigenvalues --   -0.10615  -0.06473  -0.05855  -0.00780  -0.00043
 Alpha virt. eigenvalues --    0.00116   0.00624   0.00844   0.02161   0.02514
 Alpha virt. eigenvalues --    0.03719   0.03942   0.04913   0.05051   0.05247

 Mulliken charges:
               1
     1  O   -0.240661
     2  O   -0.174002
     3  O   -0.212093
     4  O   -0.187237
     5  O   -0.171917
     6  O   -0.213608
     7  N   -0.143910
     8  N   -0.286130
     9  N   -0.181989
    10  N   -0.344864
    11  C    0.091371
    12  C    0.112880
    13  C    0.002009
    14  C   -0.104400
    15  C   -0.005996
    16  C    0.072863
    17  C   -0.160516
    18  C    0.052840
    19  C   -0.019872
    20  C   -0.148059
    21  C    0.125561
    22  C    0.166876
    23  C   -0.104757
    24  C   -0.033988
    25  C   -0.097089
    26  C   -0.125428
    27  C   -0.052969
    28  C    0.196396
    29  C    0.247192
    30  C   -0.010733
    31  C   -0.011740
    32  C    0.056218
    33  C   -0.093841
    34  C    0.152041
    35  C    0.072311
    36  C   -0.091293
    37  C    0.093883
    38  C    0.020147
    39  C   -0.199463
    40  C    0.196878
    41  C    0.060312
    42  C    0.078665
    43  C   -0.051745
    44  H    0.033943
    45  H    0.013950
    46  H    0.020841
    47  H    0.127623
    48  H    0.184906
    49  H    0.028702
    50  H    0.018827
    51  H    0.021642
    52  H    0.035012
    53  H    0.018260
    54  H    0.048081
    55  H    0.065729
    56  H    0.082376
    57  H    0.087109
    58  H    0.081948
    59  H   -0.001076
    60  H    0.175940
    61  H   -0.014722
    62  H   -0.049977
    63  H    0.038859
    64  H    0.022908
    65  H    0.062657
    66  H   -0.011082
    67  H    0.062783
    68  H    0.029399
    69  H   -0.026567
    70  H    0.037935
    71  H    0.063637
    72  H    0.163249
    73  H   -0.058409
    74  H    0.055599
    75  H    0.008974
    76  H    0.037297
    77  H    0.155225
    78  H    0.028792
    79  H    0.019485
 Sum of Mulliken charges =   0.00000

 Dipole moment (field-independent basis, Debye):
    X=              0.4550    Y=              1.6588    Z=              2.8844  Tot=              3.3583
 Quadrupole moment (field-independent basis, Debye-Ang):
   XX=           -219.3275   YY=           -240.1824   ZZ=           -265.9227
   XY=             -0.6790   XZ=             27.3390   YZ=             -5.4456

 Normal termination of Gaussian 09 at Wed Jul 10 01:16:46 2019.
