 Gaussian 09, Revision D.01,
 Gaussian 09:  ES64L-G09RevD.01 24-Apr-2013

 --------------------------
 # td=(NStates=1) B3LYP/SVP
 --------------------------

 --
 TD
 --
 Symbolic Z-matrix:
 Charge =  0 Multiplicity = 1

                         Standard orientation:
 ---------------------------------------------------------------------
 Center     Atomic      Atomic             Coordinates (Angstroms)
 Number     Number       Type             X           Y           Z
 ---------------------------------------------------------------------
      1          8           0        5.343397   -0.108876   -3.284191
      2          8           0       -3.080353   -3.077870    3.222717
      3          8           0       -3.238085   -0.822422    3.066344
      4          8           0       -1.884858    7.145028    1.570057
      5          8           0       -1.055714    7.084633   -0.531127
      6          8           0       -1.803655   -4.093650   -0.068981
      7          7           0        2.355321    0.816867    0.622684
      8          7           0        4.459924   -0.521309   -1.214551
      9          7           0       -1.814183    0.495456   -0.511337
     10          7           0       -2.575236   -1.837620   -0.477881
     11          6           0        4.924436   -1.259662    0.017910
     12          6           0        4.378505   -0.496777    1.193279
     13          6           0        2.996839   -0.125348    1.361847
     14          6           0        2.007667   -0.748653    2.185345
     15          6           0        0.728204   -0.082283    1.850736
     16          6           0        1.009481    0.886848    0.873668
     17          6           0        6.395831   -1.353157   -0.235188
     18          6           0       -0.520723   -0.347826    2.644948
     19          6           0        6.690192   -0.700638   -1.415159
     20          6           0        0.208998    1.806441    0.219872
     21          6           0       -1.048472    1.752076   -0.281594
     22          6           0        5.437966   -0.403734   -2.169759
     23          6           0       -1.880804    2.836512   -0.821450
     24          6           0        2.313922   -1.732982    3.338857
     25          6           0        7.316008   -1.821654    0.825084
     26          6           0       -3.094673    2.318445   -1.250893
     27          6           0       -1.106268   -1.842998    2.530355
     28          6           0       -3.035299    0.938950   -1.000494
     29          6           0       -1.502040    4.321135   -0.809424
     30          6           0        8.026755   -0.439647   -2.120116
     31          6           0       -1.824771    4.971774    0.568299
     32          6           0       -4.209673    3.116941   -1.822501
     33          6           0       -3.967295   -0.079680   -1.314257
     34          6           0       -2.569746   -1.864041    2.978639
     35          6           0       -3.780337   -1.389521   -1.067921
     36          6           0        9.195915   -0.235374   -1.577325
     37          6           0       -1.550834    6.509791    0.411840
     38          6           0       -4.627213   -2.484806   -1.437133
     39          6           0       -3.982543   -3.634111   -1.184095
     40          6           0       -2.667394   -3.305491   -0.441472
     41          6           0       -5.965029   -2.320092   -2.170171
     42          6           0       -4.362643   -5.039073   -1.349630
     43          6           0       -6.667027   -3.270576   -2.861433
     44          1           0        4.719654   -2.321914    0.075956
     45          1           0        4.908854    0.419393    1.354389
     46          1           0        4.882627   -1.183381    2.061158
     47          1           0        2.777400    1.202352   -0.295812
     48          1           0        3.426692   -0.971298   -1.601037
     49          1           0       -0.248059   -0.182581    3.811132
     50          1           0       -1.266242    0.430878    2.302749
     51          1           0        0.714546    2.787312   -0.058732
     52          1           0        3.431528   -2.033495    3.456158
     53          1           0        2.018003   -1.168857    4.289297
     54          1           0        1.629400   -2.698594    3.355065
     55          1           0        6.827357   -2.717686    1.203494
     56          1           0        7.468490   -1.188047    1.604013
     57          1           0        8.385337   -1.985997    0.251636
     58          1           0       -1.092189   -2.240198    1.492217
     59          1           0       -0.389638   -2.537264    3.319429
     60          1           0       -1.576570   -0.386345   -0.198072
     61          1           0       -2.139640    5.016993   -1.527025
     62          1           0       -0.391606    4.537663   -0.980792
     63          1           0        7.727546   -0.350193   -3.232658
     64          1           0       -1.070633    4.463332    1.236294
     65          1           0       -2.905972    4.764123    1.086737
     66          1           0       -3.864887    4.201444   -2.227374
     67          1           0       -4.997696    3.165743   -0.885427
     68          1           0       -4.687278    2.475869   -2.429929
     69          1           0       -4.945211    0.394841   -1.818054
     70          1           0        9.442919    0.005836   -0.491052
     71          1           0       10.227135   -0.249528   -2.141939
     72          1           0       -4.122655   -3.036400    3.528791
     73          1           0       -6.383171   -1.253619   -2.088890
     74          1           0       -4.035499   -5.525680   -2.293828
     75          1           0       -3.874439   -5.706109   -0.415747
     76          1           0       -5.689758   -5.173243   -1.270359
     77          1           0       -1.729704    8.045078    1.221917
     78          1           0       -7.834511   -3.147934   -3.389711
     79          1           0       -6.176386   -4.425726   -3.058958
 ---------------------------------------------------------------------

 SCF Done:  E(RB3LYP) =  -1947.80342933     A.U. after   16 cycles

 Excitation energies and oscillator strengths:

 Excited State   1:      Singlet-A      2.0545 eV  603.47 nm  f=0.3137  <S**2>=0.000
     154 ->156         0.23039
     155 ->156         0.66367
     155 <-156        -0.10326
 This state for optimization and/or second-order correction.
 Total Energy, E(TD-HF/TD-KS) =  -1947.72792719
 Copying the excited state density for this state as the 1-particle RhoCI density.

 The electronic state is 1-A.
 Alpha  occ. eigenvalues --  -19.19539 -19.17706 -19.15048 -19.11515 -19.10397
 Alpha  occ. eigenvalues --  -19.10308 -14.38891 -14.36485 -14.35619 -14.28072
 Alpha  occ. eigenvalues --  -10.33790 -10.30597 -10.28593 -10.26283 -10.25124
 Alpha  occ. eigenvalues --  -10.24733 -10.24560 -10.23580 -10.23369 -10.23101
 Alpha  occ. eigenvalues --  -10.22819 -10.22472 -10.22373 -10.22351 -10.22247
 Alpha  occ. eigenvalues --  -10.22147 -10.22131 -10.21899 -10.21579 -10.21269
 Alpha  occ. eigenvalues --  -10.21216 -10.21195 -10.21081 -10.20976 -10.20924
 Alpha  occ. eigenvalues --  -10.20793 -10.20667 -10.20498 -10.20031 -10.20002
 Alpha  occ. eigenvalues --  -10.19597 -10.19314 -10.19074  -1.11492  -1.06682
 Alpha  occ. eigenvalues --   -1.06498  -1.02318  -1.00117  -0.99059  -0.96994
 Alpha  occ. eigenvalues --   -0.96331  -0.94414  -0.89330  -0.82980  -0.82714
 Alpha  occ. eigenvalues --   -0.81869  -0.80355  -0.79678  -0.78605  -0.78126
 Alpha  occ. eigenvalues --   -0.77028  -0.75914  -0.74358  -0.73433  -0.72399
 Alpha  occ. eigenvalues --   -0.71577  -0.71023  -0.69199  -0.68533  -0.67954
 Alpha  occ. eigenvalues --   -0.66240  -0.65814  -0.63494  -0.60116  -0.59229
 Alpha  occ. eigenvalues --   -0.58808  -0.58039  -0.56991  -0.56498  -0.56242
 Alpha  occ. eigenvalues --   -0.55675  -0.54774  -0.54489  -0.54122  -0.52897
 Alpha  occ. eigenvalues --   -0.52286  -0.50987  -0.50841  -0.50437  -0.49757
 Alpha  occ. eigenvalues --   -0.49354  -0.48489  -0.48329  -0.47576  -0.47205
 Alpha  occ. eigenvalues --   -0.46760  -0.46405  -0.46083  -0.45529  -0.45296
 Alpha  occ. eigenvalues --   -0.44866  -0.44707  -0.44190  -0.43908  -0.43563
 Alpha  occ. eigenvalues --   -0.43202  -0.43009  -0.42820  -0.42570  -0.42276
 Alpha  occ. eigenvalues --   -0.41896  -0.41604  -0.41324  -0.40977  -0.40835
 Alpha  occ. eigenvalues --   -0.40521  -0.40445  -0.40034  -0.39818  -0.39465
 Alpha  occ. eigenvalues --   -0.38915  -0.38801  -0.38709  -0.38097  -0.37521
 Alpha  occ. eigenvalues --   -0.37383  -0.36956  -0.36839  -0.36410  -0.36305
 Alpha  occ. eigenvalues --   -0.35973  -0.35955  -0.35023  -0.34692  -0.34077
 Alpha  occ. eigenvalues --   -0.33868  -0.33526  -0.32082  -0.31677  -0.31369
 Alpha  occ. eigenvalues --   -0.30756  -0.30344  -0.30016  -0.29045  -0.27932
 Alpha  occ. eigenvalues --   -0.26941  -0.26546  -0.25818  -0.25706  -0.24897
 Alpha  occ. eigenvalues --   -0.24378  -0.23762  -0.22806  -0.21679  -0.19209
 Alpha virt. eigenvalues --   -0.10897  -0.05984  -0.05691  -0.01915  -0.00491
 Alpha virt. eigenvalues --   -0.00145   0.00697   0.01318   0.01828   0.02334
 Alpha virt. eigenvalues --    0.02464   0.02769   0.03714   0.04288   0.04595

 Mulliken charges:
               1
     1  O   -0.142779
     2  O   -0.230619
     3  O   -0.270104
     4  O   -0.172717
     5  O   -0.225127
     6  O   -0.219910
     7  N   -0.078428
     8  N   -0.289667
     9  N   -0.084631
    10  N   -0.405869
    11  C    0.111383
    12  C    0.167913
    13  C   -0.050848
    14  C   -0.119615
    15  C   -0.084273
    16  C    0.101495
    17  C   -0.203716
    18  C    0.029172
    19  C   -0.139908
    20  C   -0.134831
    21  C    0.101852
    22  C    0.139396
    23  C   -0.030431
    24  C    0.009879
    25  C    0.097096
    26  C   -0.140505
    27  C   -0.061988
    28  C    0.116920
    29  C    0.005471
    30  C    0.042930
    31  C   -0.085525
    32  C    0.111554
    33  C   -0.185003
    34  C    0.166942
    35  C    0.184643
    36  C   -0.098094
    37  C    0.164958
    38  C    0.048811
    39  C   -0.165526
    40  C    0.202840
    41  C    0.013605
    42  C   -0.068136
    43  C   -0.149079
    44  H    0.020350
    45  H   -0.013105
    46  H    0.005775
    47  H    0.151528
    48  H    0.174791
    49  H    0.029493
    50  H    0.033104
    51  H    0.001746
    52  H    0.024946
    53  H    0.031790
    54  H    0.053850
    55  H    0.012409
    56  H    0.021337
    57  H    0.058788
    58  H    0.092853
    59  H    0.051192
    60  H    0.110844
    61  H    0.042725
    62  H    0.041387
    63  H    0.047292
    64  H    0.054987
    65  H    0.078355
    66  H    0.064048
    67  H    0.046312
    68  H   -0.007183
    69  H   -0.001185
    70  H    0.040006
    71  H    0.046673
    72  H    0.236404
    73  H    0.015056
    74  H    0.051308
    75  H    0.060705
    76  H    0.046479
    77  H    0.168521
    78  H    0.063059
    79  H    0.063827
 Sum of Mulliken charges =   0.00000

 Dipole moment (field-independent basis, Debye):
    X=              1.9075    Y=              2.7643    Z=              2.9079  Tot=              4.4425
 Quadrupole moment (field-independent basis, Debye-Ang):
   XX=           -217.3596   YY=           -250.4370   ZZ=           -263.7849
   XY=            -14.4890   XZ=             25.9861   YZ=              0.2910

 Normal termination of Gaussian 09 at Sun Jul  7 23:41:21 2019.
