 Gaussian 09, Revision D.01,
 Gaussian 09:  ES64L-G09RevD.01 24-Apr-2013

 --------------------------
 # td=(NStates=1) B3LYP/SVP
 --------------------------

 --
 TD
 --
 Symbolic Z-matrix:
 Charge =  0 Multiplicity = 1

                         Standard orientation:
 ---------------------------------------------------------------------
 Center     Atomic      Atomic             Coordinates (Angstroms)
 Number     Number       Type             X           Y           Z
 ---------------------------------------------------------------------
      1          8           0        5.361169   -0.070441   -3.316466
      2          8           0       -2.765299   -3.301438    3.213810
      3          8           0       -3.283810   -1.041831    3.279408
      4          8           0       -1.605589    7.145662    1.645483
      5          8           0       -0.550002    6.959579   -0.357953
      6          8           0       -2.000753   -4.064240   -0.086549
      7          7           0        2.311728    1.004834    0.646187
      8          7           0        4.401725   -0.601472   -1.247663
      9          7           0       -1.985315    0.714417   -0.350080
     10          7           0       -2.623530   -1.877502   -0.664449
     11          6           0        4.904663   -1.187692    0.059707
     12          6           0        4.535622   -0.140174    1.207411
     13          6           0        2.938336   -0.020365    1.389734
     14          6           0        1.931429   -0.789580    2.101250
     15          6           0        0.687866   -0.112533    1.787227
     16          6           0        0.964907    0.927845    0.818488
     17          6           0        6.387788   -1.385024   -0.225406
     18          6           0       -0.547805   -0.454642    2.623449
     19          6           0        6.731237   -0.860220   -1.422187
     20          6           0        0.120882    1.838505    0.273482
     21          6           0       -1.171344    1.918765   -0.178438
     22          6           0        5.430316   -0.364010   -2.105016
     23          6           0       -1.927532    2.956428   -0.763186
     24          6           0        2.145723   -1.817958    3.137416
     25          6           0        7.137159   -1.860056    0.909611
     26          6           0       -3.041223    2.425598   -1.238221
     27          6           0       -1.031055   -1.807321    2.486817
     28          6           0       -3.127796    0.972533   -0.973444
     29          6           0       -1.479259    4.334123   -0.777485
     30          6           0        7.948859   -0.670073   -2.180027
     31          6           0       -1.851208    5.034557    0.493709
     32          6           0       -4.307059    3.092982   -2.068231
     33          6           0       -4.029796   -0.015264   -1.270781
     34          6           0       -2.390884   -1.913640    3.086890
     35          6           0       -3.656127   -1.409546   -1.152886
     36          6           0        9.268214   -0.839370   -1.698255
     37          6           0       -1.293285    6.549920    0.487924
     38          6           0       -4.589467   -2.403673   -1.468328
     39          6           0       -4.088391   -3.584043   -1.247660
     40          6           0       -2.764453   -3.213726   -0.540355
     41          6           0       -5.920740   -2.182741   -2.126435
     42          6           0       -4.549701   -5.050345   -1.194501
     43          6           0       -6.640720   -3.112634   -2.786571
     44          1           0        4.186454   -2.191407    0.235276
     45          1           0        5.005631    0.744447    1.212149
     46          1           0        4.785188   -0.826469    2.110312
     47          1           0        2.896620    1.546427   -0.091084
     48          1           0        3.504158   -0.405918   -1.484588
     49          1           0       -0.253505   -0.149921    3.628215
     50          1           0       -1.242089    0.267726    2.387986
     51          1           0        0.622693    2.808928   -0.188282
     52          1           0        3.226326   -1.672127    3.516596
     53          1           0        1.299264   -1.893801    4.052061
     54          1           0        1.987260   -2.910760    2.603616
     55          1           0        6.729863   -2.549024    1.655569
     56          1           0        7.477970   -0.964366    1.407586
     57          1           0        8.042913   -2.418620    0.760505
     58          1           0       -1.155494   -2.209824    1.387633
     59          1           0       -0.279609   -2.510163    2.919072
     60          1           0       -1.760681   -0.301573   -0.193110
     61          1           0       -2.008496    4.830446   -1.566468
     62          1           0       -0.373240    4.435804   -0.845416
     63          1           0        7.671975   -0.497496   -3.241533
     64          1           0       -1.396489    4.637247    1.451946
     65          1           0       -3.064700    5.183287    0.683304
     66          1           0       -3.966349    4.153996   -2.592758
     67          1           0       -5.225616    2.974292   -1.441669
     68          1           0       -4.377517    2.399320   -3.045012
     69          1           0       -4.873841    0.235246   -1.989131
     70          1           0        9.451137   -0.964055   -0.625331
     71          1           0       10.084843   -0.762374   -2.465819
     72          1           0       -3.681721   -3.302978    3.664880
     73          1           0       -6.305149   -1.185428   -2.103692
     74          1           0       -4.649074   -5.511349   -2.257179
     75          1           0       -3.915372   -5.629553   -0.481584
     76          1           0       -5.676494   -5.142516   -0.903803
     77          1           0       -1.271644    8.077857    1.546691
     78          1           0       -7.635886   -3.020809   -3.380781
     79          1           0       -6.188223   -4.114517   -2.710209
 ---------------------------------------------------------------------

 SCF Done:  E(RB3LYP) =  -1947.85553328     A.U. after   17 cycles

 Excitation energies and oscillator strengths:

 Excited State   1:      Singlet-A      2.2813 eV  543.48 nm  f=0.5599  <S**2>=0.000
     155 ->156         0.70417
     155 <-156        -0.11167
 This state for optimization and/or second-order correction.
 Total Energy, E(TD-HF/TD-KS) =  -1947.77169621
 Copying the excited state density for this state as the 1-particle RhoCI density.

 The electronic state is 1-A.
 Alpha  occ. eigenvalues --  -19.20058 -19.15943 -19.14073 -19.12527 -19.10592
 Alpha  occ. eigenvalues --  -19.09929 -14.40301 -14.35634 -14.35502 -14.28732
 Alpha  occ. eigenvalues --  -10.33004 -10.31811 -10.28714 -10.27618 -10.26316
 Alpha  occ. eigenvalues --  -10.25451 -10.24144 -10.24113 -10.23686 -10.23659
 Alpha  occ. eigenvalues --  -10.23404 -10.23004 -10.22802 -10.22609 -10.22313
 Alpha  occ. eigenvalues --  -10.22277 -10.21121 -10.21058 -10.20909 -10.20880
 Alpha  occ. eigenvalues --  -10.20851 -10.20802 -10.20629 -10.20552 -10.20300
 Alpha  occ. eigenvalues --  -10.20271 -10.19884 -10.19201 -10.19124 -10.18861
 Alpha  occ. eigenvalues --  -10.18377 -10.18248 -10.17962  -1.11166  -1.04373
 Alpha  occ. eigenvalues --   -1.02598  -1.01730  -1.01191  -0.98778  -0.97833
 Alpha  occ. eigenvalues --   -0.96373  -0.95841  -0.93563  -0.84341  -0.83362
 Alpha  occ. eigenvalues --   -0.82829  -0.81491  -0.80450  -0.78929  -0.77960
 Alpha  occ. eigenvalues --   -0.77327  -0.76731  -0.75439  -0.73673  -0.72401
 Alpha  occ. eigenvalues --   -0.72058  -0.70671  -0.69130  -0.68506  -0.67513
 Alpha  occ. eigenvalues --   -0.67384  -0.65997  -0.64546  -0.61877  -0.60373
 Alpha  occ. eigenvalues --   -0.60087  -0.59338  -0.58328  -0.57752  -0.57003
 Alpha  occ. eigenvalues --   -0.56173  -0.55734  -0.55352  -0.53972  -0.53219
 Alpha  occ. eigenvalues --   -0.52534  -0.52520  -0.50662  -0.50268  -0.49859
 Alpha  occ. eigenvalues --   -0.49642  -0.49380  -0.48639  -0.48033  -0.47583
 Alpha  occ. eigenvalues --   -0.47441  -0.46612  -0.46382  -0.46016  -0.45237
 Alpha  occ. eigenvalues --   -0.45097  -0.45056  -0.44748  -0.44224  -0.43761
 Alpha  occ. eigenvalues --   -0.43253  -0.43223  -0.42774  -0.42622  -0.42416
 Alpha  occ. eigenvalues --   -0.41872  -0.41668  -0.41645  -0.41381  -0.41303
 Alpha  occ. eigenvalues --   -0.41172  -0.40496  -0.39970  -0.39829  -0.39527
 Alpha  occ. eigenvalues --   -0.39257  -0.39001  -0.38758  -0.38559  -0.38534
 Alpha  occ. eigenvalues --   -0.38219  -0.37587  -0.37405  -0.37143  -0.37033
 Alpha  occ. eigenvalues --   -0.36596  -0.35763  -0.35625  -0.35019  -0.34530
 Alpha  occ. eigenvalues --   -0.34112  -0.33992  -0.33438  -0.33031  -0.31712
 Alpha  occ. eigenvalues --   -0.31307  -0.30107  -0.29201  -0.29058  -0.27626
 Alpha  occ. eigenvalues --   -0.27205  -0.26602  -0.26347  -0.25545  -0.25250
 Alpha  occ. eigenvalues --   -0.24197  -0.23879  -0.23775  -0.22726  -0.18944
 Alpha virt. eigenvalues --   -0.10167  -0.06766  -0.05922  -0.01325  -0.00236
 Alpha virt. eigenvalues --   -0.00076   0.00288   0.00708   0.01672   0.01973
 Alpha virt. eigenvalues --    0.02863   0.03047   0.03989   0.04469   0.05146

 Mulliken charges:
               1
     1  O   -0.266296
     2  O   -0.268048
     3  O   -0.264078
     4  O   -0.174101
     5  O   -0.212002
     6  O   -0.216995
     7  N   -0.107039
     8  N   -0.166984
     9  N   -0.135247
    10  N   -0.152596
    11  C    0.027156
    12  C    0.198697
    13  C   -0.098937
    14  C   -0.084894
    15  C   -0.141805
    16  C    0.123377
    17  C   -0.115675
    18  C    0.185408
    19  C   -0.045787
    20  C   -0.117915
    21  C    0.056934
    22  C    0.149314
    23  C   -0.040746
    24  C   -0.050410
    25  C    0.087035
    26  C   -0.128447
    27  C   -0.012575
    28  C    0.106261
    29  C    0.194234
    30  C   -0.027472
    31  C   -0.120454
    32  C   -0.007046
    33  C   -0.152931
    34  C    0.179789
    35  C    0.035013
    36  C   -0.028529
    37  C    0.134945
    38  C    0.036729
    39  C   -0.201691
    40  C    0.108274
    41  C   -0.006162
    42  C    0.040806
    43  C   -0.033131
    44  H    0.066184
    45  H   -0.022462
    46  H    0.016878
    47  H    0.159118
    48  H    0.091079
    49  H    0.008680
    50  H   -0.033038
    51  H   -0.003429
    52  H    0.042618
    53  H    0.065300
    54  H    0.067163
    55  H    0.016428
    56  H    0.032056
    57  H    0.014004
    58  H    0.109727
    59  H    0.018059
    60  H    0.150326
    61  H   -0.007660
    62  H    0.018580
    63  H    0.030124
    64  H    0.054361
    65  H    0.061205
    66  H    0.049301
    67  H    0.061328
    68  H    0.049294
    69  H    0.003346
    70  H    0.024573
    71  H    0.046852
    72  H    0.198809
    73  H   -0.025526
    74  H    0.042958
    75  H    0.051000
    76  H    0.028763
    77  H    0.188713
    78  H    0.045373
    79  H   -0.006067
 Sum of Mulliken charges =   0.00000

 Dipole moment (field-independent basis, Debye):
    X=              2.4021    Y=              3.6226    Z=              4.2342  Tot=              6.0681
 Quadrupole moment (field-independent basis, Debye-Ang):
   XX=           -227.8749   YY=           -243.9029   ZZ=           -263.8909
   XY=            -13.6825   XZ=             35.8888   YZ=              1.3625

 Normal termination of Gaussian 09 at Mon Jul  8 12:37:05 2019.
