 Gaussian 09, Revision D.01,
 Gaussian 09:  ES64L-G09RevD.01 24-Apr-2013

 --------------------------
 # td=(NStates=1) B3LYP/SVP
 --------------------------

 --
 TD
 --
 Symbolic Z-matrix:
 Charge =  0 Multiplicity = 1

                         Standard orientation:
 ---------------------------------------------------------------------
 Center     Atomic      Atomic             Coordinates (Angstroms)
 Number     Number       Type             X           Y           Z
 ---------------------------------------------------------------------
      1          8           0        5.510104   -0.172805   -3.304657
      2          8           0       -2.917197   -3.297853    3.257983
      3          8           0       -3.191531   -1.065865    3.290730
      4          8           0       -1.659662    7.251344    1.614301
      5          8           0       -0.236356    6.950227   -0.224000
      6          8           0       -1.942727   -4.074484   -0.192155
      7          7           0        2.341314    0.875687    0.629903
      8          7           0        4.511604   -0.717741   -1.349650
      9          7           0       -1.982267    0.742390   -0.384720
     10          7           0       -2.669213   -1.803742   -0.655544
     11          6           0        4.873817   -1.149689   -0.019531
     12          6           0        4.488277   -0.407266    1.197482
     13          6           0        3.017121   -0.094744    1.283562
     14          6           0        2.054696   -0.762350    1.972662
     15          6           0        0.768502   -0.209836    1.695408
     16          6           0        0.914464    0.845384    0.812909
     17          6           0        6.390287   -1.326494   -0.123546
     18          6           0       -0.454434   -0.456395    2.354891
     19          6           0        6.781136   -0.856240   -1.327247
     20          6           0        0.155015    1.823378    0.150524
     21          6           0       -1.168668    1.814496   -0.228765
     22          6           0        5.495614   -0.505666   -2.182498
     23          6           0       -1.916709    2.936668   -0.789192
     24          6           0        2.169197   -1.883674    2.915843
     25          6           0        7.247086   -1.868694    0.938454
     26          6           0       -3.191178    2.481789   -1.188732
     27          6           0       -1.083143   -1.913755    2.437722
     28          6           0       -3.132448    1.021743   -0.961242
     29          6           0       -1.480429    4.439280   -0.749975
     30          6           0        7.998151   -0.666933   -2.059475
     31          6           0       -1.686166    5.140817    0.546293
     32          6           0       -4.328898    3.214724   -1.921172
     33          6           0       -4.111410    0.069197   -1.315964
     34          6           0       -2.456672   -1.981108    3.158714
     35          6           0       -3.836409   -1.283062   -1.095538
     36          6           0        9.226719   -0.744876   -1.550736
     37          6           0       -1.075012    6.526299    0.570412
     38          6           0       -4.820934   -2.446131   -1.380530
     39          6           0       -4.214169   -3.596563   -1.064293
     40          6           0       -2.791147   -3.218756   -0.574429
     41          6           0       -6.112133   -2.055750   -1.967638
     42          6           0       -4.612217   -5.011388   -1.274493
     43          6           0       -6.926726   -2.886274   -2.665585
     44          1           0        4.409438   -2.430936    0.184489
     45          1           0        5.058113    0.496259    1.253369
     46          1           0        5.042098   -1.096994    2.124576
     47          1           0        2.756187    1.504095    0.024611
     48          1           0        3.518736   -0.324380   -1.553318
     49          1           0       -0.359157   -0.139715    3.326414
     50          1           0       -1.313364    0.120503    1.814813
     51          1           0        0.721586    2.805350    0.018744
     52          1           0        3.381112   -2.160962    3.184898
     53          1           0        1.988006   -1.697363    3.910718
     54          1           0        1.674498   -2.781118    2.470100
     55          1           0        6.780231   -2.612709    1.511866
     56          1           0        7.449097   -1.189435    1.743775
     57          1           0        8.079555   -2.308208    0.361843
     58          1           0       -1.180306   -2.275104    1.322863
     59          1           0       -0.159769   -2.537593    2.688062
     60          1           0       -1.799302   -0.305438   -0.450018
     61          1           0       -1.841780    5.089379   -1.645936
     62          1           0       -0.416099    4.205727   -1.046647
     63          1           0        7.920937   -0.254670   -3.172182
     64          1           0       -1.304038    4.532502    1.437335
     65          1           0       -2.819658    5.227787    0.960641
     66          1           0       -4.159873    4.309384   -1.857586
     67          1           0       -5.271098    2.847415   -1.460651
     68          1           0       -4.393276    2.923939   -3.063450
     69          1           0       -5.103744    0.197558   -1.521190
     70          1           0        9.309753   -1.007018   -0.552201
     71          1           0       10.212109   -0.675684   -2.094080
     72          1           0       -3.940265   -3.074422    3.320239
     73          1           0       -6.401688   -1.010875   -1.694162
     74          1           0       -4.887530   -5.224046   -2.408412
     75          1           0       -4.135587   -5.868363   -0.761360
     76          1           0       -5.807828   -5.110312   -0.995944
     77          1           0       -0.943696    7.993140    1.624692
     78          1           0       -8.071087   -2.536942   -2.953046
     79          1           0       -6.990491   -3.960209   -2.837176
 ---------------------------------------------------------------------

 SCF Done:  E(RB3LYP) =  -1947.85076775     A.U. after   16 cycles

 Excitation energies and oscillator strengths:

 Excited State   1:      Singlet-A      2.2340 eV  554.98 nm  f=0.4344  <S**2>=0.000
     154 ->156         0.21394
     155 ->156         0.66754
     155 <-156        -0.10255
 This state for optimization and/or second-order correction.
 Total Energy, E(TD-HF/TD-KS) =  -1947.76866887
 Copying the excited state density for this state as the 1-particle RhoCI density.

 The electronic state is 1-A.
 Alpha  occ. eigenvalues --  -19.19955 -19.16590 -19.15104 -19.12859 -19.10629
 Alpha  occ. eigenvalues --  -19.10270 -14.38782 -14.36945 -14.36844 -14.29972
 Alpha  occ. eigenvalues --  -10.33926 -10.31525 -10.27965 -10.27477 -10.27003
 Alpha  occ. eigenvalues --  -10.25269 -10.25249 -10.24324 -10.24194 -10.23741
 Alpha  occ. eigenvalues --  -10.23625 -10.23512 -10.23323 -10.22597 -10.22284
 Alpha  occ. eigenvalues --  -10.21898 -10.21643 -10.21473 -10.21376 -10.21004
 Alpha  occ. eigenvalues --  -10.20760 -10.20438 -10.20093 -10.20059 -10.19977
 Alpha  occ. eigenvalues --  -10.19897 -10.19855 -10.19457 -10.19444 -10.18952
 Alpha  occ. eigenvalues --  -10.18858 -10.18671 -10.18376  -1.09234  -1.08383
 Alpha  occ. eigenvalues --   -1.05239  -1.01335  -1.00750  -0.99792  -0.99054
 Alpha  occ. eigenvalues --   -0.98905  -0.95951  -0.91183  -0.83713  -0.83013
 Alpha  occ. eigenvalues --   -0.82844  -0.82054  -0.80560  -0.80046  -0.78345
 Alpha  occ. eigenvalues --   -0.78107  -0.76504  -0.75833  -0.74642  -0.73112
 Alpha  occ. eigenvalues --   -0.71671  -0.71589  -0.70164  -0.68765  -0.68092
 Alpha  occ. eigenvalues --   -0.67149  -0.66492  -0.64094  -0.61333  -0.61181
 Alpha  occ. eigenvalues --   -0.59383  -0.58719  -0.58063  -0.57858  -0.57264
 Alpha  occ. eigenvalues --   -0.56652  -0.55868  -0.55469  -0.54220  -0.53502
 Alpha  occ. eigenvalues --   -0.52136  -0.52024  -0.50626  -0.50526  -0.50142
 Alpha  occ. eigenvalues --   -0.49912  -0.49214  -0.48453  -0.48163  -0.47586
 Alpha  occ. eigenvalues --   -0.47362  -0.47110  -0.46863  -0.46705  -0.45976
 Alpha  occ. eigenvalues --   -0.45899  -0.45671  -0.45418  -0.45141  -0.44675
 Alpha  occ. eigenvalues --   -0.43931  -0.43505  -0.43297  -0.43189  -0.42962
 Alpha  occ. eigenvalues --   -0.42690  -0.42513  -0.42114  -0.42003  -0.41867
 Alpha  occ. eigenvalues --   -0.41628  -0.41163  -0.40840  -0.40417  -0.40036
 Alpha  occ. eigenvalues --   -0.39853  -0.39378  -0.38957  -0.38833  -0.38764
 Alpha  occ. eigenvalues --   -0.38409  -0.38363  -0.37739  -0.36438  -0.35990
 Alpha  occ. eigenvalues --   -0.35537  -0.35183  -0.34974  -0.34044  -0.33809
 Alpha  occ. eigenvalues --   -0.33618  -0.33508  -0.33342  -0.32300  -0.31489
 Alpha  occ. eigenvalues --   -0.31350  -0.30844  -0.30154  -0.29278  -0.28138
 Alpha  occ. eigenvalues --   -0.27429  -0.27170  -0.26368  -0.25721  -0.25189
 Alpha  occ. eigenvalues --   -0.24842  -0.24042  -0.23598  -0.22806  -0.19998
 Alpha virt. eigenvalues --   -0.11222  -0.06623  -0.05388  -0.02542  -0.01149
 Alpha virt. eigenvalues --   -0.00281  -0.00025   0.01022   0.02658   0.02772
 Alpha virt. eigenvalues --    0.03312   0.03558   0.04303   0.04428   0.04973

 Mulliken charges:
               1
     1  O   -0.168445
     2  O   -0.247543
     3  O   -0.199966
     4  O   -0.231222
     5  O   -0.230074
     6  O   -0.249606
     7  N   -0.071473
     8  N   -0.140628
     9  N   -0.027888
    10  N   -0.330219
    11  C    0.010344
    12  C    0.142263
    13  C   -0.028455
    14  C   -0.117000
    15  C   -0.062323
    16  C    0.107004
    17  C   -0.183155
    18  C    0.049296
    19  C   -0.074565
    20  C   -0.106889
    21  C    0.093546
    22  C    0.095582
    23  C   -0.124656
    24  C    0.064645
    25  C    0.143630
    26  C   -0.125779
    27  C   -0.101044
    28  C    0.094022
    29  C    0.058490
    30  C   -0.046136
    31  C   -0.030159
    32  C    0.072992
    33  C   -0.028586
    34  C    0.197529
    35  C    0.020310
    36  C   -0.021918
    37  C    0.173855
    38  C    0.067252
    39  C   -0.170005
    40  C    0.200653
    41  C    0.005594
    42  C    0.006794
    43  C   -0.090422
    44  H    0.035665
    45  H   -0.020980
    46  H    0.052055
    47  H    0.076024
    48  H    0.144170
    49  H   -0.009463
    50  H    0.031286
    51  H    0.019914
    52  H   -0.011691
    53  H    0.005893
    54  H    0.076261
    55  H   -0.013018
    56  H    0.019774
    57  H    0.049378
    58  H    0.092729
    59  H    0.014860
    60  H    0.166170
    61  H    0.037571
    62  H    0.028015
    63  H    0.045115
    64  H    0.054275
    65  H    0.062847
    66  H    0.027665
    67  H    0.035299
    68  H    0.053224
    69  H   -0.083485
    70  H   -0.018197
    71  H    0.034827
    72  H    0.199189
    73  H    0.028633
    74  H    0.043586
    75  H    0.053639
    76  H    0.016402
    77  H    0.199904
    78  H    0.029002
    79  H    0.027819
 Sum of Mulliken charges =   0.00000

 Dipole moment (field-independent basis, Debye):
    X=              0.1518    Y=              4.0038    Z=              3.4684  Tot=              5.2993
 Quadrupole moment (field-independent basis, Debye-Ang):
   XX=           -226.0899   YY=           -254.9270   ZZ=           -266.3383
   XY=             -5.5158   XZ=             36.0906   YZ=              4.2096

 Normal termination of Gaussian 09 at Tue Jul  9 15:23:24 2019.
