 Gaussian 09, Revision D.01,
 Gaussian 09:  ES64L-G09RevD.01 24-Apr-2013

 --------------------------
 # td=(NStates=1) B3LYP/SVP
 --------------------------

 --
 TD
 --
 Symbolic Z-matrix:
 Charge =  0 Multiplicity = 1

                         Standard orientation:
 ---------------------------------------------------------------------
 Center     Atomic      Atomic             Coordinates (Angstroms)
 Number     Number       Type             X           Y           Z
 ---------------------------------------------------------------------
      1          8           0        5.433597   -0.294766   -3.352740
      2          8           0       -2.724122   -3.002315    3.430394
      3          8           0       -3.212342   -0.777481    3.205017
      4          8           0       -2.371475    7.117680    1.340528
      5          8           0       -1.122843    7.145150   -0.571635
      6          8           0       -1.649993   -4.123585    0.187913
      7          7           0        2.338527    1.179417    0.422458
      8          7           0        4.468939   -0.486838   -1.292534
      9          7           0       -1.848009    0.557228   -0.437011
     10          7           0       -2.505212   -2.068239   -0.363683
     11          6           0        4.934210   -0.959689    0.054554
     12          6           0        4.578617    0.091699    1.132578
     13          6           0        3.012226    0.293833    1.350079
     14          6           0        2.012468   -0.373303    2.125404
     15          6           0        0.782947    0.070474    1.698051
     16          6           0        1.003111    1.075051    0.709220
     17          6           0        6.396869   -1.057618   -0.140610
     18          6           0       -0.443530   -0.110920    2.355308
     19          6           0        6.822740   -0.717132   -1.323131
     20          6           0        0.080863    2.004529    0.073209
     21          6           0       -1.239221    1.902615   -0.305301
     22          6           0        5.516998   -0.555917   -2.169395
     23          6           0       -2.067319    2.822551   -0.869724
     24          6           0        2.301653   -1.332038    3.356877
     25          6           0        7.293511   -1.544601    1.144564
     26          6           0       -3.161209    2.199351   -1.310641
     27          6           0       -0.937362   -1.636520    2.629194
     28          6           0       -3.092097    0.771481   -0.991586
     29          6           0       -1.872364    4.338260   -1.070596
     30          6           0        8.031985   -0.813185   -2.073856
     31          6           0       -2.082475    5.051840    0.291424
     32          6           0       -4.437956    2.610046   -1.940051
     33          6           0       -4.043810   -0.286553   -1.280892
     34          6           0       -2.511841   -1.701428    3.064067
     35          6           0       -3.684400   -1.672889   -1.015744
     36          6           0        9.215368   -0.625138   -1.492057
     37          6           0       -1.807541    6.568040    0.238983
     38          6           0       -4.566174   -2.821955   -1.411076
     39          6           0       -3.763279   -3.921883   -1.080342
     40          6           0       -2.498724   -3.445261   -0.397736
     41          6           0       -5.850806   -2.798085   -2.022331
     42          6           0       -4.106421   -5.324591   -1.004450
     43          6           0       -6.510180   -3.807972   -2.609394
     44          1           0        4.457581   -1.954202    0.392349
     45          1           0        4.948691    0.973462    0.689767
     46          1           0        5.029676   -0.208564    2.026555
     47          1           0        2.851573    1.649379   -0.398213
     48          1           0        3.450281   -0.307337   -1.536178
     49          1           0       -0.347411    0.053015    3.415514
     50          1           0       -1.300383    0.648588    1.956846
     51          1           0        0.303750    2.966107   -0.060111
     52          1           0        3.414688   -1.117559    3.334650
     53          1           0        2.054649   -0.986090    4.338423
     54          1           0        1.812270   -2.504948    3.219629
     55          1           0        6.704027   -2.512224    1.584162
     56          1           0        7.535127   -0.727455    1.801429
     57          1           0        8.265951   -1.991190    0.764644
     58          1           0       -1.051359   -2.127154    1.533525
     59          1           0       -0.211989   -2.186538    3.083863
     60          1           0       -1.593691   -0.503889   -0.412514
     61          1           0       -2.439113    4.701235   -2.002462
     62          1           0       -0.851596    4.583656   -1.260220
     63          1           0        7.992997   -1.153062   -3.180295
     64          1           0       -1.810078    4.472800    1.064009
     65          1           0       -3.114183    4.916504    0.515501
     66          1           0       -4.433823    3.815369   -2.134831
     67          1           0       -5.576657    2.206292   -1.488161
     68          1           0       -4.554922    2.220645   -2.981027
     69          1           0       -4.933699   -0.019977   -1.956744
     70          1           0        9.364724   -0.297399   -0.374042
     71          1           0       10.128135   -0.820982   -2.229985
     72          1           0       -3.723853   -2.918847    3.553450
     73          1           0       -6.428070   -1.857047   -2.086783
     74          1           0       -3.887206   -5.907014   -1.972697
     75          1           0       -3.385791   -5.849577   -0.200927
     76          1           0       -5.129460   -5.471572   -0.706715
     77          1           0       -1.997665    8.056746    1.221919
     78          1           0       -7.466858   -3.576953   -3.349691
     79          1           0       -5.919754   -4.811199   -2.672646
 ---------------------------------------------------------------------

 SCF Done:  E(RB3LYP) =  -1947.81409928     A.U. after   17 cycles

 Excitation energies and oscillator strengths:

 Excited State   1:      Singlet-A      2.0822 eV  595.44 nm  f=0.3689  <S**2>=0.000
     154 ->156         0.17933
     155 ->156         0.67708
 This state for optimization and/or second-order correction.
 Total Energy, E(TD-HF/TD-KS) =  -1947.73757824
 Copying the excited state density for this state as the 1-particle RhoCI density.

 The electronic state is 1-A.
 Alpha  occ. eigenvalues --  -19.20257 -19.17263 -19.14917 -19.12744 -19.09871
 Alpha  occ. eigenvalues --  -19.09626 -14.39895 -14.36106 -14.36028 -14.29302
 Alpha  occ. eigenvalues --  -10.33857 -10.31174 -10.28438 -10.25903 -10.25526
 Alpha  occ. eigenvalues --  -10.24829 -10.24683 -10.24584 -10.24379 -10.23957
 Alpha  occ. eigenvalues --  -10.22809 -10.22594 -10.22154 -10.22030 -10.21997
 Alpha  occ. eigenvalues --  -10.21963 -10.21827 -10.21286 -10.21029 -10.20857
 Alpha  occ. eigenvalues --  -10.20828 -10.20679 -10.20576 -10.20420 -10.20355
 Alpha  occ. eigenvalues --  -10.20326 -10.20233 -10.20201 -10.19794 -10.19216
 Alpha  occ. eigenvalues --  -10.18894 -10.18579 -10.18518  -1.11208  -1.09017
 Alpha  occ. eigenvalues --   -1.02496  -1.02480  -1.01167  -1.00094  -0.97814
 Alpha  occ. eigenvalues --   -0.96646  -0.93635  -0.90305  -0.83819  -0.82581
 Alpha  occ. eigenvalues --   -0.82152  -0.81285  -0.80532  -0.79411  -0.78828
 Alpha  occ. eigenvalues --   -0.76593  -0.75624  -0.74636  -0.74241  -0.72149
 Alpha  occ. eigenvalues --   -0.70847  -0.70242  -0.69025  -0.68276  -0.68005
 Alpha  occ. eigenvalues --   -0.65883  -0.65050  -0.63343  -0.60452  -0.60389
 Alpha  occ. eigenvalues --   -0.59786  -0.58400  -0.58193  -0.57705  -0.56948
 Alpha  occ. eigenvalues --   -0.56486  -0.55543  -0.54428  -0.53397  -0.52848
 Alpha  occ. eigenvalues --   -0.52099  -0.51636  -0.51029  -0.50463  -0.50388
 Alpha  occ. eigenvalues --   -0.49420  -0.48659  -0.48195  -0.48055  -0.48002
 Alpha  occ. eigenvalues --   -0.47191  -0.46828  -0.46603  -0.46004  -0.45312
 Alpha  occ. eigenvalues --   -0.45256  -0.44728  -0.44294  -0.43657  -0.43520
 Alpha  occ. eigenvalues --   -0.43305  -0.43013  -0.42829  -0.42691  -0.42444
 Alpha  occ. eigenvalues --   -0.41744  -0.41605  -0.41471  -0.41252  -0.40902
 Alpha  occ. eigenvalues --   -0.40526  -0.40240  -0.39977  -0.39755  -0.39664
 Alpha  occ. eigenvalues --   -0.39455  -0.39214  -0.38735  -0.38345  -0.38251
 Alpha  occ. eigenvalues --   -0.37885  -0.37558  -0.36931  -0.36750  -0.36143
 Alpha  occ. eigenvalues --   -0.36001  -0.35498  -0.35331  -0.34926  -0.34281
 Alpha  occ. eigenvalues --   -0.34022  -0.33577  -0.33343  -0.32729  -0.32216
 Alpha  occ. eigenvalues --   -0.31993  -0.31376  -0.30404  -0.28463  -0.27658
 Alpha  occ. eigenvalues --   -0.26974  -0.26629  -0.26340  -0.25735  -0.25333
 Alpha  occ. eigenvalues --   -0.24666  -0.23773  -0.23061  -0.21892  -0.19501
 Alpha virt. eigenvalues --   -0.11025  -0.07180  -0.04998  -0.01655  -0.01260
 Alpha virt. eigenvalues --    0.00212   0.01183   0.02168   0.02251   0.02632
 Alpha virt. eigenvalues --    0.02789   0.03653   0.03802   0.04770   0.05143

 Mulliken charges:
               1
     1  O   -0.221839
     2  O   -0.197714
     3  O   -0.173535
     4  O   -0.190169
     5  O   -0.216573
     6  O   -0.222212
     7  N   -0.155499
     8  N   -0.242520
     9  N   -0.178157
    10  N   -0.319703
    11  C    0.100060
    12  C    0.223238
    13  C   -0.081797
    14  C   -0.125714
    15  C    0.011628
    16  C    0.118437
    17  C   -0.173560
    18  C    0.018921
    19  C   -0.022164
    20  C   -0.025559
    21  C    0.058512
    22  C    0.134963
    23  C   -0.069640
    24  C    0.032720
    25  C    0.012060
    26  C   -0.066332
    27  C   -0.085856
    28  C    0.061729
    29  C    0.108480
    30  C   -0.034594
    31  C    0.052079
    32  C   -0.030191
    33  C   -0.105407
    34  C    0.159632
    35  C    0.100486
    36  C   -0.078560
    37  C    0.178245
    38  C    0.088470
    39  C   -0.198383
    40  C    0.164209
    41  C   -0.041466
    42  C    0.024950
    43  C   -0.098224
    44  H    0.040204
    45  H   -0.027353
    46  H   -0.007220
    47  H    0.159145
    48  H    0.146212
    49  H   -0.002179
    50  H    0.053465
    51  H   -0.071832
    52  H    0.002480
    53  H    0.024508
    54  H    0.089860
    55  H    0.047381
    56  H    0.050375
    57  H    0.039351
    58  H    0.091738
    59  H   -0.015774
    60  H    0.190825
    61  H    0.039695
    62  H   -0.000065
    63  H    0.054056
    64  H   -0.003177
    65  H    0.004993
    66  H    0.028202
    67  H    0.067476
    68  H    0.034398
    69  H    0.007975
    70  H    0.047677
    71  H    0.043830
    72  H    0.172555
    73  H   -0.007368
    74  H    0.042402
    75  H    0.051793
    76  H    0.026885
    77  H    0.191042
    78  H    0.057146
    79  H    0.035853
 Sum of Mulliken charges =   0.00000

 Dipole moment (field-independent basis, Debye):
    X=              0.7419    Y=              3.8274    Z=              2.2679  Tot=              4.5103
 Quadrupole moment (field-independent basis, Debye-Ang):
   XX=           -222.2165   YY=           -251.2527   ZZ=           -262.9976
   XY=             -8.8780   XZ=             33.3916   YZ=              5.4221

 Normal termination of Gaussian 09 at Wed Jul 10 18:56:22 2019.
