 Gaussian 09, Revision D.01,
 Gaussian 09:  ES64L-G09RevD.01 24-Apr-2013

 --------------------------
 # td=(NStates=1) B3LYP/SVP
 --------------------------

 --
 TD
 --
 Symbolic Z-matrix:
 Charge =  0 Multiplicity = 1

                         Standard orientation:
 ---------------------------------------------------------------------
 Center     Atomic      Atomic             Coordinates (Angstroms)
 Number     Number       Type             X           Y           Z
 ---------------------------------------------------------------------
      1          8           0        5.392965   -0.522793   -3.421381
      2          8           0       -3.013813   -2.801916    3.316219
      3          8           0       -3.165570   -0.594247    3.380452
      4          8           0       -0.960043    6.996562    1.585557
      5          8           0       -0.477700    6.951818   -0.681045
      6          8           0       -2.325242   -4.036191    0.064100
      7          7           0        2.383293    0.801986    0.526488
      8          7           0        4.366524   -0.835183   -1.320757
      9          7           0       -1.901405    0.707624   -0.330816
     10          7           0       -2.797105   -1.882249   -0.515342
     11          6           0        4.789859   -1.185475    0.037482
     12          6           0        4.458432   -0.263618    1.228849
     13          6           0        2.999036   -0.118768    1.293164
     14          6           0        2.049273   -0.630730    2.183325
     15          6           0        0.767336   -0.013843    1.843535
     16          6           0        1.043383    0.811399    0.775305
     17          6           0        6.301126   -1.400613   -0.162075
     18          6           0       -0.463631   -0.290962    2.660143
     19          6           0        6.754084   -0.959507   -1.467563
     20          6           0        0.241403    1.786452    0.108575
     21          6           0       -1.026815    1.767809   -0.336385
     22          6           0        5.401527   -0.722994   -2.205777
     23          6           0       -1.773355    2.820650   -1.038064
     24          6           0        2.319602   -1.684763    3.189131
     25          6           0        7.125678   -1.864528    0.970371
     26          6           0       -3.005431    2.388325   -1.318738
     27          6           0       -1.119551   -1.644275    2.619814
     28          6           0       -3.059746    0.972741   -0.956332
     29          6           0       -1.299000    4.272740   -0.965392
     30          6           0        7.969705   -1.064669   -2.123352
     31          6           0       -1.383639    5.039205    0.365238
     32          6           0       -4.239694    3.114325   -1.826454
     33          6           0       -4.036670    0.109469   -1.208819
     34          6           0       -2.505433   -1.571711    3.174771
     35          6           0       -3.869848   -1.270044   -1.011909
     36          6           0        9.192193   -1.179094   -1.617619
     37          6           0       -0.925038    6.409790    0.312622
     38          6           0       -4.920288   -2.349943   -1.468772
     39          6           0       -4.521041   -3.533732   -1.103476
     40          6           0       -3.015696   -3.186393   -0.491548
     41          6           0       -6.229533   -1.996338   -1.980954
     42          6           0       -4.872185   -4.961492   -1.283575
     43          6           0       -7.016550   -2.915894   -2.656792
     44          1           0        4.434588   -2.134418    0.310653
     45          1           0        4.914660    0.736624    0.765608
     46          1           0        4.931194   -0.572873    2.082360
     47          1           0        2.837692    1.270440   -0.159523
     48          1           0        3.388338   -0.959055   -1.705965
     49          1           0       -0.226018   -0.026380    3.708217
     50          1           0       -1.180685    0.446811    2.253789
     51          1           0        0.712679    2.633539   -0.139576
     52          1           0        3.422553   -1.846668    3.266544
     53          1           0        2.064842   -1.228611    4.073187
     54          1           0        1.930077   -2.672108    2.886034
     55          1           0        6.479327   -2.348191    1.735224
     56          1           0        7.730028   -0.895459    1.236694
     57          1           0        7.923679   -2.532735    0.614275
     58          1           0       -1.248703   -1.958597    1.531718
     59          1           0       -0.448020   -2.312592    3.265247
     60          1           0       -1.824887   -0.305523   -0.121628
     61          1           0       -1.880612    4.761870   -1.648738
     62          1           0       -0.041080    4.423201   -1.426083
     63          1           0        7.886650   -1.068978   -3.181839
     64          1           0       -0.874225    4.478398    1.310926
     65          1           0       -2.322292    4.975491    0.880721
     66          1           0       -4.054398    4.174170   -1.920326
     67          1           0       -5.159793    2.979729   -1.389401
     68          1           0       -4.580711    2.829133   -2.896760
     69          1           0       -5.064918    0.505115   -1.712602
     70          1           0        9.528872   -1.305213   -0.615581
     71          1           0       10.078844   -1.266432   -2.134281
     72          1           0       -3.940720   -2.912824    3.514050
     73          1           0       -6.421198   -0.928945   -1.647366
     74          1           0       -4.712939   -5.261763   -2.378085
     75          1           0       -4.054166   -5.570173   -0.752022
     76          1           0       -5.874549   -5.159268   -0.924972
     77          1           0       -0.564593    7.963880    1.481648
     78          1           0       -7.907094   -2.566054   -3.153980
     79          1           0       -6.623310   -3.937764   -2.708758
 ---------------------------------------------------------------------

 SCF Done:  E(RB3LYP) =  -1947.91298424     A.U. after   16 cycles

 Excitation energies and oscillator strengths:

 Excited State   1:      Singlet-A      2.4196 eV  512.42 nm  f=0.5310  <S**2>=0.000
     155 ->156         0.69369
 This state for optimization and/or second-order correction.
 Total Energy, E(TD-HF/TD-KS) =  -1947.82406598
 Copying the excited state density for this state as the 1-particle RhoCI density.

 The electronic state is 1-A.
 Alpha  occ. eigenvalues --  -19.18863 -19.15978 -19.13908 -19.11081 -19.10087
 Alpha  occ. eigenvalues --  -19.09658 -14.37857 -14.36850 -14.36773 -14.30350
 Alpha  occ. eigenvalues --  -10.32987 -10.30573 -10.28681 -10.26431 -10.25086
 Alpha  occ. eigenvalues --  -10.24755 -10.24573 -10.24412 -10.22846 -10.22798
 Alpha  occ. eigenvalues --  -10.22690 -10.22440 -10.22431 -10.22396 -10.21816
 Alpha  occ. eigenvalues --  -10.21760 -10.21596 -10.20789 -10.20670 -10.20465
 Alpha  occ. eigenvalues --  -10.20255 -10.19998 -10.19577 -10.19498 -10.19438
 Alpha  occ. eigenvalues --  -10.19218 -10.19206 -10.19153 -10.18972 -10.18954
 Alpha  occ. eigenvalues --  -10.18875 -10.18583 -10.18347  -1.08446  -1.08206
 Alpha  occ. eigenvalues --   -1.01455  -1.01066  -1.00425  -1.00350  -0.99918
 Alpha  occ. eigenvalues --   -0.99453  -0.93843  -0.93066  -0.83763  -0.83021
 Alpha  occ. eigenvalues --   -0.82277  -0.81813  -0.80993  -0.80949  -0.79108
 Alpha  occ. eigenvalues --   -0.78307  -0.77529  -0.76352  -0.74264  -0.73468
 Alpha  occ. eigenvalues --   -0.72514  -0.70887  -0.70377  -0.69417  -0.69316
 Alpha  occ. eigenvalues --   -0.68297  -0.66838  -0.64796  -0.62465  -0.61468
 Alpha  occ. eigenvalues --   -0.60476  -0.59985  -0.58865  -0.57916  -0.56645
 Alpha  occ. eigenvalues --   -0.56477  -0.56261  -0.55640  -0.54909  -0.53658
 Alpha  occ. eigenvalues --   -0.53001  -0.52081  -0.51725  -0.51101  -0.50067
 Alpha  occ. eigenvalues --   -0.49212  -0.48663  -0.48348  -0.48219  -0.48065
 Alpha  occ. eigenvalues --   -0.47927  -0.47459  -0.46650  -0.46284  -0.46020
 Alpha  occ. eigenvalues --   -0.45818  -0.45460  -0.44994  -0.44639  -0.44333
 Alpha  occ. eigenvalues --   -0.44027  -0.43638  -0.43261  -0.42940  -0.42724
 Alpha  occ. eigenvalues --   -0.42612  -0.42550  -0.42119  -0.41887  -0.41281
 Alpha  occ. eigenvalues --   -0.41127  -0.40823  -0.40702  -0.40509  -0.39962
 Alpha  occ. eigenvalues --   -0.39675  -0.39619  -0.39274  -0.38623  -0.38607
 Alpha  occ. eigenvalues --   -0.38298  -0.38027  -0.37818  -0.37758  -0.36994
 Alpha  occ. eigenvalues --   -0.36653  -0.36276  -0.35302  -0.34620  -0.34542
 Alpha  occ. eigenvalues --   -0.34193  -0.33591  -0.32949  -0.32186  -0.31663
 Alpha  occ. eigenvalues --   -0.31365  -0.31079  -0.29420  -0.29142  -0.27880
 Alpha  occ. eigenvalues --   -0.27181  -0.27010  -0.26817  -0.25114  -0.24779
 Alpha  occ. eigenvalues --   -0.24117  -0.23723  -0.22781  -0.22659  -0.19898
 Alpha virt. eigenvalues --   -0.10389  -0.06113  -0.05245  -0.01713  -0.01284
 Alpha virt. eigenvalues --    0.01025   0.01521   0.01981   0.02345   0.02976
 Alpha virt. eigenvalues --    0.03201   0.04003   0.04206   0.04934   0.05324

 Mulliken charges:
               1
     1  O   -0.242522
     2  O   -0.173962
     3  O   -0.214785
     4  O   -0.267474
     5  O   -0.220555
     6  O   -0.219988
     7  N    0.022552
     8  N   -0.210936
     9  N   -0.050113
    10  N   -0.206601
    11  C    0.133340
    12  C    0.204291
    13  C   -0.083274
    14  C   -0.209398
    15  C   -0.084495
    16  C    0.074441
    17  C   -0.229477
    18  C    0.085148
    19  C   -0.005503
    20  C   -0.043112
    21  C    0.083974
    22  C    0.142793
    23  C   -0.064711
    24  C    0.165746
    25  C    0.066457
    26  C   -0.089936
    27  C   -0.019944
    28  C    0.098352
    29  C    0.056356
    30  C    0.010632
    31  C   -0.010238
    32  C    0.130892
    33  C   -0.178139
    34  C    0.112965
    35  C    0.083368
    36  C   -0.018901
    37  C    0.171665
    38  C   -0.001905
    39  C   -0.220989
    40  C    0.104601
    41  C   -0.040552
    42  C    0.068728
    43  C   -0.003762
    44  H   -0.008389
    45  H    0.011918
    46  H   -0.024040
    47  H    0.069892
    48  H    0.153430
    49  H    0.007509
    50  H   -0.001649
    51  H   -0.079018
    52  H   -0.026494
    53  H   -0.000761
    54  H    0.052271
    55  H    0.030242
    56  H    0.063497
    57  H    0.040987
    58  H    0.090490
    59  H    0.041000
    60  H    0.143208
    61  H   -0.005815
    62  H    0.051158
    63  H   -0.001458
    64  H    0.059373
    65  H    0.025447
    66  H    0.003519
    67  H    0.002580
    68  H    0.024005
    69  H    0.024990
    70  H   -0.015011
    71  H   -0.004419
    72  H    0.174270
    73  H    0.005869
    74  H    0.047488
    75  H    0.043352
    76  H    0.030090
    77  H    0.218967
    78  H    0.024074
    79  H    0.022400
 Sum of Mulliken charges =   0.00000

 Dipole moment (field-independent basis, Debye):
    X=              0.3594    Y=              2.4480    Z=              3.6119  Tot=              4.3781
 Quadrupole moment (field-independent basis, Debye-Ang):
   XX=           -224.0623   YY=           -249.4913   ZZ=           -267.3638
   XY=            -11.1801   XZ=             35.6458   YZ=              2.3811

 Normal termination of Gaussian 09 at Mon Jul  8 00:09:25 2019.
