 Gaussian 09, Revision D.01,
 Gaussian 09:  ES64L-G09RevD.01 24-Apr-2013

 --------------------------
 # td=(NStates=1) B3LYP/SVP
 --------------------------

 --
 TD
 --
 Symbolic Z-matrix:
 Charge =  0 Multiplicity = 1

                         Standard orientation:
 ---------------------------------------------------------------------
 Center     Atomic      Atomic             Coordinates (Angstroms)
 Number     Number       Type             X           Y           Z
 ---------------------------------------------------------------------
      1          8           0        5.293552   -0.060355   -3.348580
      2          8           0       -3.000838   -2.998353    3.215896
      3          8           0       -3.136423   -0.772096    3.420757
      4          8           0       -1.560064    7.038095    1.595027
      5          8           0       -0.725536    7.170052   -0.551562
      6          8           0       -2.082218   -4.053666    0.092738
      7          7           0        2.353410    0.832418    0.574151
      8          7           0        4.406564   -0.615083   -1.279593
      9          7           0       -1.797311    0.666942   -0.436913
     10          7           0       -2.679620   -1.934571   -0.494440
     11          6           0        4.802611   -1.222297   -0.008403
     12          6           0        4.421844   -0.303584    1.167760
     13          6           0        3.031822   -0.113493    1.384300
     14          6           0        2.044560   -0.717840    2.254120
     15          6           0        0.780541   -0.192756    1.800998
     16          6           0        0.972717    0.739829    0.777614
     17          6           0        6.308700   -1.341615   -0.257334
     18          6           0       -0.488201   -0.344778    2.492653
     19          6           0        6.721015   -0.803238   -1.414826
     20          6           0        0.266097    1.764252    0.088047
     21          6           0       -1.017918    1.781794   -0.323465
     22          6           0        5.405488   -0.377151   -2.138598
     23          6           0       -1.769388    2.854796   -0.944863
     24          6           0        2.289928   -1.619330    3.321088
     25          6           0        7.211699   -1.970437    0.779431
     26          6           0       -3.031741    2.427090   -1.189115
     27          6           0       -1.115095   -1.752124    2.436274
     28          6           0       -3.056215    0.953344   -1.105722
     29          6           0       -1.396288    4.367634   -0.826735
     30          6           0        8.005155   -0.720540   -2.050641
     31          6           0       -1.721074    5.004442    0.468847
     32          6           0       -4.296253    3.051595   -1.735078
     33          6           0       -4.045224   -0.043771   -1.261293
     34          6           0       -2.498739   -1.752948    3.006588
     35          6           0       -3.811626   -1.361105   -0.990024
     36          6           0        9.212494   -0.940114   -1.567411
     37          6           0       -1.181274    6.542237    0.477511
     38          6           0       -4.781125   -2.478331   -1.464850
     39          6           0       -4.147501   -3.659921   -1.115478
     40          6           0       -2.874131   -3.320021   -0.393106
     41          6           0       -6.005543   -2.236808   -2.091198
     42          6           0       -4.659346   -5.057328   -1.267003
     43          6           0       -6.701769   -3.065398   -2.916722
     44          1           0        4.366534   -2.269428    0.233005
     45          1           0        4.875666    0.573793    0.910232
     46          1           0        4.735155   -0.622321    2.225267
     47          1           0        2.791321    1.184381   -0.218439
     48          1           0        3.385964   -0.499708   -1.567323
     49          1           0       -0.478167   -0.097288    3.556199
     50          1           0       -1.153815    0.395452    2.121429
     51          1           0        0.998370    2.705380   -0.200289
     52          1           0        3.410157   -1.625547    3.578521
     53          1           0        1.881556   -1.338005    4.214937
     54          1           0        1.947302   -2.646202    3.084456
     55          1           0        6.694905   -2.829829    1.269505
     56          1           0        7.541070   -1.218059    1.441912
     57          1           0        8.086685   -2.405601    0.400905
     58          1           0       -1.221876   -2.323130    1.429225
     59          1           0       -0.503653   -2.552459    3.208350
     60          1           0       -1.555027   -0.135974   -0.137639
     61          1           0       -1.887030    4.822367   -1.714973
     62          1           0       -0.218026    4.408676   -0.822938
     63          1           0        8.037695   -0.502667   -3.055616
     64          1           0       -1.296605    4.395233    1.321281
     65          1           0       -2.732117    5.259174    0.414470
     66          1           0       -4.245985    4.294775   -1.815931
     67          1           0       -5.222685    2.751728   -1.249351
     68          1           0       -4.424741    2.701670   -2.784692
     69          1           0       -4.891854    0.495914   -1.849693
     70          1           0        9.621776   -0.944168   -0.533855
     71          1           0       10.046470   -0.944896   -2.345480
     72          1           0       -3.875917   -2.847815    3.652225
     73          1           0       -6.410806   -1.178089   -2.176909
     74          1           0       -4.460268   -5.332241   -2.335933
     75          1           0       -4.187794   -5.652793   -0.556512
     76          1           0       -5.855365   -5.009672   -1.257051
     77          1           0       -1.384741    7.922715    1.750653
     78          1           0       -7.647213   -2.722240   -3.266249
     79          1           0       -6.313344   -4.002974   -3.220549
 ---------------------------------------------------------------------

 SCF Done:  E(RB3LYP) =  -1947.89676293     A.U. after   16 cycles

 Excitation energies and oscillator strengths:

 Excited State   1:      Singlet-A      2.0895 eV  593.37 nm  f=0.3814  <S**2>=0.000
     154 ->156         0.27633
     155 ->156         0.64675
     155 <-156        -0.10187
 This state for optimization and/or second-order correction.
 Total Energy, E(TD-HF/TD-KS) =  -1947.81997518
 Copying the excited state density for this state as the 1-particle RhoCI density.

 The electronic state is 1-A.
 Alpha  occ. eigenvalues --  -19.21118 -19.16416 -19.13037 -19.10746 -19.10346
 Alpha  occ. eigenvalues --  -19.09875 -14.37847 -14.37200 -14.35675 -14.28398
 Alpha  occ. eigenvalues --  -10.33786 -10.30386 -10.29092 -10.26547 -10.25933
 Alpha  occ. eigenvalues --  -10.25540 -10.24012 -10.23683 -10.23392 -10.23347
 Alpha  occ. eigenvalues --  -10.22939 -10.22137 -10.22111 -10.21574 -10.21549
 Alpha  occ. eigenvalues --  -10.21499 -10.21385 -10.21269 -10.20587 -10.20531
 Alpha  occ. eigenvalues --  -10.20075 -10.20060 -10.20008 -10.19953 -10.19867
 Alpha  occ. eigenvalues --  -10.19830 -10.19565 -10.19558 -10.19373 -10.19134
 Alpha  occ. eigenvalues --  -10.18933 -10.18801 -10.18662  -1.13669  -1.07235
 Alpha  occ. eigenvalues --   -1.03120  -1.01344  -0.98488  -0.98406  -0.97824
 Alpha  occ. eigenvalues --   -0.97159  -0.94302  -0.90534  -0.83211  -0.82907
 Alpha  occ. eigenvalues --   -0.82751  -0.82511  -0.80866  -0.80107  -0.78505
 Alpha  occ. eigenvalues --   -0.77901  -0.76848  -0.76365  -0.74696  -0.73341
 Alpha  occ. eigenvalues --   -0.72467  -0.71959  -0.70649  -0.70103  -0.68912
 Alpha  occ. eigenvalues --   -0.67774  -0.66803  -0.64618  -0.62603  -0.61810
 Alpha  occ. eigenvalues --   -0.60568  -0.59309  -0.58443  -0.57976  -0.57398
 Alpha  occ. eigenvalues --   -0.56514  -0.55662  -0.54901  -0.54384  -0.53461
 Alpha  occ. eigenvalues --   -0.52891  -0.51942  -0.51312  -0.50746  -0.49547
 Alpha  occ. eigenvalues --   -0.49324  -0.48961  -0.48771  -0.48343  -0.47910
 Alpha  occ. eigenvalues --   -0.47209  -0.46889  -0.46673  -0.46184  -0.45975
 Alpha  occ. eigenvalues --   -0.45450  -0.45108  -0.44839  -0.44274  -0.44125
 Alpha  occ. eigenvalues --   -0.43697  -0.43501  -0.43307  -0.42928  -0.42590
 Alpha  occ. eigenvalues --   -0.42545  -0.42015  -0.41968  -0.41565  -0.41541
 Alpha  occ. eigenvalues --   -0.41200  -0.40896  -0.40587  -0.40274  -0.39691
 Alpha  occ. eigenvalues --   -0.39420  -0.39100  -0.38790  -0.38649  -0.38168
 Alpha  occ. eigenvalues --   -0.38132  -0.37833  -0.37609  -0.37516  -0.36825
 Alpha  occ. eigenvalues --   -0.36508  -0.36180  -0.35534  -0.35228  -0.35009
 Alpha  occ. eigenvalues --   -0.34631  -0.33683  -0.32620  -0.32377  -0.32365
 Alpha  occ. eigenvalues --   -0.31089  -0.30089  -0.28686  -0.27896  -0.26990
 Alpha  occ. eigenvalues --   -0.26818  -0.26314  -0.26267  -0.25346  -0.24984
 Alpha  occ. eigenvalues --   -0.24692  -0.24163  -0.23667  -0.21474  -0.19214
 Alpha virt. eigenvalues --   -0.10916  -0.06369  -0.05663  -0.01520  -0.01326
 Alpha virt. eigenvalues --    0.00018   0.00664   0.00974   0.02291   0.02895
 Alpha virt. eigenvalues --    0.03349   0.04263   0.04527   0.04639   0.05225

 Mulliken charges:
               1
     1  O   -0.262819
     2  O   -0.193613
     3  O   -0.276967
     4  O   -0.071374
     5  O   -0.293541
     6  O   -0.167087
     7  N   -0.106711
     8  N   -0.195448
     9  N   -0.016712
    10  N   -0.293775
    11  C    0.088244
    12  C    0.252060
    13  C   -0.115884
    14  C   -0.111265
    15  C   -0.064271
    16  C    0.101948
    17  C   -0.214697
    18  C    0.117727
    19  C    0.012160
    20  C   -0.154789
    21  C    0.094311
    22  C    0.148601
    23  C   -0.094638
    24  C    0.129623
    25  C    0.136785
    26  C   -0.080436
    27  C   -0.104833
    28  C    0.053203
    29  C    0.042408
    30  C    0.028009
    31  C    0.032150
    32  C    0.025869
    33  C   -0.128023
    34  C    0.145675
    35  C    0.174723
    36  C   -0.076205
    37  C    0.130428
    38  C    0.082379
    39  C   -0.228867
    40  C    0.145002
    41  C   -0.092098
    42  C    0.093337
    43  C   -0.005544
    44  H    0.038319
    45  H   -0.048794
    46  H    0.019086
    47  H    0.089455
    48  H    0.153420
    49  H    0.001600
    50  H   -0.008817
    51  H    0.045981
    52  H   -0.004547
    53  H   -0.007307
    54  H    0.043930
    55  H    0.013449
    56  H    0.024291
    57  H    0.005984
    58  H    0.105759
    59  H    0.053619
    60  H    0.037447
    61  H    0.030807
    62  H    0.023112
    63  H   -0.015949
    64  H    0.057029
    65  H    0.014315
    66  H    0.039420
    67  H    0.037037
    68  H    0.044091
    69  H    0.007231
    70  H    0.025978
    71  H    0.031928
    72  H    0.182516
    73  H    0.002996
    74  H    0.037439
    75  H    0.020129
    76  H    0.034359
    77  H    0.158438
    78  H    0.014846
    79  H    0.006354
 Sum of Mulliken charges =   0.00000

 Dipole moment (field-independent basis, Debye):
    X=              0.9133    Y=              2.9701    Z=              4.1725  Tot=              5.2024
 Quadrupole moment (field-independent basis, Debye-Ang):
   XX=           -219.3699   YY=           -247.5711   ZZ=           -262.5841
   XY=            -17.7020   XZ=             35.5752   YZ=             12.5475

 Normal termination of Gaussian 09 at Wed Jul 10 19:59:55 2019.
