 Gaussian 09, Revision D.01,
 Gaussian 09:  ES64L-G09RevD.01 24-Apr-2013

 --------------------------
 # td=(NStates=1) B3LYP/SVP
 --------------------------

 --
 TD
 --
 Symbolic Z-matrix:
 Charge =  0 Multiplicity = 1

                         Standard orientation:
 ---------------------------------------------------------------------
 Center     Atomic      Atomic             Coordinates (Angstroms)
 Number     Number       Type             X           Y           Z
 ---------------------------------------------------------------------
      1          8           0        5.324614   -0.280417   -3.318889
      2          8           0       -2.791407   -3.159859    3.204303
      3          8           0       -3.112052   -0.906231    3.275980
      4          8           0       -1.527731    7.231210    1.547800
      5          8           0       -0.188416    6.854780   -0.290649
      6          8           0       -2.077971   -4.040055   -0.069687
      7          7           0        2.396853    0.935860    0.482097
      8          7           0        4.361328   -0.793913   -1.370165
      9          7           0       -1.910272    0.739750   -0.368744
     10          7           0       -2.816496   -1.798495   -0.362680
     11          6           0        4.779950   -1.314281   -0.030010
     12          6           0        4.453724   -0.403021    1.167983
     13          6           0        3.025470   -0.080737    1.219677
     14          6           0        2.089392   -0.692104    2.081231
     15          6           0        0.797645   -0.089668    1.784901
     16          6           0        1.091278    0.888779    0.746636
     17          6           0        6.341432   -1.362741   -0.228832
     18          6           0       -0.444627   -0.360247    2.520932
     19          6           0        6.673947   -0.887928   -1.393559
     20          6           0        0.236807    1.934663    0.058706
     21          6           0       -1.011710    1.851756   -0.320935
     22          6           0        5.388204   -0.672931   -2.204438
     23          6           0       -1.915202    2.935898   -0.916351
     24          6           0        2.243528   -1.708289    3.137744
     25          6           0        7.061988   -2.032235    0.930967
     26          6           0       -3.162621    2.466037   -1.176965
     27          6           0       -0.930494   -1.724906    2.426462
     28          6           0       -3.172474    1.019655   -0.970917
     29          6           0       -1.388343    4.396277   -0.872711
     30          6           0        8.000210   -0.699073   -2.053892
     31          6           0       -1.608098    5.128687    0.466309
     32          6           0       -4.403917    3.069977   -1.813015
     33          6           0       -4.156290    0.045247   -1.214208
     34          6           0       -2.417809   -1.935124    3.010307
     35          6           0       -3.848006   -1.275315   -0.949530
     36          6           0        9.178551   -0.784153   -1.559145
     37          6           0       -1.029547    6.535679    0.528256
     38          6           0       -4.789055   -2.392645   -1.457976
     39          6           0       -4.219063   -3.575575   -1.152465
     40          6           0       -2.915941   -3.218364   -0.422956
     41          6           0       -6.111606   -2.161558   -2.086163
     42          6           0       -4.676337   -4.956389   -1.279000
     43          6           0       -6.961115   -3.093990   -2.535403
     44          1           0        4.339797   -2.327941    0.255454
     45          1           0        5.045953    0.567531    0.996999
     46          1           0        4.601656   -0.903726    2.121190
     47          1           0        2.872356    1.407926   -0.248964
     48          1           0        3.309958   -0.793450   -1.742543
     49          1           0       -0.283077   -0.223305    3.483328
     50          1           0       -1.060089    0.348259    2.171059
     51          1           0        0.873739    2.875197   -0.172183
     52          1           0        3.462353   -1.954753    3.341326
     53          1           0        1.577497   -1.453751    3.991468
     54          1           0        1.875797   -2.678514    2.836948
     55          1           0        6.269517   -2.815947    1.437407
     56          1           0        7.345900   -1.322555    1.665993
     57          1           0        8.056887   -2.457901    0.584439
     58          1           0       -1.048577   -2.355087    1.448961
     59          1           0       -0.117500   -2.285333    3.115686
     60          1           0       -1.791155   -0.235084   -0.176707
     61          1           0       -1.689038    5.079924   -1.794103
     62          1           0       -0.318169    4.598114   -1.118879
     63          1           0        7.913753   -0.667939   -3.231559
     64          1           0       -1.182588    4.501363    1.238119
     65          1           0       -2.658330    5.261153    0.764239
     66          1           0       -3.965748    4.224212   -2.115849
     67          1           0       -5.118968    3.135995   -1.124396
     68          1           0       -4.757202    2.668181   -2.694016
     69          1           0       -5.080948    0.261606   -1.811652
     70          1           0        9.292813   -0.877980   -0.549464
     71          1           0       10.011277   -0.962549   -2.284272
     72          1           0       -3.631470   -3.079604    3.588089
     73          1           0       -6.450288   -1.103294   -1.857032
     74          1           0       -4.766994   -5.467318   -2.397600
     75          1           0       -3.746464   -5.596617   -0.410464
     76          1           0       -5.706270   -5.044723   -0.888080
     77          1           0       -1.355329    8.340336    1.328251
     78          1           0       -7.943644   -2.897812   -3.183482
     79          1           0       -6.612805   -4.050734   -2.671928
 ---------------------------------------------------------------------

 SCF Done:  E(RB3LYP) =  -1947.82401900     A.U. after   16 cycles

 Excitation energies and oscillator strengths:

 Excited State   1:      Singlet-A      2.1960 eV  564.60 nm  f=0.4059  <S**2>=0.000
     155 ->156         0.70300
 This state for optimization and/or second-order correction.
 Total Energy, E(TD-HF/TD-KS) =  -1947.74331824
 Copying the excited state density for this state as the 1-particle RhoCI density.

 The electronic state is 1-A.
 Alpha  occ. eigenvalues --  -19.21003 -19.18931 -19.13453 -19.11810 -19.10516
 Alpha  occ. eigenvalues --  -19.09425 -14.38615 -14.36191 -14.36168 -14.29792
 Alpha  occ. eigenvalues --  -10.32893 -10.31167 -10.27744 -10.27629 -10.25620
 Alpha  occ. eigenvalues --  -10.25355 -10.24832 -10.23588 -10.23548 -10.22682
 Alpha  occ. eigenvalues --  -10.22538 -10.22509 -10.21979 -10.21825 -10.21577
 Alpha  occ. eigenvalues --  -10.21544 -10.21512 -10.21472 -10.21170 -10.20879
 Alpha  occ. eigenvalues --  -10.20859 -10.20389 -10.19884 -10.19849 -10.19754
 Alpha  occ. eigenvalues --  -10.19738 -10.19725 -10.19714 -10.19315 -10.19233
 Alpha  occ. eigenvalues --  -10.19052 -10.18061 -10.16410  -1.11462  -1.09634
 Alpha  occ. eigenvalues --   -1.04068  -1.01955  -1.01341  -0.98996  -0.97035
 Alpha  occ. eigenvalues --   -0.96242  -0.93646  -0.92720  -0.82590  -0.82147
 Alpha  occ. eigenvalues --   -0.81933  -0.81672  -0.80542  -0.80270  -0.77721
 Alpha  occ. eigenvalues --   -0.77374  -0.76654  -0.75933  -0.74544  -0.72443
 Alpha  occ. eigenvalues --   -0.71491  -0.71286  -0.69330  -0.68470  -0.67879
 Alpha  occ. eigenvalues --   -0.67518  -0.65252  -0.63590  -0.61091  -0.60040
 Alpha  occ. eigenvalues --   -0.59892  -0.59318  -0.58543  -0.57562  -0.56795
 Alpha  occ. eigenvalues --   -0.56639  -0.55854  -0.55293  -0.53564  -0.53085
 Alpha  occ. eigenvalues --   -0.52385  -0.51936  -0.50688  -0.50434  -0.49369
 Alpha  occ. eigenvalues --   -0.49167  -0.48630  -0.48257  -0.47994  -0.47775
 Alpha  occ. eigenvalues --   -0.47382  -0.47138  -0.46606  -0.46234  -0.45908
 Alpha  occ. eigenvalues --   -0.45443  -0.45152  -0.44305  -0.44166  -0.43731
 Alpha  occ. eigenvalues --   -0.43372  -0.43286  -0.43058  -0.42665  -0.42490
 Alpha  occ. eigenvalues --   -0.42377  -0.42327  -0.41909  -0.41750  -0.41462
 Alpha  occ. eigenvalues --   -0.41223  -0.40786  -0.40520  -0.39878  -0.39764
 Alpha  occ. eigenvalues --   -0.39736  -0.39098  -0.38951  -0.38671  -0.38592
 Alpha  occ. eigenvalues --   -0.38408  -0.37837  -0.37640  -0.36738  -0.36203
 Alpha  occ. eigenvalues --   -0.36071  -0.34980  -0.34680  -0.33912  -0.33676
 Alpha  occ. eigenvalues --   -0.33292  -0.32830  -0.32311  -0.32104  -0.31733
 Alpha  occ. eigenvalues --   -0.31326  -0.30274  -0.29429  -0.28772  -0.27671
 Alpha  occ. eigenvalues --   -0.26800  -0.26524  -0.25901  -0.25677  -0.24754
 Alpha  occ. eigenvalues --   -0.24574  -0.24481  -0.23805  -0.22801  -0.19615
 Alpha virt. eigenvalues --   -0.10672  -0.06022  -0.04278  -0.02287  -0.00903
 Alpha virt. eigenvalues --    0.00387   0.00997   0.01254   0.01835   0.03197
 Alpha virt. eigenvalues --    0.03489   0.03867   0.04013   0.04580   0.05142

 Mulliken charges:
               1
     1  O   -0.189018
     2  O   -0.077266
     3  O   -0.304176
     4  O   -0.241320
     5  O   -0.232434
     6  O   -0.207561
     7  N   -0.024989
     8  N   -0.214478
     9  N   -0.144390
    10  N   -0.261610
    11  C    0.038044
    12  C    0.229781
    13  C   -0.143753
    14  C   -0.117847
    15  C   -0.153177
    16  C   -0.001545
    17  C   -0.175711
    18  C    0.352884
    19  C   -0.042820
    20  C   -0.129170
    21  C    0.202565
    22  C    0.109591
    23  C   -0.056959
    24  C    0.067657
    25  C    0.069480
    26  C   -0.122643
    27  C   -0.127572
    28  C    0.117373
    29  C    0.002435
    30  C   -0.033384
    31  C    0.025760
    32  C    0.144097
    33  C   -0.135089
    34  C    0.135672
    35  C    0.112040
    36  C    0.014542
    37  C    0.146009
    38  C   -0.001287
    39  C   -0.154709
    40  C    0.175572
    41  C   -0.005828
    42  C   -0.077731
    43  C   -0.034077
    44  H    0.024693
    45  H   -0.004339
    46  H   -0.009765
    47  H    0.108655
    48  H    0.170081
    49  H   -0.053222
    50  H   -0.049279
    51  H    0.027814
    52  H    0.019843
    53  H    0.031674
    54  H    0.039432
    55  H    0.045010
    56  H    0.025032
    57  H    0.041827
    58  H    0.088195
    59  H    0.013781
    60  H    0.122678
    61  H    0.020850
    62  H    0.021219
    63  H    0.033342
    64  H    0.035361
    65  H    0.023358
    66  H    0.029672
    67  H   -0.002712
    68  H    0.023472
    69  H    0.000133
    70  H   -0.028193
    71  H    0.035283
    72  H    0.152851
    73  H    0.012817
    74  H    0.065522
    75  H    0.069691
    76  H    0.039579
    77  H    0.257297
    78  H    0.047920
    79  H   -0.012528
 Sum of Mulliken charges =   0.00000

 Dipole moment (field-independent basis, Debye):
    X=             -0.5753    Y=              3.1935    Z=              2.6847  Tot=              4.2115
 Quadrupole moment (field-independent basis, Debye-Ang):
   XX=           -228.4101   YY=           -234.6158   ZZ=           -262.8465
   XY=            -17.3198   XZ=             31.7277   YZ=              0.1111

 Normal termination of Gaussian 09 at Wed Jul 10 02:27:21 2019.
