 Gaussian 09, Revision D.01,
 Gaussian 09:  ES64L-G09RevD.01 24-Apr-2013

 --------------------------
 # td=(NStates=1) B3LYP/SVP
 --------------------------

 --
 TD
 --
 Symbolic Z-matrix:
 Charge =  0 Multiplicity = 1

                         Standard orientation:
 ---------------------------------------------------------------------
 Center     Atomic      Atomic             Coordinates (Angstroms)
 Number     Number       Type             X           Y           Z
 ---------------------------------------------------------------------
      1          8           0        5.455331   -0.148180   -3.310036
      2          8           0       -2.855655   -3.029869    3.266198
      3          8           0       -3.194570   -0.855932    3.400986
      4          8           0       -1.876712    7.249412    1.422551
      5          8           0       -0.438689    6.838620   -0.285362
      6          8           0       -1.848679   -3.998092   -0.050366
      7          7           0        2.305469    0.831668    0.569577
      8          7           0        4.345188   -0.602826   -1.341174
      9          7           0       -1.901175    0.663036   -0.499489
     10          7           0       -2.540777   -1.920844   -0.791646
     11          6           0        4.775253   -1.246205   -0.060015
     12          6           0        4.337231   -0.424413    1.137730
     13          6           0        2.955550   -0.101629    1.292637
     14          6           0        1.957588   -0.735015    2.104749
     15          6           0        0.758306   -0.110404    1.868828
     16          6           0        0.961030    0.895422    0.902570
     17          6           0        6.337278   -1.323219   -0.196880
     18          6           0       -0.626708   -0.183784    2.513122
     19          6           0        6.730913   -0.741776   -1.349280
     20          6           0        0.132267    1.879457    0.215913
     21          6           0       -1.105572    1.764385   -0.216514
     22          6           0        5.514162   -0.449085   -2.133304
     23          6           0       -1.876568    2.928034   -0.910816
     24          6           0        2.158380   -1.700349    3.182502
     25          6           0        7.157117   -1.926714    0.933868
     26          6           0       -3.010682    2.408059   -1.269987
     27          6           0       -1.131723   -1.680220    2.402664
     28          6           0       -3.023805    0.922634   -1.133968
     29          6           0       -1.462438    4.347449   -0.870705
     30          6           0        7.998091   -0.702741   -1.948875
     31          6           0       -1.745517    5.038041    0.540307
     32          6           0       -4.176103    3.174238   -2.007417
     33          6           0       -4.014627   -0.084394   -1.399885
     34          6           0       -2.487221   -1.824043    3.051799
     35          6           0       -3.719028   -1.486173   -1.177537
     36          6           0        9.223131   -0.592641   -1.481806
     37          6           0       -1.198764    6.440454    0.516756
     38          6           0       -4.703528   -2.566929   -1.440614
     39          6           0       -4.009113   -3.718431   -1.121352
     40          6           0       -2.619776   -3.307600   -0.600091
     41          6           0       -6.047477   -2.228395   -1.915162
     42          6           0       -4.508594   -5.060050   -1.210300
     43          6           0       -6.885692   -3.084380   -2.555879
     44          1           0        4.398851   -2.386516    0.167369
     45          1           0        4.965628    0.580806    0.889338
     46          1           0        4.944460   -0.830964    2.062317
     47          1           0        2.812332    1.437889   -0.154568
     48          1           0        3.464270   -0.783202   -1.769428
     49          1           0       -0.599381   -0.115588    3.700414
     50          1           0       -1.274419    0.570275    2.129994
     51          1           0        0.675368    2.778046    0.036595
     52          1           0        3.251246   -1.474917    3.634393
     53          1           0        1.651444   -1.576317    4.154385
     54          1           0        2.053883   -2.820676    3.050113
     55          1           0        6.545486   -2.462018    1.654156
     56          1           0        8.095393   -1.186300    1.565391
     57          1           0        8.038436   -2.819643    0.616298
     58          1           0       -1.510772   -1.948005    1.412201
     59          1           0       -0.511336   -2.442699    2.830971
     60          1           0       -1.669178   -0.197609   -0.328829
     61          1           0       -2.254224    4.932145   -1.557966
     62          1           0       -0.483689    4.728097   -1.095945
     63          1           0        7.947667   -0.715705   -2.990418
     64          1           0       -1.127591    4.494643    1.256669
     65          1           0       -2.788629    4.732595    0.885990
     66          1           0       -3.928061    4.097076   -2.553051
     67          1           0       -5.017458    3.172435   -1.296910
     68          1           0       -4.824528    2.510215   -2.699479
     69          1           0       -4.912634    0.161324   -1.786368
     70          1           0        9.428426   -0.586198   -0.472415
     71          1           0        9.998816   -0.670555   -2.194286
     72          1           0       -3.824797   -3.108177    3.340473
     73          1           0       -6.356986   -1.207671   -1.920439
     74          1           0       -4.421870   -5.519159   -2.331447
     75          1           0       -3.985513   -5.908940   -0.422024
     76          1           0       -5.726099   -4.965327   -1.019926
     77          1           0       -1.522234    8.233517    1.340179
     78          1           0       -7.902603   -2.861294   -2.692143
     79          1           0       -6.878992   -4.203996   -2.532581
 ---------------------------------------------------------------------

 SCF Done:  E(RB3LYP) =  -1947.84788682     A.U. after   16 cycles

 Excitation energies and oscillator strengths:

 Excited State   1:      Singlet-A      2.1632 eV  573.16 nm  f=0.4052  <S**2>=0.000
     155 ->156         0.69845
 This state for optimization and/or second-order correction.
 Total Energy, E(TD-HF/TD-KS) =  -1947.76839139
 Copying the excited state density for this state as the 1-particle RhoCI density.

 The electronic state is 1-A.
 Alpha  occ. eigenvalues --  -19.18661 -19.17572 -19.14509 -19.11246 -19.10558
 Alpha  occ. eigenvalues --  -19.09268 -14.38873 -14.36801 -14.35583 -14.28545
 Alpha  occ. eigenvalues --  -10.33157 -10.29655 -10.28994 -10.26893 -10.26361
 Alpha  occ. eigenvalues --  -10.25827 -10.24823 -10.24467 -10.23459 -10.23333
 Alpha  occ. eigenvalues --  -10.22626 -10.22502 -10.22127 -10.21896 -10.21808
 Alpha  occ. eigenvalues --  -10.21788 -10.21349 -10.21337 -10.21248 -10.21128
 Alpha  occ. eigenvalues --  -10.20968 -10.20596 -10.20039 -10.19937 -10.19858
 Alpha  occ. eigenvalues --  -10.19688 -10.19410 -10.18915 -10.18886 -10.18541
 Alpha  occ. eigenvalues --  -10.18513 -10.18378 -10.18290  -1.10235  -1.10152
 Alpha  occ. eigenvalues --   -1.04458  -1.02945  -1.01455  -1.00707  -0.98740
 Alpha  occ. eigenvalues --   -0.96691  -0.93071  -0.92603  -0.83827  -0.83319
 Alpha  occ. eigenvalues --   -0.82105  -0.80861  -0.80475  -0.79645  -0.78161
 Alpha  occ. eigenvalues --   -0.77320  -0.76358  -0.76074  -0.74801  -0.72534
 Alpha  occ. eigenvalues --   -0.71305  -0.70793  -0.69571  -0.68875  -0.68338
 Alpha  occ. eigenvalues --   -0.67210  -0.65445  -0.63587  -0.61921  -0.60821
 Alpha  occ. eigenvalues --   -0.60505  -0.60039  -0.59288  -0.58789  -0.58128
 Alpha  occ. eigenvalues --   -0.56894  -0.55653  -0.55290  -0.53972  -0.53391
 Alpha  occ. eigenvalues --   -0.52756  -0.52094  -0.51273  -0.50893  -0.49734
 Alpha  occ. eigenvalues --   -0.49596  -0.49162  -0.48937  -0.48509  -0.47782
 Alpha  occ. eigenvalues --   -0.47276  -0.47018  -0.46154  -0.45973  -0.45909
 Alpha  occ. eigenvalues --   -0.45372  -0.45238  -0.44601  -0.44217  -0.44031
 Alpha  occ. eigenvalues --   -0.43745  -0.43500  -0.43378  -0.43201  -0.42917
 Alpha  occ. eigenvalues --   -0.42213  -0.42030  -0.41930  -0.41579  -0.40981
 Alpha  occ. eigenvalues --   -0.40683  -0.40356  -0.40080  -0.39835  -0.39637
 Alpha  occ. eigenvalues --   -0.39246  -0.38694  -0.38350  -0.38100  -0.37988
 Alpha  occ. eigenvalues --   -0.37804  -0.37486  -0.37152  -0.37077  -0.36387
 Alpha  occ. eigenvalues --   -0.36332  -0.35219  -0.34879  -0.34454  -0.34293
 Alpha  occ. eigenvalues --   -0.33921  -0.33520  -0.33336  -0.32904  -0.31942
 Alpha  occ. eigenvalues --   -0.31122  -0.30096  -0.29612  -0.29221  -0.28048
 Alpha  occ. eigenvalues --   -0.27247  -0.27147  -0.26051  -0.25170  -0.24958
 Alpha  occ. eigenvalues --   -0.24577  -0.24039  -0.23395  -0.22229  -0.19188
 Alpha virt. eigenvalues --   -0.10319  -0.06823  -0.06004  -0.01084  -0.00760
 Alpha virt. eigenvalues --    0.00600   0.00799   0.01901   0.02693   0.02773
 Alpha virt. eigenvalues --    0.03501   0.03876   0.04122   0.04421   0.05305

 Mulliken charges:
               1
     1  O   -0.208076
     2  O   -0.118972
     3  O   -0.292146
     4  O   -0.259529
     5  O   -0.180123
     6  O   -0.139369
     7  N   -0.072644
     8  N   -0.209658
     9  N    0.082251
    10  N   -0.276989
    11  C    0.034050
    12  C    0.074584
    13  C   -0.011738
    14  C   -0.081474
    15  C   -0.058614
    16  C    0.029745
    17  C   -0.098059
    18  C    0.103568
    19  C    0.026207
    20  C   -0.076514
    21  C    0.111098
    22  C    0.137919
    23  C   -0.071581
    24  C   -0.006918
    25  C   -0.074903
    26  C   -0.100283
    27  C    0.019463
    28  C    0.077995
    29  C    0.022053
    30  C   -0.039315
    31  C   -0.026329
    32  C    0.075430
    33  C   -0.031374
    34  C    0.057816
    35  C    0.043100
    36  C    0.045548
    37  C    0.168496
    38  C    0.082980
    39  C   -0.180157
    40  C    0.157052
    41  C   -0.012856
    42  C   -0.093590
    43  C   -0.028175
    44  H    0.044385
    45  H   -0.003328
    46  H    0.027883
    47  H    0.142243
    48  H    0.129751
    49  H    0.022106
    50  H    0.002595
    51  H   -0.016920
    52  H    0.003595
    53  H    0.011568
    54  H    0.040029
    55  H    0.036050
    56  H    0.072564
    57  H    0.061311
    58  H    0.061854
    59  H    0.022302
    60  H    0.046995
    61  H    0.028500
    62  H    0.030986
    63  H   -0.014014
    64  H    0.030831
    65  H    0.051724
    66  H    0.049965
    67  H    0.012466
    68  H    0.013179
    69  H   -0.097340
    70  H   -0.024179
    71  H    0.016754
    72  H    0.187530
    73  H   -0.005103
    74  H    0.063693
    75  H    0.063177
    76  H    0.048424
    77  H    0.213937
    78  H    0.002494
    79  H    0.022022
 Sum of Mulliken charges =   0.00000

 Dipole moment (field-independent basis, Debye):
    X=              0.3600    Y=              1.8531    Z=              2.0214  Tot=              2.7657
 Quadrupole moment (field-independent basis, Debye-Ang):
   XX=           -216.2356   YY=           -236.8606   ZZ=           -270.5771
   XY=             -9.9342   XZ=             31.8680   YZ=             -0.2531

 Normal termination of Gaussian 09 at Tue Jul  9 09:10:58 2019.
