 Gaussian 09, Revision D.01,
 Gaussian 09:  ES64L-G09RevD.01 24-Apr-2013

 --------------------------
 # td=(NStates=1) B3LYP/SVP
 --------------------------

 --
 TD
 --
 Symbolic Z-matrix:
 Charge =  0 Multiplicity = 1

                         Standard orientation:
 ---------------------------------------------------------------------
 Center     Atomic      Atomic             Coordinates (Angstroms)
 Number     Number       Type             X           Y           Z
 ---------------------------------------------------------------------
      1          8           0        5.292710    0.225936   -3.238399
      2          8           0       -2.881599   -3.245996    3.200293
      3          8           0       -3.252864   -1.122456    3.132127
      4          8           0       -1.884181    7.343220    1.561024
      5          8           0       -1.022026    7.167928   -0.532023
      6          8           0       -1.755880   -4.076741   -0.236279
      7          7           0        2.365276    0.791285    0.558357
      8          7           0        4.451809   -0.404840   -1.229706
      9          7           0       -1.883417    0.633802   -0.420695
     10          7           0       -2.568427   -1.925487   -0.510770
     11          6           0        4.788773   -1.088737   -0.063079
     12          6           0        4.494735   -0.424217    1.302931
     13          6           0        3.036988   -0.113277    1.363072
     14          6           0        2.031790   -0.841569    2.162491
     15          6           0        0.756148   -0.159765    1.856969
     16          6           0        1.029074    0.889604    0.918771
     17          6           0        6.316113   -1.241398   -0.271889
     18          6           0       -0.614226   -0.383201    2.556314
     19          6           0        6.638202   -0.676803   -1.480117
     20          6           0        0.210997    1.945043    0.330468
     21          6           0       -1.134662    1.723852   -0.210920
     22          6           0        5.434566   -0.265553   -2.149045
     23          6           0       -1.957247    2.925972   -0.625403
     24          6           0        2.335778   -1.913884    3.088292
     25          6           0        7.204411   -1.835493    0.822017
     26          6           0       -3.075236    2.360092   -1.164911
     27          6           0       -1.060852   -1.816604    2.588687
     28          6           0       -3.054933    0.906465   -0.925476
     29          6           0       -1.509700    4.368437   -0.818759
     30          6           0        7.964570   -0.673773   -2.082954
     31          6           0       -1.725227    5.036083    0.574510
     32          6           0       -4.228020    2.989968   -1.829902
     33          6           0       -3.925315   -0.105351   -1.298798
     34          6           0       -2.502197   -1.997405    3.039049
     35          6           0       -3.672703   -1.428165   -1.114377
     36          6           0        9.139869   -0.637996   -1.489563
     37          6           0       -1.490858    6.634558    0.535973
     38          6           0       -4.586393   -2.519683   -1.545897
     39          6           0       -3.931611   -3.647750   -1.246108
     40          6           0       -2.716531   -3.333698   -0.541190
     41          6           0       -5.931154   -2.308107   -2.111935
     42          6           0       -4.295318   -5.047033   -1.373144
     43          6           0       -6.741937   -3.257504   -2.619174
     44          1           0        4.482736   -2.033861   -0.099567
     45          1           0        5.070650    0.615957    1.447174
     46          1           0        4.740351   -1.177119    2.028009
     47          1           0        2.798844    1.425592    0.055090
     48          1           0        3.523769   -0.568619   -1.587905
     49          1           0       -0.435823    0.112901    3.587728
     50          1           0       -1.376247    0.173138    1.781682
     51          1           0        0.545210    2.889409    0.221211
     52          1           0        3.282573   -1.930860    3.378271
     53          1           0        1.522791   -1.707555    3.852590
     54          1           0        1.998650   -2.875809    2.540058
     55          1           0        6.669663   -2.432987    1.311592
     56          1           0        7.633061   -1.087330    1.489648
     57          1           0        8.082568   -2.601362    0.418525
     58          1           0       -1.030164   -2.301437    1.597017
     59          1           0       -0.379935   -2.422791    3.380955
     60          1           0       -1.693251   -0.250875   -0.245490
     61          1           0       -2.112920    4.944334   -1.678356
     62          1           0       -0.559184    4.390411   -1.053220
     63          1           0        7.944560   -0.597462   -3.249333
     64          1           0       -1.025037    4.536035    1.320394
     65          1           0       -2.766818    4.930405    0.966565
     66          1           0       -4.276535    4.165250   -1.292177
     67          1           0       -5.312557    2.456282   -1.652644
     68          1           0       -4.001655    3.143424   -3.157930
     69          1           0       -4.828760    0.240418   -1.820933
     70          1           0        9.162819   -0.345376   -0.445554
     71          1           0        9.978599   -0.523149   -2.200604
     72          1           0       -3.861806   -3.367865    3.265540
     73          1           0       -6.018186   -1.224227   -2.097177
     74          1           0       -4.588490   -5.105406   -2.522831
     75          1           0       -3.893726   -5.759303   -0.896025
     76          1           0       -5.338553   -5.232771   -1.148486
     77          1           0       -1.518079    8.272892    1.239296
     78          1           0       -7.680082   -2.780718   -2.865468
     79          1           0       -6.632363   -4.346659   -2.803317
 ---------------------------------------------------------------------

 SCF Done:  E(RB3LYP) =  -1947.77963922     A.U. after   19 cycles

 Excitation energies and oscillator strengths:

 Excited State   1:      Singlet-A      1.9950 eV  621.48 nm  f=0.4221  <S**2>=0.000
     153 ->156         0.10913
     155 ->156         0.69022
     155 <-156        -0.11681
 This state for optimization and/or second-order correction.
 Total Energy, E(TD-HF/TD-KS) =  -1947.70632537
 Copying the excited state density for this state as the 1-particle RhoCI density.

 The electronic state is 1-A.
 Alpha  occ. eigenvalues --  -19.21597 -19.16080 -19.13039 -19.10032 -19.09866
 Alpha  occ. eigenvalues --  -19.09591 -14.37734 -14.37182 -14.34818 -14.28315
 Alpha  occ. eigenvalues --  -10.33709 -10.29281 -10.27710 -10.25715 -10.25590
 Alpha  occ. eigenvalues --  -10.24680 -10.24571 -10.23813 -10.23289 -10.23214
 Alpha  occ. eigenvalues --  -10.23104 -10.22908 -10.22459 -10.22416 -10.22368
 Alpha  occ. eigenvalues --  -10.21738 -10.21608 -10.20998 -10.20785 -10.20689
 Alpha  occ. eigenvalues --  -10.20597 -10.20051 -10.20004 -10.19984 -10.19642
 Alpha  occ. eigenvalues --  -10.19615 -10.19339 -10.19277 -10.19036 -10.18944
 Alpha  occ. eigenvalues --  -10.18852 -10.18815 -10.17929  -1.11722  -1.09692
 Alpha  occ. eigenvalues --   -1.03659  -1.02272  -1.00081  -0.99430  -0.98409
 Alpha  occ. eigenvalues --   -0.98298  -0.95947  -0.91405  -0.83712  -0.82339
 Alpha  occ. eigenvalues --   -0.81682  -0.81274  -0.80717  -0.79996  -0.77994
 Alpha  occ. eigenvalues --   -0.77644  -0.76603  -0.75936  -0.75282  -0.72943
 Alpha  occ. eigenvalues --   -0.72628  -0.71222  -0.70263  -0.69263  -0.68684
 Alpha  occ. eigenvalues --   -0.67461  -0.66530  -0.64344  -0.61888  -0.61282
 Alpha  occ. eigenvalues --   -0.61176  -0.59719  -0.59295  -0.58401  -0.58229
 Alpha  occ. eigenvalues --   -0.56706  -0.55669  -0.55345  -0.54824  -0.52986
 Alpha  occ. eigenvalues --   -0.52536  -0.52176  -0.51557  -0.50639  -0.50321
 Alpha  occ. eigenvalues --   -0.49710  -0.49029  -0.48376  -0.48187  -0.47827
 Alpha  occ. eigenvalues --   -0.47533  -0.47181  -0.46718  -0.46479  -0.46217
 Alpha  occ. eigenvalues --   -0.45855  -0.45595  -0.45299  -0.45087  -0.44832
 Alpha  occ. eigenvalues --   -0.43765  -0.43445  -0.43210  -0.43142  -0.42594
 Alpha  occ. eigenvalues --   -0.42040  -0.41846  -0.41631  -0.41473  -0.41429
 Alpha  occ. eigenvalues --   -0.41106  -0.40788  -0.40610  -0.40194  -0.39694
 Alpha  occ. eigenvalues --   -0.39536  -0.39222  -0.39137  -0.38889  -0.38597
 Alpha  occ. eigenvalues --   -0.38419  -0.37855  -0.37622  -0.36912  -0.36375
 Alpha  occ. eigenvalues --   -0.36061  -0.35933  -0.35164  -0.34833  -0.34362
 Alpha  occ. eigenvalues --   -0.33896  -0.33372  -0.32259  -0.31732  -0.31391
 Alpha  occ. eigenvalues --   -0.31080  -0.30653  -0.28455  -0.27972  -0.27106
 Alpha  occ. eigenvalues --   -0.26846  -0.26403  -0.25978  -0.25704  -0.24506
 Alpha  occ. eigenvalues --   -0.24090  -0.23790  -0.23226  -0.21858  -0.18971
 Alpha virt. eigenvalues --   -0.11189  -0.06498  -0.05482  -0.01624  -0.00633
 Alpha virt. eigenvalues --    0.00577   0.00993   0.01555   0.02222   0.02954
 Alpha virt. eigenvalues --    0.03392   0.03551   0.04438   0.04846   0.05303

 Mulliken charges:
               1
     1  O   -0.200089
     2  O   -0.178196
     3  O   -0.183016
     4  O   -0.157877
     5  O   -0.312967
     6  O   -0.236604
     7  N   -0.002487
     8  N   -0.137729
     9  N    0.132277
    10  N   -0.297891
    11  C    0.131686
    12  C    0.224544
    13  C   -0.125882
    14  C   -0.166298
    15  C   -0.109703
    16  C    0.068397
    17  C   -0.234508
    18  C    0.035838
    19  C   -0.036450
    20  C   -0.030488
    21  C    0.032099
    22  C    0.099001
    23  C   -0.116520
    24  C    0.144864
    25  C    0.154370
    26  C   -0.058949
    27  C   -0.049320
    28  C    0.032318
    29  C    0.170689
    30  C   -0.061683
    31  C   -0.066202
    32  C   -0.112627
    33  C   -0.131075
    34  C    0.087733
    35  C    0.135849
    36  C   -0.013558
    37  C    0.163415
    38  C    0.004779
    39  C   -0.206785
    40  C    0.146772
    41  C    0.035212
    42  C    0.209794
    43  C   -0.017442
    44  H   -0.027020
    45  H    0.024708
    46  H   -0.022560
    47  H    0.058096
    48  H    0.122051
    49  H    0.039251
    50  H    0.037738
    51  H   -0.050971
    52  H   -0.026693
    53  H    0.032361
    54  H    0.052336
    55  H   -0.058142
    56  H    0.043635
    57  H    0.054743
    58  H    0.077139
    59  H    0.030446
    60  H    0.057287
    61  H    0.056842
    62  H   -0.028722
    63  H    0.032796
    64  H    0.057946
    65  H    0.048708
    66  H    0.051120
    67  H    0.071380
    68  H    0.067362
    69  H   -0.027998
    70  H    0.015929
    71  H    0.032700
    72  H    0.189265
    73  H   -0.021386
    74  H    0.024733
    75  H   -0.042441
    76  H   -0.013234
    77  H    0.218780
    78  H    0.018487
    79  H    0.038035
 Sum of Mulliken charges =   0.00000

 Dipole moment (field-independent basis, Debye):
    X=              0.1152    Y=              1.9020    Z=              3.6687  Tot=              4.1340
 Quadrupole moment (field-independent basis, Debye-Ang):
   XX=           -220.8862   YY=           -244.3241   ZZ=           -265.2802
   XY=             -5.5175   XZ=             32.8352   YZ=              8.6804

 Normal termination of Gaussian 09 at Mon Jul  8 05:08:36 2019.
