 Gaussian 09, Revision D.01,
 Gaussian 09:  ES64L-G09RevD.01 24-Apr-2013

 --------------------------
 # td=(NStates=1) B3LYP/SVP
 --------------------------

 --
 TD
 --
 Symbolic Z-matrix:
 Charge =  0 Multiplicity = 1

                         Standard orientation:
 ---------------------------------------------------------------------
 Center     Atomic      Atomic             Coordinates (Angstroms)
 Number     Number       Type             X           Y           Z
 ---------------------------------------------------------------------
      1          8           0        5.518450   -0.031877   -3.275377
      2          8           0       -2.847453   -3.230536    3.184252
      3          8           0       -3.189070   -0.995864    3.605816
      4          8           0       -1.011379    6.872340    1.882874
      5          8           0       -0.365650    7.038644   -0.316158
      6          8           0       -2.268684   -3.873549   -0.098943
      7          7           0        2.339949    0.751090    0.522553
      8          7           0        4.490669   -0.742184   -1.267565
      9          7           0       -1.848267    0.703674   -0.352570
     10          7           0       -2.883537   -1.640557   -0.544388
     11          6           0        4.777535   -1.349343   -0.036835
     12          6           0        4.427790   -0.480235    1.229302
     13          6           0        2.899253   -0.175620    1.251731
     14          6           0        1.973486   -0.801721    2.079883
     15          6           0        0.692505   -0.103364    1.732274
     16          6           0        1.017179    0.818673    0.748862
     17          6           0        6.291682   -1.645791   -0.270514
     18          6           0       -0.658524   -0.298391    2.492469
     19          6           0        6.725847   -0.950277   -1.413579
     20          6           0        0.251826    1.864776    0.023013
     21          6           0       -0.964998    1.807581   -0.419974
     22          6           0        5.493509   -0.541111   -2.214382
     23          6           0       -1.797513    3.022248   -0.824982
     24          6           0        2.190344   -1.744902    3.147544
     25          6           0        7.183687   -2.298305    0.811128
     26          6           0       -2.952690    2.561730   -1.200008
     27          6           0       -1.097662   -1.798939    2.413460
     28          6           0       -3.048731    1.032406   -1.000142
     29          6           0       -1.226777    4.374234   -0.799715
     30          6           0        8.038627   -0.834913   -2.158498
     31          6           0       -1.318153    4.981213    0.566944
     32          6           0       -4.151924    3.292774   -1.773465
     33          6           0       -4.067972    0.193549   -1.422753
     34          6           0       -2.432877   -1.995933    3.201370
     35          6           0       -3.966383   -1.242179   -1.152145
     36          6           0        9.177128   -0.897666   -1.573953
     37          6           0       -0.913760    6.451756    0.606289
     38          6           0       -4.943966   -2.284649   -1.560296
     39          6           0       -4.403380   -3.485273   -1.113494
     40          6           0       -3.094688   -3.016683   -0.519722
     41          6           0       -6.252933   -1.950037   -2.250786
     42          6           0       -4.892010   -4.861028   -1.163177
     43          6           0       -6.999653   -2.832280   -2.890804
     44          1           0        4.104508   -2.278573    0.170517
     45          1           0        4.932578    0.332164    1.229365
     46          1           0        4.554911   -1.122438    2.111210
     47          1           0        2.716319    1.341684   -0.195586
     48          1           0        3.428124   -0.726195   -1.530002
     49          1           0       -0.480280    0.098503    3.438346
     50          1           0       -1.331366    0.566346    2.451519
     51          1           0        0.790143    2.729439   -0.198014
     52          1           0        3.116655   -1.913683    3.445675
     53          1           0        1.504362   -1.537333    4.018557
     54          1           0        1.800611   -2.897386    2.806209
     55          1           0        6.491183   -3.045357    1.344038
     56          1           0        7.555446   -1.861820    1.728863
     57          1           0        7.864242   -2.729945    0.205789
     58          1           0       -1.135851   -1.982748    1.399913
     59          1           0       -0.385131   -2.537136    3.036138
     60          1           0       -1.566040   -0.212340   -0.190417
     61          1           0       -1.869030    5.042222   -1.410885
     62          1           0       -0.167318    4.372562   -1.174057
     63          1           0        7.894964   -0.765271   -3.374144
     64          1           0       -0.911206    4.449332    1.368102
     65          1           0       -2.360314    4.970159    0.682475
     66          1           0       -3.782223    4.306092   -1.890838
     67          1           0       -5.045022    3.439302   -0.939687
     68          1           0       -4.652227    3.053823   -2.658781
     69          1           0       -5.157161    0.590341   -1.789232
     70          1           0        9.309842   -1.103825   -0.510926
     71          1           0       10.166855   -0.785165   -2.228597
     72          1           0       -3.669093   -3.288488    3.811818
     73          1           0       -6.440926   -0.857763   -2.328611
     74          1           0       -5.041540   -5.121502   -2.266534
     75          1           0       -4.072453   -5.519977   -0.827001
     76          1           0       -5.951371   -5.024202   -0.494189
     77          1           0       -0.628509    7.832239    1.710930
     78          1           0       -7.951396   -2.534359   -3.531074
     79          1           0       -6.748514   -3.889921   -3.057076
 ---------------------------------------------------------------------

 SCF Done:  E(RB3LYP) =  -1947.82498166     A.U. after   16 cycles

 Excitation energies and oscillator strengths:

 Excited State   1:      Singlet-A      2.2191 eV  558.71 nm  f=0.3028  <S**2>=0.000
     155 ->156         0.69958
 This state for optimization and/or second-order correction.
 Total Energy, E(TD-HF/TD-KS) =  -1947.74343065
 Copying the excited state density for this state as the 1-particle RhoCI density.

 The electronic state is 1-A.
 Alpha  occ. eigenvalues --  -19.20549 -19.19201 -19.14388 -19.10898 -19.10629
 Alpha  occ. eigenvalues --  -19.10465 -14.37834 -14.36395 -14.35498 -14.29980
 Alpha  occ. eigenvalues --  -10.33248 -10.31385 -10.28576 -10.27038 -10.25629
 Alpha  occ. eigenvalues --  -10.24941 -10.24072 -10.23457 -10.22464 -10.21946
 Alpha  occ. eigenvalues --  -10.21626 -10.21246 -10.21232 -10.21111 -10.21028
 Alpha  occ. eigenvalues --  -10.20909 -10.20897 -10.20751 -10.20648 -10.20588
 Alpha  occ. eigenvalues --  -10.20386 -10.20384 -10.20301 -10.20277 -10.20274
 Alpha  occ. eigenvalues --  -10.19991 -10.19970 -10.19960 -10.19464 -10.19330
 Alpha  occ. eigenvalues --  -10.18725 -10.18216 -10.18204  -1.10723  -1.08950
 Alpha  occ. eigenvalues --   -1.04594  -1.01644  -1.00534  -1.00163  -0.96875
 Alpha  occ. eigenvalues --   -0.94580  -0.94409  -0.93305  -0.84437  -0.81531
 Alpha  occ. eigenvalues --   -0.80838  -0.80511  -0.80402  -0.79272  -0.78580
 Alpha  occ. eigenvalues --   -0.76697  -0.76168  -0.75419  -0.74851  -0.72375
 Alpha  occ. eigenvalues --   -0.71427  -0.70804  -0.70044  -0.69415  -0.68658
 Alpha  occ. eigenvalues --   -0.67091  -0.65659  -0.64367  -0.59910  -0.59670
 Alpha  occ. eigenvalues --   -0.59634  -0.59215  -0.58258  -0.57639  -0.57100
 Alpha  occ. eigenvalues --   -0.56145  -0.55830  -0.55259  -0.53666  -0.52540
 Alpha  occ. eigenvalues --   -0.52376  -0.52091  -0.51336  -0.50660  -0.50657
 Alpha  occ. eigenvalues --   -0.50101  -0.48793  -0.48332  -0.47337  -0.47230
 Alpha  occ. eigenvalues --   -0.46928  -0.46686  -0.46427  -0.45872  -0.45783
 Alpha  occ. eigenvalues --   -0.45422  -0.45002  -0.44697  -0.44521  -0.44067
 Alpha  occ. eigenvalues --   -0.43868  -0.43547  -0.43372  -0.43100  -0.42814
 Alpha  occ. eigenvalues --   -0.41831  -0.41564  -0.41440  -0.41196  -0.40522
 Alpha  occ. eigenvalues --   -0.40445  -0.40221  -0.39999  -0.39737  -0.39552
 Alpha  occ. eigenvalues --   -0.39351  -0.39308  -0.38645  -0.38418  -0.38258
 Alpha  occ. eigenvalues --   -0.37861  -0.37517  -0.37480  -0.37168  -0.36754
 Alpha  occ. eigenvalues --   -0.36129  -0.35518  -0.34748  -0.34399  -0.34265
 Alpha  occ. eigenvalues --   -0.33820  -0.33776  -0.33504  -0.31503  -0.31137
 Alpha  occ. eigenvalues --   -0.30949  -0.29740  -0.29202  -0.29110  -0.28897
 Alpha  occ. eigenvalues --   -0.27057  -0.26328  -0.25919  -0.25480  -0.24352
 Alpha  occ. eigenvalues --   -0.24255  -0.23845  -0.23288  -0.22859  -0.19560
 Alpha virt. eigenvalues --   -0.10423  -0.05534  -0.05255  -0.01384  -0.00655
 Alpha virt. eigenvalues --   -0.00332   0.02230   0.02339   0.02659   0.03141
 Alpha virt. eigenvalues --    0.03427   0.03946   0.04160   0.04543   0.04701

 Mulliken charges:
               1
     1  O   -0.171466
     2  O   -0.147651
     3  O   -0.339798
     4  O   -0.198975
     5  O   -0.237276
     6  O   -0.240770
     7  N    0.045789
     8  N   -0.231684
     9  N   -0.064203
    10  N   -0.226698
    11  C    0.016758
    12  C    0.386034
    13  C   -0.209702
    14  C   -0.103847
    15  C   -0.139641
    16  C    0.010867
    17  C   -0.141467
    18  C    0.109702
    19  C   -0.127446
    20  C   -0.102383
    21  C    0.131433
    22  C    0.169338
    23  C   -0.079372
    24  C    0.089363
    25  C    0.090223
    26  C   -0.121121
    27  C    0.033926
    28  C    0.163453
    29  C    0.103747
    30  C   -0.011675
    31  C    0.042575
    32  C    0.088714
    33  C   -0.170464
    34  C    0.155744
    35  C    0.038720
    36  C   -0.057707
    37  C    0.150933
    38  C    0.012770
    39  C   -0.172126
    40  C    0.154631
    41  C    0.033095
    42  C    0.024917
    43  C   -0.067011
    44  H    0.023800
    45  H   -0.087300
    46  H   -0.017271
    47  H    0.104652
    48  H    0.142660
    49  H   -0.029280
    50  H   -0.001748
    51  H   -0.052601
    52  H   -0.043925
    53  H    0.028865
    54  H    0.032097
    55  H    0.007757
    56  H    0.036216
    57  H    0.016580
    58  H    0.054539
    59  H    0.048038
    60  H    0.128529
    61  H    0.010285
    62  H    0.030894
    63  H    0.064660
    64  H    0.030935
    65  H    0.009799
    66  H   -0.013301
    67  H    0.037977
    68  H    0.023184
    69  H    0.034249
    70  H    0.021933
    71  H    0.041090
    72  H    0.213412
    73  H   -0.002342
    74  H    0.044851
    75  H    0.032626
    76  H    0.066184
    77  H    0.203342
    78  H    0.042762
    79  H    0.025606
 Sum of Mulliken charges =   0.00000

 Dipole moment (field-independent basis, Debye):
    X=             -0.9934    Y=              1.4154    Z=              2.3336  Tot=              2.9045
 Quadrupole moment (field-independent basis, Debye-Ang):
   XX=           -227.6510   YY=           -240.2780   ZZ=           -259.5267
   XY=             -6.9277   XZ=             33.0071   YZ=              2.3037

 Normal termination of Gaussian 09 at Sun Jul  7 12:35:22 2019.
