 Gaussian 09, Revision D.01,
 Gaussian 09:  ES64L-G09RevD.01 24-Apr-2013

 --------------------------
 # td=(NStates=1) B3LYP/SVP
 --------------------------

 --
 TD
 --
 Symbolic Z-matrix:
 Charge =  0 Multiplicity = 1

                         Standard orientation:
 ---------------------------------------------------------------------
 Center     Atomic      Atomic             Coordinates (Angstroms)
 Number     Number       Type             X           Y           Z
 ---------------------------------------------------------------------
      1          8           0        5.317627   -0.012198   -3.298993
      2          8           0       -2.771915   -3.283156    3.143969
      3          8           0       -3.209865   -1.115526    3.028064
      4          8           0       -1.830106    7.299177    1.587838
      5          8           0       -0.671734    7.016687   -0.301157
      6          8           0       -1.930701   -3.962194   -0.174499
      7          7           0        2.410846    0.784222    0.694632
      8          7           0        4.350674   -0.606061   -1.328051
      9          7           0       -1.885854    0.729613   -0.436151
     10          7           0       -2.646321   -1.808511   -0.630425
     11          6           0        4.854810   -1.146422    0.000154
     12          6           0        4.481650   -0.403960    1.236815
     13          6           0        3.034271   -0.185451    1.282206
     14          6           0        2.018376   -0.866694    2.134764
     15          6           0        0.791841   -0.154060    1.846186
     16          6           0        1.056577    0.878382    0.897850
     17          6           0        6.317413   -1.217077   -0.316149
     18          6           0       -0.542764   -0.406813    2.557902
     19          6           0        6.656853   -0.802593   -1.470047
     20          6           0        0.222761    1.858877    0.251459
     21          6           0       -1.059657    1.753895   -0.234629
     22          6           0        5.379657   -0.395904   -2.174690
     23          6           0       -1.731877    2.936629   -0.794391
     24          6           0        2.263041   -1.944239    3.073461
     25          6           0        7.182908   -1.960784    0.839458
     26          6           0       -2.982668    2.447071   -1.189916
     27          6           0       -1.070879   -1.908016    2.375475
     28          6           0       -3.043179    1.004204   -0.923296
     29          6           0       -1.379944    4.437297   -0.804528
     30          6           0        7.893574   -0.670371   -2.081612
     31          6           0       -1.712816    5.135028    0.503992
     32          6           0       -4.171220    3.155947   -1.865418
     33          6           0       -4.054025    0.028617   -1.169741
     34          6           0       -2.342453   -1.994671    2.916920
     35          6           0       -3.892974   -1.335844   -1.046440
     36          6           0        9.138344   -0.576891   -1.502912
     37          6           0       -1.432276    6.562026    0.543365
     38          6           0       -4.822692   -2.449576   -1.314913
     39          6           0       -4.164870   -3.608528   -1.119093
     40          6           0       -2.776055   -3.193698   -0.564467
     41          6           0       -6.127462   -2.233441   -1.900348
     42          6           0       -4.500992   -5.082381   -1.303498
     43          6           0       -6.748280   -3.147314   -2.738893
     44          1           0        4.477861   -2.142091    0.200420
     45          1           0        4.959282    0.656834    1.094153
     46          1           0        4.971192   -0.911021    2.176456
     47          1           0        3.220829    1.546404    0.174207
     48          1           0        3.459051   -0.562681   -1.554168
     49          1           0       -0.445987   -0.193490    3.557945
     50          1           0       -1.415771    0.200634    2.114980
     51          1           0        0.593028    2.824285   -0.111173
     52          1           0        3.308143   -1.814761    3.632842
     53          1           0        1.702192   -1.770240    4.056764
     54          1           0        2.065247   -2.827652    2.671340
     55          1           0        6.529425   -2.758631    1.219120
     56          1           0        7.393696   -1.188150    1.582338
     57          1           0        8.024662   -2.685430    0.572547
     58          1           0       -1.039687   -2.315517    1.339912
     59          1           0       -0.325689   -2.615312    2.926129
     60          1           0       -1.542912   -0.335323   -0.276636
     61          1           0       -1.680931    5.067672   -1.513560
     62          1           0       -0.244442    4.542411   -1.003082
     63          1           0        7.818137   -0.860565   -3.300744
     64          1           0       -1.196057    4.700874    1.378486
     65          1           0       -2.871023    4.941766    0.765352
     66          1           0       -3.870108    4.212359   -2.157447
     67          1           0       -5.060368    3.085736   -1.250192
     68          1           0       -4.325648    2.604529   -2.687259
     69          1           0       -5.028674    0.352287   -1.463799
     70          1           0        9.264713   -0.454699   -0.497074
     71          1           0       10.148053   -0.462814   -2.151878
     72          1           0       -3.716990   -2.996060    3.421158
     73          1           0       -6.565294   -1.183468   -1.724153
     74          1           0       -4.622146   -5.218408   -2.317878
     75          1           0       -3.852439   -5.613956   -0.764969
     76          1           0       -5.662226   -5.169349   -1.105466
     77          1           0       -1.543877    8.192332    1.341892
     78          1           0       -7.721839   -2.911583   -2.934671
     79          1           0       -6.445218   -4.253553   -3.063847
 ---------------------------------------------------------------------

 SCF Done:  E(RB3LYP) =  -1947.83890709     A.U. after   19 cycles

 Excitation energies and oscillator strengths:

 Excited State   1:      Singlet-A      2.1579 eV  574.57 nm  f=0.3897  <S**2>=0.000
     154 ->156         0.22018
     155 ->156         0.66702
     155 <-156        -0.10465
 This state for optimization and/or second-order correction.
 Total Energy, E(TD-HF/TD-KS) =  -1947.75960679
 Copying the excited state density for this state as the 1-particle RhoCI density.

 The electronic state is 1-A.
 Alpha  occ. eigenvalues --  -19.19710 -19.15848 -19.12894 -19.11075 -19.10103
 Alpha  occ. eigenvalues --  -19.09319 -14.41100 -14.37085 -14.35427 -14.28115
 Alpha  occ. eigenvalues --  -10.32662 -10.29976 -10.28472 -10.25420 -10.25314
 Alpha  occ. eigenvalues --  -10.24643 -10.24283 -10.24054 -10.24027 -10.23974
 Alpha  occ. eigenvalues --  -10.22713 -10.22606 -10.22260 -10.21842 -10.21677
 Alpha  occ. eigenvalues --  -10.21512 -10.21210 -10.21132 -10.20875 -10.20871
 Alpha  occ. eigenvalues --  -10.20477 -10.20475 -10.20163 -10.20003 -10.19686
 Alpha  occ. eigenvalues --  -10.19656 -10.19477 -10.19301 -10.19252 -10.19214
 Alpha  occ. eigenvalues --  -10.18876 -10.18652 -10.18041  -1.11425  -1.07227
 Alpha  occ. eigenvalues --   -1.04344  -1.01257  -1.01097  -1.00893  -1.00698
 Alpha  occ. eigenvalues --   -0.96677  -0.95148  -0.90224  -0.83929  -0.83352
 Alpha  occ. eigenvalues --   -0.82474  -0.81105  -0.80750  -0.79636  -0.78487
 Alpha  occ. eigenvalues --   -0.77656  -0.77165  -0.75580  -0.74357  -0.73151
 Alpha  occ. eigenvalues --   -0.71846  -0.71696  -0.70248  -0.69622  -0.68922
 Alpha  occ. eigenvalues --   -0.67068  -0.66966  -0.64543  -0.63031  -0.60824
 Alpha  occ. eigenvalues --   -0.60477  -0.59813  -0.58303  -0.57494  -0.56808
 Alpha  occ. eigenvalues --   -0.56524  -0.55101  -0.54395  -0.54011  -0.53266
 Alpha  occ. eigenvalues --   -0.52180  -0.51701  -0.51565  -0.50732  -0.49925
 Alpha  occ. eigenvalues --   -0.49554  -0.49307  -0.49029  -0.48720  -0.47814
 Alpha  occ. eigenvalues --   -0.47238  -0.47178  -0.46613  -0.46462  -0.45961
 Alpha  occ. eigenvalues --   -0.45790  -0.45417  -0.45161  -0.44717  -0.44344
 Alpha  occ. eigenvalues --   -0.43990  -0.43861  -0.43344  -0.43007  -0.42784
 Alpha  occ. eigenvalues --   -0.42578  -0.42402  -0.42266  -0.41869  -0.41666
 Alpha  occ. eigenvalues --   -0.41230  -0.40989  -0.40806  -0.40453  -0.39948
 Alpha  occ. eigenvalues --   -0.39568  -0.39170  -0.38662  -0.38359  -0.38119
 Alpha  occ. eigenvalues --   -0.38020  -0.37737  -0.37566  -0.37223  -0.37108
 Alpha  occ. eigenvalues --   -0.36655  -0.36203  -0.35398  -0.35266  -0.34427
 Alpha  occ. eigenvalues --   -0.34332  -0.33951  -0.33074  -0.32238  -0.32053
 Alpha  occ. eigenvalues --   -0.30960  -0.29799  -0.28651  -0.28261  -0.27503
 Alpha  occ. eigenvalues --   -0.27075  -0.26711  -0.26112  -0.25949  -0.25105
 Alpha  occ. eigenvalues --   -0.24624  -0.23645  -0.23165  -0.21713  -0.19052
 Alpha virt. eigenvalues --   -0.10519  -0.05694  -0.05319  -0.02411  -0.01134
 Alpha virt. eigenvalues --   -0.00450   0.00152   0.01238   0.01568   0.03055
 Alpha virt. eigenvalues --    0.03398   0.03946   0.05070   0.05323   0.05893

 Mulliken charges:
               1
     1  O   -0.181805
     2  O   -0.220686
     3  O   -0.286363
     4  O   -0.157855
     5  O   -0.260010
     6  O   -0.213204
     7  N   -0.068513
     8  N   -0.142214
     9  N    0.006609
    10  N   -0.345644
    11  C    0.083483
    12  C    0.138989
    13  C   -0.121772
    14  C   -0.145435
    15  C   -0.092975
    16  C    0.094098
    17  C   -0.164875
    18  C    0.076264
    19  C    0.002940
    20  C   -0.064166
    21  C    0.016325
    22  C    0.113451
    23  C   -0.090682
    24  C    0.099429
    25  C    0.050807
    26  C   -0.179275
    27  C   -0.017591
    28  C    0.082402
    29  C    0.148704
    30  C   -0.076786
    31  C   -0.027212
    32  C    0.176486
    33  C   -0.099648
    34  C    0.158866
    35  C    0.105094
    36  C   -0.039359
    37  C    0.130974
    38  C    0.075054
    39  C   -0.250210
    40  C    0.144263
    41  C   -0.067103
    42  C    0.202219
    43  C   -0.033536
    44  H    0.015380
    45  H   -0.006402
    46  H    0.041584
    47  H    0.190691
    48  H    0.078247
    49  H   -0.009030
    50  H    0.041618
    51  H   -0.020068
    52  H    0.014669
    53  H    0.021506
    54  H    0.022360
    55  H    0.012172
    56  H    0.043883
    57  H    0.046497
    58  H    0.090602
    59  H    0.028387
    60  H    0.203655
    61  H   -0.032600
    62  H    0.016058
    63  H    0.051300
    64  H    0.044961
    65  H    0.050438
    66  H    0.022309
    67  H    0.024779
    68  H   -0.006444
    69  H   -0.057785
    70  H   -0.007251
    71  H    0.055160
    72  H    0.186285
    73  H    0.022757
    74  H    0.001290
    75  H    0.009261
    76  H    0.014486
    77  H    0.182486
    78  H   -0.001149
    79  H    0.048377
 Sum of Mulliken charges =   0.00000

 Dipole moment (field-independent basis, Debye):
    X=              1.9787    Y=              3.1413    Z=              3.6428  Tot=              5.2012
 Quadrupole moment (field-independent basis, Debye-Ang):
   XX=           -224.0138   YY=           -247.3254   ZZ=           -264.8013
   XY=            -16.0909   XZ=             35.3628   YZ=              5.9421

 Normal termination of Gaussian 09 at Tue Jul  9 12:52:37 2019.
