 Gaussian 09, Revision D.01,
 Gaussian 09:  ES64L-G09RevD.01 24-Apr-2013

 --------------------------
 # td=(NStates=1) B3LYP/SVP
 --------------------------

 --
 TD
 --
 Symbolic Z-matrix:
 Charge =  0 Multiplicity = 1

                         Standard orientation:
 ---------------------------------------------------------------------
 Center     Atomic      Atomic             Coordinates (Angstroms)
 Number     Number       Type             X           Y           Z
 ---------------------------------------------------------------------
      1          8           0        5.541122   -0.315924   -3.389776
      2          8           0       -2.807924   -3.157661    3.314740
      3          8           0       -3.199620   -0.975805    3.268413
      4          8           0       -1.724424    7.255256    1.502721
      5          8           0       -0.030907    6.741189   -0.135600
      6          8           0       -2.112178   -4.044858   -0.131615
      7          7           0        2.373703    0.775245    0.573502
      8          7           0        4.517025   -0.597622   -1.299876
      9          7           0       -2.015824    0.703502   -0.323488
     10          7           0       -2.825596   -1.843263   -0.306028
     11          6           0        4.878554   -1.117821   -0.054857
     12          6           0        4.517421   -0.389403    1.189451
     13          6           0        2.998575   -0.179519    1.322072
     14          6           0        1.984394   -0.793615    2.050448
     15          6           0        0.745822   -0.091652    1.773506
     16          6           0        1.002878    0.881047    0.817746
     17          6           0        6.440138   -1.159768   -0.154108
     18          6           0       -0.542544   -0.325096    2.513535
     19          6           0        6.772720   -0.829627   -1.417085
     20          6           0        0.140412    1.885825    0.124569
     21          6           0       -1.169562    1.839462   -0.323501
     22          6           0        5.648442   -0.559312   -2.216628
     23          6           0       -1.922095    2.906875   -0.939982
     24          6           0        2.163017   -1.942568    3.045953
     25          6           0        7.223006   -1.951867    0.883575
     26          6           0       -3.226798    2.387145   -1.230349
     27          6           0       -1.039523   -1.775533    2.587928
     28          6           0       -3.218051    0.966066   -0.873346
     29          6           0       -1.540898    4.377500   -0.948095
     30          6           0        8.069317   -0.705079   -2.126085
     31          6           0       -1.707629    5.031070    0.479087
     32          6           0       -4.377199    3.147990   -1.787192
     33          6           0       -4.175012   -0.003020   -1.214208
     34          6           0       -2.471923   -1.871564    3.067339
     35          6           0       -3.867178   -1.381543   -1.019014
     36          6           0        9.259596   -0.624128   -1.465001
     37          6           0       -1.086621    6.453087    0.521331
     38          6           0       -4.780923   -2.412993   -1.405387
     39          6           0       -4.270185   -3.601993   -1.113157
     40          6           0       -2.930909   -3.294237   -0.426199
     41          6           0       -5.997861   -2.085249   -2.131246
     42          6           0       -4.752907   -4.939862   -1.177875
     43          6           0       -6.634858   -2.823406   -3.181686
     44          1           0        4.539400   -2.225225   -0.004472
     45          1           0        5.134368    0.565016    0.940854
     46          1           0        4.966455   -0.686854    2.129757
     47          1           0        2.922427    1.492314   -0.106929
     48          1           0        3.716194   -0.738809   -1.712537
     49          1           0       -0.419686   -0.054104    3.589185
     50          1           0       -1.413183    0.195718    2.173161
     51          1           0        0.557478    2.906383   -0.299319
     52          1           0        3.227598   -2.184958    3.137445
     53          1           0        1.758152   -1.580108    3.853274
     54          1           0        1.678463   -2.915226    2.711730
     55          1           0        6.526670   -2.721090    1.248186
     56          1           0        7.444194   -1.391978    1.807166
     57          1           0        8.168796   -2.343619    0.459567
     58          1           0       -0.982470   -2.254265    1.501023
     59          1           0       -0.294724   -2.344225    3.282717
     60          1           0       -1.975223   -0.382144    0.069239
     61          1           0       -2.108013    4.967690   -1.667029
     62          1           0       -0.508247    4.618794   -1.233462
     63          1           0        8.129608   -0.718970   -3.158657
     64          1           0       -0.986898    4.569743    1.359587
     65          1           0       -2.695567    5.032739    0.856776
     66          1           0       -4.349844    4.292380   -1.926717
     67          1           0       -5.252142    3.012339   -1.005871
     68          1           0       -4.833200    2.712956   -2.636852
     69          1           0       -4.950469    0.222888   -2.003108
     70          1           0        9.317376   -0.706395   -0.421175
     71          1           0       10.276630   -0.532725   -1.861872
     72          1           0       -3.813390   -3.168298    3.632433
     73          1           0       -6.323444   -1.167142   -2.206287
     74          1           0       -4.238896   -5.299469   -2.348783
     75          1           0       -4.562473   -5.541541   -0.169345
     76          1           0       -5.979356   -4.952258   -1.372538
     77          1           0       -1.282214    8.098975    1.500304
     78          1           0       -7.527919   -2.390172   -3.537131
     79          1           0       -6.329839   -3.774227   -3.549392
 ---------------------------------------------------------------------

 SCF Done:  E(RB3LYP) =  -1947.87658295     A.U. after   16 cycles

 Excitation energies and oscillator strengths:

 Excited State   1:      Singlet-A      2.2212 eV  558.18 nm  f=0.4620  <S**2>=0.000
     155 ->156         0.69464
 This state for optimization and/or second-order correction.
 Total Energy, E(TD-HF/TD-KS) =  -1947.79495452
 Copying the excited state density for this state as the 1-particle RhoCI density.

 The electronic state is 1-A.
 Alpha  occ. eigenvalues --  -19.19469 -19.16576 -19.14187 -19.11344 -19.11336
 Alpha  occ. eigenvalues --  -19.11145 -14.38283 -14.35580 -14.33543 -14.29247
 Alpha  occ. eigenvalues --  -10.34084 -10.30022 -10.28435 -10.26695 -10.24834
 Alpha  occ. eigenvalues --  -10.24265 -10.24201 -10.23098 -10.23048 -10.22796
 Alpha  occ. eigenvalues --  -10.22796 -10.22754 -10.22503 -10.22493 -10.22285
 Alpha  occ. eigenvalues --  -10.21704 -10.21502 -10.21458 -10.21262 -10.20886
 Alpha  occ. eigenvalues --  -10.20410 -10.20341 -10.19740 -10.19618 -10.19601
 Alpha  occ. eigenvalues --  -10.19264 -10.19049 -10.18910 -10.18837 -10.18702
 Alpha  occ. eigenvalues --  -10.18652 -10.18434 -10.18193  -1.08427  -1.07655
 Alpha  occ. eigenvalues --   -1.05706  -1.03898  -0.99533  -0.99421  -0.97386
 Alpha  occ. eigenvalues --   -0.96762  -0.95089  -0.91908  -0.83025  -0.81901
 Alpha  occ. eigenvalues --   -0.80737  -0.80411  -0.79980  -0.79376  -0.77101
 Alpha  occ. eigenvalues --   -0.76904  -0.75935  -0.75483  -0.74103  -0.72986
 Alpha  occ. eigenvalues --   -0.72161  -0.70770  -0.69544  -0.68735  -0.67667
 Alpha  occ. eigenvalues --   -0.65572  -0.65248  -0.63438  -0.61331  -0.60338
 Alpha  occ. eigenvalues --   -0.59594  -0.59388  -0.58282  -0.56895  -0.56420
 Alpha  occ. eigenvalues --   -0.55449  -0.54837  -0.54295  -0.53857  -0.53664
 Alpha  occ. eigenvalues --   -0.52408  -0.51738  -0.51175  -0.50156  -0.49092
 Alpha  occ. eigenvalues --   -0.48628  -0.48165  -0.48114  -0.47777  -0.47028
 Alpha  occ. eigenvalues --   -0.46978  -0.46469  -0.46202  -0.45771  -0.45226
 Alpha  occ. eigenvalues --   -0.45161  -0.44677  -0.44277  -0.44048  -0.43641
 Alpha  occ. eigenvalues --   -0.43264  -0.42967  -0.42805  -0.42516  -0.42293
 Alpha  occ. eigenvalues --   -0.42217  -0.42026  -0.41641  -0.41194  -0.40979
 Alpha  occ. eigenvalues --   -0.40518  -0.40507  -0.40257  -0.40180  -0.40086
 Alpha  occ. eigenvalues --   -0.39609  -0.39287  -0.39260  -0.38723  -0.38559
 Alpha  occ. eigenvalues --   -0.38155  -0.38076  -0.37557  -0.37072  -0.36777
 Alpha  occ. eigenvalues --   -0.36210  -0.36031  -0.35687  -0.35395  -0.34850
 Alpha  occ. eigenvalues --   -0.34747  -0.33632  -0.32738  -0.32367  -0.31840
 Alpha  occ. eigenvalues --   -0.31184  -0.30441  -0.29194  -0.28729  -0.27461
 Alpha  occ. eigenvalues --   -0.27042  -0.26949  -0.26271  -0.24838  -0.24765
 Alpha  occ. eigenvalues --   -0.24050  -0.23714  -0.23356  -0.22040  -0.19085
 Alpha virt. eigenvalues --   -0.10278  -0.06889  -0.06205  -0.02719  -0.01484
 Alpha virt. eigenvalues --    0.00127   0.01652   0.02804   0.03115   0.03478
 Alpha virt. eigenvalues --    0.03657   0.04043   0.04482   0.04702   0.05237

 Mulliken charges:
               1
     1  O   -0.187526
     2  O   -0.233164
     3  O   -0.192408
     4  O   -0.208549
     5  O   -0.278419
     6  O   -0.110069
     7  N   -0.128832
     8  N   -0.151292
     9  N   -0.167446
    10  N   -0.351860
    11  C    0.064451
    12  C    0.145884
    13  C   -0.035284
    14  C   -0.196217
    15  C   -0.066736
    16  C    0.086763
    17  C   -0.197232
    18  C    0.090480
    19  C   -0.012502
    20  C   -0.066920
    21  C    0.068461
    22  C    0.125909
    23  C   -0.065316
    24  C    0.173452
    25  C    0.099527
    26  C   -0.119900
    27  C   -0.126234
    28  C    0.123521
    29  C    0.092481
    30  C    0.028496
    31  C   -0.009877
    32  C    0.067336
    33  C   -0.139959
    34  C    0.143435
    35  C    0.083550
    36  C   -0.019532
    37  C    0.177123
    38  C    0.105523
    39  C   -0.189116
    40  C    0.139950
    41  C   -0.007697
    42  C   -0.065628
    43  C   -0.016682
    44  H    0.022421
    45  H    0.001021
    46  H    0.005516
    47  H    0.161532
    48  H    0.070689
    49  H    0.005624
    50  H   -0.001273
    51  H    0.016175
    52  H   -0.014604
    53  H   -0.014778
    54  H    0.048639
    55  H    0.023887
    56  H    0.026037
    57  H    0.043287
    58  H    0.095288
    59  H    0.036821
    60  H    0.224807
    61  H    0.009697
    62  H    0.025895
    63  H   -0.013355
    64  H    0.079450
    65  H    0.020384
    66  H    0.034564
    67  H    0.028092
    68  H    0.013117
    69  H    0.008477
    70  H   -0.007323
    71  H    0.028625
    72  H    0.207551
    73  H   -0.059909
    74  H    0.071841
    75  H    0.072523
    76  H    0.047148
    77  H    0.176940
    78  H    0.017963
    79  H    0.015288
 Sum of Mulliken charges =   0.00000

 Dipole moment (field-independent basis, Debye):
    X=              0.6825    Y=              1.8249    Z=              2.4801  Tot=              3.1539
 Quadrupole moment (field-independent basis, Debye-Ang):
   XX=           -213.8331   YY=           -241.9797   ZZ=           -259.8112
   XY=            -14.6014   XZ=             32.4515   YZ=              0.5997

 Normal termination of Gaussian 09 at Tue Jul  9 14:17:40 2019.
