 Gaussian 09, Revision D.01,
 Gaussian 09:  ES64L-G09RevD.01 24-Apr-2013

 --------------------------
 # td=(NStates=1) B3LYP/SVP
 --------------------------

 --
 TD
 --
 Symbolic Z-matrix:
 Charge =  0 Multiplicity = 1

                         Standard orientation:
 ---------------------------------------------------------------------
 Center     Atomic      Atomic             Coordinates (Angstroms)
 Number     Number       Type             X           Y           Z
 ---------------------------------------------------------------------
      1          8           0        5.198385   -0.143978   -3.369774
      2          8           0       -2.894831   -3.142245    3.379354
      3          8           0       -3.009190   -0.978676    3.416875
      4          8           0       -1.608097    7.311916    1.517702
      5          8           0       -0.176320    6.874905   -0.229438
      6          8           0       -1.862192   -3.904138   -0.009433
      7          7           0        2.389227    0.965296    0.706457
      8          7           0        4.225780   -0.499347   -1.219977
      9          7           0       -1.828849    0.727803   -0.457576
     10          7           0       -2.659128   -1.889116   -0.506822
     11          6           0        4.702025   -1.170348   -0.013908
     12          6           0        4.342806   -0.321461    1.224120
     13          6           0        2.932091   -0.048168    1.379435
     14          6           0        2.011047   -0.729382    1.986177
     15          6           0        0.690503   -0.158399    1.766942
     16          6           0        1.033636    0.944433    0.867265
     17          6           0        6.194940   -1.311708   -0.217602
     18          6           0       -0.561467   -0.390735    2.589495
     19          6           0        6.584025   -0.919990   -1.477821
     20          6           0        0.197448    1.948709    0.175421
     21          6           0       -1.046800    1.854156   -0.400494
     22          6           0        5.260357   -0.494918   -2.195842
     23          6           0       -1.840125    2.973789   -0.839672
     24          6           0        2.218592   -1.799612    3.039892
     25          6           0        7.144936   -1.951477    0.891128
     26          6           0       -3.056601    2.468381   -1.282773
     27          6           0       -0.970051   -1.885787    2.543720
     28          6           0       -2.995846    0.995188   -1.105042
     29          6           0       -1.542173    4.376282   -0.807992
     30          6           0        7.757662   -0.832543   -2.248854
     31          6           0       -1.769009    5.117703    0.550506
     32          6           0       -4.251545    3.138400   -1.952849
     33          6           0       -4.010989    0.016072   -1.322533
     34          6           0       -2.351918   -1.889624    3.163313
     35          6           0       -3.730830   -1.361678   -1.097108
     36          6           0        9.030992   -1.016000   -1.735011
     37          6           0       -1.003289    6.498904    0.490623
     38          6           0       -4.651103   -2.444870   -1.524612
     39          6           0       -4.108873   -3.594608   -1.151993
     40          6           0       -2.780412   -3.258884   -0.449212
     41          6           0       -5.969353   -2.169039   -2.249177
     42          6           0       -4.570545   -5.011043   -1.212817
     43          6           0       -6.854262   -3.177941   -2.767751
     44          1           0        4.337202   -2.228787    0.166082
     45          1           0        4.987770    0.613716    1.120310
     46          1           0        4.795214   -0.766829    2.203516
     47          1           0        2.887986    1.571602   -0.114464
     48          1           0        3.423828   -0.586056   -1.675963
     49          1           0       -0.292695   -0.008895    3.555312
     50          1           0       -1.348098    0.105184    2.388406
     51          1           0        0.805893    2.878526    0.112369
     52          1           0        3.295884   -2.070224    3.392874
     53          1           0        1.861668   -1.614936    4.111393
     54          1           0        1.811611   -2.926578    2.733438
     55          1           0        6.494237   -2.681514    1.434772
     56          1           0        7.449803   -1.347204    1.716859
     57          1           0        7.994648   -2.510015    0.390330
     58          1           0       -1.008102   -2.317050    1.687282
     59          1           0       -0.260651   -2.391729    3.337911
     60          1           0       -1.958334   -0.414635   -0.552405
     61          1           0       -2.264365    4.719619   -1.540656
     62          1           0       -0.436466    4.762275   -0.941532
     63          1           0        7.577763   -0.707677   -3.284979
     64          1           0       -1.298523    4.548828    1.535773
     65          1           0       -2.730754    5.293322    0.864253
     66          1           0       -4.097988    4.306991   -1.980186
     67          1           0       -5.071131    2.853507   -1.221517
     68          1           0       -4.351774    2.504693   -3.111534
     69          1           0       -4.949345    0.379053   -2.088905
     70          1           0        9.476289   -1.134538   -0.740427
     71          1           0        9.998993   -0.812610   -2.280313
     72          1           0       -3.576800   -3.204441    4.138081
     73          1           0       -5.998688   -1.029430   -2.661479
     74          1           0       -4.999304   -5.390177   -2.179999
     75          1           0       -3.876614   -5.753470   -1.037937
     76          1           0       -5.423210   -5.079620   -0.133674
     77          1           0       -1.234430    8.114853    1.415811
     78          1           0       -7.697830   -2.965117   -3.351358
     79          1           0       -6.610168   -4.348165   -2.394146
 ---------------------------------------------------------------------

 SCF Done:  E(RB3LYP) =  -1947.75188675     A.U. after   16 cycles

 Excitation energies and oscillator strengths:

 Excited State   1:      Singlet-A      2.2099 eV  561.03 nm  f=0.4603  <S**2>=0.000
     155 ->156         0.69979
     155 <-156        -0.10027
 This state for optimization and/or second-order correction.
 Total Energy, E(TD-HF/TD-KS) =  -1947.67067354
 Copying the excited state density for this state as the 1-particle RhoCI density.

 The electronic state is 1-A.
 Alpha  occ. eigenvalues --  -19.16932 -19.16086 -19.14231 -19.11533 -19.10977
 Alpha  occ. eigenvalues --  -19.10339 -14.38736 -14.35618 -14.35411 -14.29319
 Alpha  occ. eigenvalues --  -10.33539 -10.29459 -10.29361 -10.26787 -10.25821
 Alpha  occ. eigenvalues --  -10.24374 -10.24263 -10.23571 -10.23459 -10.22961
 Alpha  occ. eigenvalues --  -10.22960 -10.22482 -10.22419 -10.22303 -10.21875
 Alpha  occ. eigenvalues --  -10.21600 -10.21487 -10.21347 -10.21323 -10.21155
 Alpha  occ. eigenvalues --  -10.20843 -10.20764 -10.20719 -10.20712 -10.20664
 Alpha  occ. eigenvalues --  -10.20635 -10.20538 -10.20004 -10.19856 -10.19678
 Alpha  occ. eigenvalues --  -10.18301 -10.18003 -10.17256  -1.11415  -1.08391
 Alpha  occ. eigenvalues --   -1.03290  -1.02836  -1.02383  -0.99695  -0.98013
 Alpha  occ. eigenvalues --   -0.97918  -0.94636  -0.92783  -0.83344  -0.82434
 Alpha  occ. eigenvalues --   -0.81408  -0.80854  -0.79788  -0.79218  -0.77296
 Alpha  occ. eigenvalues --   -0.77199  -0.76005  -0.74952  -0.73188  -0.71651
 Alpha  occ. eigenvalues --   -0.71081  -0.70251  -0.69353  -0.68407  -0.67408
 Alpha  occ. eigenvalues --   -0.66786  -0.65877  -0.63625  -0.61754  -0.60089
 Alpha  occ. eigenvalues --   -0.59611  -0.58594  -0.58358  -0.57662  -0.56722
 Alpha  occ. eigenvalues --   -0.55807  -0.55663  -0.54890  -0.53832  -0.53287
 Alpha  occ. eigenvalues --   -0.52098  -0.52017  -0.51191  -0.50628  -0.49589
 Alpha  occ. eigenvalues --   -0.49312  -0.48962  -0.48291  -0.48194  -0.47734
 Alpha  occ. eigenvalues --   -0.46799  -0.46481  -0.46012  -0.45599  -0.45290
 Alpha  occ. eigenvalues --   -0.44874  -0.44611  -0.44366  -0.43685  -0.43414
 Alpha  occ. eigenvalues --   -0.43397  -0.43126  -0.42736  -0.42315  -0.41855
 Alpha  occ. eigenvalues --   -0.41744  -0.41346  -0.41239  -0.41101  -0.40659
 Alpha  occ. eigenvalues --   -0.40476  -0.40072  -0.39800  -0.39428  -0.39320
 Alpha  occ. eigenvalues --   -0.39155  -0.39088  -0.38589  -0.38486  -0.38287
 Alpha  occ. eigenvalues --   -0.38118  -0.37192  -0.36737  -0.36712  -0.36231
 Alpha  occ. eigenvalues --   -0.35926  -0.35708  -0.35476  -0.34955  -0.34657
 Alpha  occ. eigenvalues --   -0.34460  -0.33805  -0.33364  -0.32518  -0.31971
 Alpha  occ. eigenvalues --   -0.30876  -0.30200  -0.29893  -0.28382  -0.28000
 Alpha  occ. eigenvalues --   -0.27296  -0.26345  -0.26164  -0.25103  -0.24693
 Alpha  occ. eigenvalues --   -0.24532  -0.23991  -0.23448  -0.22467  -0.19250
 Alpha virt. eigenvalues --   -0.10480  -0.06673  -0.06292  -0.01762  -0.00906
 Alpha virt. eigenvalues --   -0.00004   0.01755   0.02097   0.02331   0.02629
 Alpha virt. eigenvalues --    0.03195   0.03803   0.04234   0.04336   0.04866

 Mulliken charges:
               1
     1  O   -0.224829
     2  O   -0.267315
     3  O   -0.164233
     4  O   -0.207327
     5  O   -0.145052
     6  O   -0.177403
     7  N   -0.080847
     8  N   -0.162998
     9  N   -0.122103
    10  N   -0.274974
    11  C    0.109628
    12  C    0.115780
    13  C   -0.035558
    14  C   -0.072214
    15  C   -0.088304
    16  C   -0.012931
    17  C   -0.176606
    18  C    0.229134
    19  C   -0.028445
    20  C   -0.128953
    21  C    0.174765
    22  C    0.125501
    23  C   -0.042441
    24  C   -0.050790
    25  C    0.074899
    26  C   -0.132408
    27  C    0.067868
    28  C    0.017107
    29  C    0.054612
    30  C    0.041760
    31  C   -0.022452
    32  C   -0.003707
    33  C   -0.147549
    34  C    0.098899
    35  C    0.076783
    36  C   -0.071771
    37  C    0.135524
    38  C    0.034755
    39  C   -0.207695
    40  C    0.149342
    41  C   -0.036633
    42  C    0.039764
    43  C   -0.057297
    44  H    0.038868
    45  H   -0.008863
    46  H    0.014469
    47  H    0.173171
    48  H    0.091084
    49  H   -0.001751
    50  H   -0.070556
    51  H   -0.003411
    52  H   -0.001022
    53  H    0.032257
    54  H    0.056685
    55  H    0.007982
    56  H    0.029427
    57  H    0.052411
    58  H   -0.010760
    59  H    0.040517
    60  H    0.210413
    61  H    0.011793
    62  H    0.048308
    63  H    0.007775
    64  H    0.070101
    65  H    0.007679
    66  H    0.042223
    67  H    0.060762
    68  H    0.075680
    69  H    0.040692
    70  H    0.019762
    71  H    0.024054
    72  H    0.201079
    73  H    0.027399
    74  H    0.039895
    75  H    0.001352
    76  H    0.056045
    77  H    0.127397
    78  H    0.021284
    79  H    0.062517
 Sum of Mulliken charges =   0.00000

 Dipole moment (field-independent basis, Debye):
    X=              1.3267    Y=              2.1942    Z=              2.7338  Tot=              3.7481
 Quadrupole moment (field-independent basis, Debye-Ang):
   XX=           -224.4416   YY=           -243.4402   ZZ=           -256.5628
   XY=             -9.7860   XZ=             31.6715   YZ=             -1.4434

 Normal termination of Gaussian 09 at Sun Jul  7 17:41:59 2019.
