 Gaussian 09, Revision D.01,
 Gaussian 09:  ES64L-G09RevD.01 24-Apr-2013

 --------------------------
 # td=(NStates=1) B3LYP/SVP
 --------------------------

 --
 TD
 --
 Symbolic Z-matrix:
 Charge =  0 Multiplicity = 1

                         Standard orientation:
 ---------------------------------------------------------------------
 Center     Atomic      Atomic             Coordinates (Angstroms)
 Number     Number       Type             X           Y           Z
 ---------------------------------------------------------------------
      1          8           0        5.481349   -0.222316   -3.329718
      2          8           0       -3.054094   -3.020674    3.212849
      3          8           0       -3.256168   -0.834191    3.173854
      4          8           0       -1.434613    7.220504    1.514388
      5          8           0       -0.423751    6.985621   -0.390130
      6          8           0       -1.919327   -4.029288   -0.244768
      7          7           0        2.469703    0.781323    0.728905
      8          7           0        4.477116   -0.738062   -1.259781
      9          7           0       -1.746382    0.737427   -0.404442
     10          7           0       -2.703812   -1.820665   -0.713107
     11          6           0        4.852957   -1.328790   -0.021867
     12          6           0        4.402980   -0.523611    1.235542
     13          6           0        2.964454   -0.238250    1.389494
     14          6           0        1.893341   -0.851483    2.150105
     15          6           0        0.691943   -0.098132    1.660763
     16          6           0        1.050393    0.858934    0.730057
     17          6           0        6.310904   -1.302883   -0.153171
     18          6           0       -0.604933   -0.223527    2.501347
     19          6           0        6.729545   -0.940131   -1.408909
     20          6           0        0.319842    1.905925    0.084712
     21          6           0       -0.945393    1.856496   -0.299690
     22          6           0        5.422807   -0.562891   -2.233221
     23          6           0       -1.791535    2.955288   -0.877173
     24          6           0        2.053334   -1.943962    3.096606
     25          6           0        7.150549   -1.849042    0.968160
     26          6           0       -3.043210    2.446750   -1.283523
     27          6           0       -1.137448   -1.763497    2.464545
     28          6           0       -3.033849    0.961752   -0.935215
     29          6           0       -1.435549    4.364781   -0.806949
     30          6           0        8.042836   -0.807890   -2.008681
     31          6           0       -1.617121    5.088690    0.549343
     32          6           0       -4.282498    3.209948   -1.764080
     33          6           0       -3.992506    0.078500   -1.192703
     34          6           0       -2.477962   -1.797131    3.006316
     35          6           0       -3.806807   -1.347807   -1.053373
     36          6           0        9.326429   -0.733151   -1.397557
     37          6           0       -1.161771    6.483085    0.377973
     38          6           0       -4.799107   -2.424582   -1.516854
     39          6           0       -4.125748   -3.597287   -1.282987
     40          6           0       -2.819741   -3.274194   -0.656834
     41          6           0       -6.148730   -2.201935   -1.853328
     42          6           0       -4.650685   -5.011889   -1.285618
     43          6           0       -7.124444   -3.040952   -2.387128
     44          1           0        4.389805   -2.251094    0.107488
     45          1           0        5.064066    0.398672    0.985653
     46          1           0        4.593620   -0.892252    2.178001
     47          1           0        3.093222    1.374761    0.007431
     48          1           0        3.533091   -0.861242   -1.690878
     49          1           0       -0.544899    0.022968    3.524346
     50          1           0       -1.573139    0.415901    2.196823
     51          1           0        0.746367    2.957862   -0.160334
     52          1           0        3.185342   -1.994359    3.338709
     53          1           0        1.389985   -1.814605    4.029193
     54          1           0        1.695101   -2.829113    2.617795
     55          1           0        6.745330   -2.633808    1.627218
     56          1           0        7.424697   -1.072438    1.660997
     57          1           0        8.211540   -2.180037    0.717267
     58          1           0       -1.281351   -2.133374    1.281123
     59          1           0       -0.294178   -2.322159    3.040356
     60          1           0       -1.521456   -0.156283   -0.539258
     61          1           0       -2.157008    4.757052   -1.609936
     62          1           0       -0.571292    4.613860   -1.260289
     63          1           0        7.903881   -0.548031   -3.031105
     64          1           0       -1.247878    4.415778    1.314118
     65          1           0       -2.770408    4.891136    0.696370
     66          1           0       -3.796995    4.149515   -2.379525
     67          1           0       -5.023417    3.653020   -1.027723
     68          1           0       -4.833195    2.538745   -2.570136
     69          1           0       -5.055001    0.363701   -1.561210
     70          1           0        9.317339   -0.984283   -0.244989
     71          1           0       10.212164   -0.530284   -1.929680
     72          1           0       -3.955747   -3.147351    3.424565
     73          1           0       -6.341075   -1.172846   -1.899197
     74          1           0       -4.783999   -5.483149   -2.333301
     75          1           0       -4.156510   -5.755503   -0.760543
     76          1           0       -5.541737   -4.735635   -0.779964
     77          1           0       -1.080793    8.095796    1.415617
     78          1           0       -8.072942   -2.784696   -2.652348
     79          1           0       -6.805736   -3.966419   -2.462089
 ---------------------------------------------------------------------

 SCF Done:  E(RB3LYP) =  -1947.82730246     A.U. after   16 cycles

 Excitation energies and oscillator strengths:

 Excited State   1:      Singlet-A      1.9335 eV  641.25 nm  f=0.3524  <S**2>=0.000
     155 ->156         0.70463
 This state for optimization and/or second-order correction.
 Total Energy, E(TD-HF/TD-KS) =  -1947.75624844
 Copying the excited state density for this state as the 1-particle RhoCI density.

 The electronic state is 1-A.
 Alpha  occ. eigenvalues --  -19.16665 -19.14752 -19.14038 -19.12183 -19.12137
 Alpha  occ. eigenvalues --  -19.09902 -14.38469 -14.36465 -14.35236 -14.29545
 Alpha  occ. eigenvalues --  -10.32981 -10.30638 -10.29392 -10.27965 -10.24621
 Alpha  occ. eigenvalues --  -10.24574 -10.23624 -10.23473 -10.22804 -10.22802
 Alpha  occ. eigenvalues --  -10.22684 -10.22438 -10.21858 -10.21447 -10.21434
 Alpha  occ. eigenvalues --  -10.21426 -10.21422 -10.20799 -10.20775 -10.20618
 Alpha  occ. eigenvalues --  -10.20603 -10.20515 -10.20464 -10.20344 -10.20294
 Alpha  occ. eigenvalues --  -10.19771 -10.19668 -10.19649 -10.19375 -10.19319
 Alpha  occ. eigenvalues --  -10.19264 -10.19234 -10.19090  -1.10884  -1.07217
 Alpha  occ. eigenvalues --   -1.06185  -1.01299  -1.01043  -0.98367  -0.97307
 Alpha  occ. eigenvalues --   -0.96556  -0.96182  -0.93960  -0.83437  -0.82379
 Alpha  occ. eigenvalues --   -0.81950  -0.81489  -0.79816  -0.79657  -0.78066
 Alpha  occ. eigenvalues --   -0.77409  -0.76211  -0.75493  -0.74599  -0.72526
 Alpha  occ. eigenvalues --   -0.71055  -0.70689  -0.70597  -0.69505  -0.68418
 Alpha  occ. eigenvalues --   -0.66933  -0.66414  -0.65201  -0.61851  -0.61709
 Alpha  occ. eigenvalues --   -0.60794  -0.59470  -0.58901  -0.57337  -0.56899
 Alpha  occ. eigenvalues --   -0.56504  -0.55717  -0.54638  -0.54387  -0.54141
 Alpha  occ. eigenvalues --   -0.52990  -0.52645  -0.52406  -0.51258  -0.49908
 Alpha  occ. eigenvalues --   -0.49082  -0.48827  -0.48443  -0.48314  -0.47941
 Alpha  occ. eigenvalues --   -0.47469  -0.46560  -0.46224  -0.45643  -0.45400
 Alpha  occ. eigenvalues --   -0.45007  -0.44761  -0.44480  -0.44001  -0.43878
 Alpha  occ. eigenvalues --   -0.43764  -0.43206  -0.42842  -0.42754  -0.42609
 Alpha  occ. eigenvalues --   -0.42393  -0.42102  -0.41801  -0.41439  -0.41371
 Alpha  occ. eigenvalues --   -0.41080  -0.40617  -0.40522  -0.40511  -0.40126
 Alpha  occ. eigenvalues --   -0.39804  -0.39491  -0.39384  -0.38828  -0.38458
 Alpha  occ. eigenvalues --   -0.37915  -0.37794  -0.37429  -0.37241  -0.36348
 Alpha  occ. eigenvalues --   -0.35786  -0.35064  -0.35027  -0.34648  -0.34218
 Alpha  occ. eigenvalues --   -0.33943  -0.33607  -0.32618  -0.32162  -0.31337
 Alpha  occ. eigenvalues --   -0.31185  -0.29979  -0.29570  -0.29205  -0.28393
 Alpha  occ. eigenvalues --   -0.28258  -0.26264  -0.25743  -0.25121  -0.25000
 Alpha  occ. eigenvalues --   -0.24573  -0.23233  -0.23077  -0.22626  -0.18850
 Alpha virt. eigenvalues --   -0.11011  -0.06787  -0.06133  -0.01935  -0.01314
 Alpha virt. eigenvalues --    0.00462   0.00935   0.01429   0.02663   0.02988
 Alpha virt. eigenvalues --    0.03354   0.04150   0.04569   0.05250   0.05983

 Mulliken charges:
               1
     1  O   -0.126375
     2  O   -0.196765
     3  O   -0.274692
     4  O   -0.206024
     5  O   -0.181402
     6  O   -0.206533
     7  N   -0.095935
     8  N   -0.210701
     9  N   -0.040960
    10  N   -0.233868
    11  C    0.186813
    12  C    0.142968
    13  C   -0.103848
    14  C   -0.160569
    15  C   -0.054303
    16  C    0.097960
    17  C   -0.163552
    18  C    0.010307
    19  C   -0.096224
    20  C   -0.089357
    21  C    0.080135
    22  C    0.128136
    23  C   -0.111980
    24  C    0.087042
    25  C    0.076513
    26  C   -0.098771
    27  C   -0.109750
    28  C    0.144382
    29  C    0.085781
    30  C   -0.009219
    31  C   -0.004884
    32  C   -0.009192
    33  C   -0.139874
    34  C    0.160233
    35  C    0.020690
    36  C   -0.026670
    37  C    0.176584
    38  C    0.060640
    39  C   -0.199890
    40  C    0.180489
    41  C   -0.070306
    42  C    0.106741
    43  C    0.103436
    44  H   -0.006763
    45  H    0.003942
    46  H   -0.020155
    47  H    0.154999
    48  H    0.132282
    49  H    0.002270
    50  H    0.053043
    51  H    0.010564
    52  H    0.016801
    53  H    0.037832
    54  H    0.041603
    55  H    0.017642
    56  H    0.011174
    57  H    0.029757
    58  H    0.136101
    59  H    0.036407
    60  H    0.083750
    61  H   -0.005780
    62  H   -0.019308
    63  H   -0.007575
    64  H    0.054517
    65  H    0.053067
    66  H    0.040959
    67  H    0.064485
    68  H    0.047462
    69  H    0.008415
    70  H    0.031228
    71  H    0.025910
    72  H    0.166723
    73  H   -0.038073
    74  H    0.045295
    75  H    0.003362
    76  H    0.026123
    77  H    0.164463
    78  H    0.006046
    79  H   -0.035774
 Sum of Mulliken charges =   0.00000

 Dipole moment (field-independent basis, Debye):
    X=             -0.7635    Y=              0.9439    Z=              1.5542  Tot=              1.9721
 Quadrupole moment (field-independent basis, Debye-Ang):
   XX=           -220.7094   YY=           -246.6196   ZZ=           -263.9673
   XY=             -3.7112   XZ=             32.8933   YZ=              0.2350

 Normal termination of Gaussian 09 at Wed Jul 10 09:08:37 2019.
