 Gaussian 09, Revision D.01,
 Gaussian 09:  ES64L-G09RevD.01 24-Apr-2013

 --------------------------
 # td=(NStates=1) B3LYP/SVP
 --------------------------

 --
 TD
 --
 Symbolic Z-matrix:
 Charge =  0 Multiplicity = 1

                         Standard orientation:
 ---------------------------------------------------------------------
 Center     Atomic      Atomic             Coordinates (Angstroms)
 Number     Number       Type             X           Y           Z
 ---------------------------------------------------------------------
      1          8           0        5.239038   -0.233568   -3.321364
      2          8           0       -2.421854   -3.264076    3.423976
      3          8           0       -3.311182   -1.195306    2.698327
      4          8           0       -2.451190    7.290423    1.393478
      5          8           0       -0.815316    7.053528   -0.282460
      6          8           0       -1.706148   -4.091067   -0.054391
      7          7           0        2.393656    1.031631    0.561006
      8          7           0        4.385818   -0.690870   -1.170510
      9          7           0       -1.871872    0.569286   -0.408676
     10          7           0       -2.486923   -1.899382   -0.519349
     11          6           0        4.909439   -1.119612    0.119041
     12          6           0        4.461560   -0.148622    1.264296
     13          6           0        3.009593    0.100495    1.393878
     14          6           0        2.014577   -0.529066    2.106115
     15          6           0        0.739521   -0.044729    1.738485
     16          6           0        0.969557    0.913220    0.706333
     17          6           0        6.463828   -1.161465   -0.152715
     18          6           0       -0.561376   -0.342975    2.525944
     19          6           0        6.754287   -0.698981   -1.474968
     20          6           0        0.226980    1.884046    0.059044
     21          6           0       -1.179928    1.748182   -0.305492
     22          6           0        5.388544   -0.567215   -2.200280
     23          6           0       -1.997169    2.827274   -0.799899
     24          6           0        2.244575   -1.557809    3.190728
     25          6           0        7.382326   -1.607416    0.901560
     26          6           0       -3.155643    2.364189   -1.159496
     27          6           0       -0.903772   -1.803939    2.495015
     28          6           0       -3.104194    0.883562   -0.916417
     29          6           0       -1.576437    4.285207   -0.813143
     30          6           0        8.013583   -0.575686   -2.210542
     31          6           0       -2.014030    5.059832    0.424438
     32          6           0       -4.350762    3.061763   -1.696972
     33          6           0       -3.967179   -0.096857   -1.347718
     34          6           0       -2.339993   -1.957306    2.880894
     35          6           0       -3.647673   -1.466962   -1.148186
     36          6           0        9.197316   -0.298181   -1.574598
     37          6           0       -1.703247    6.574699    0.386014
     38          6           0       -4.570829   -2.584803   -1.561877
     39          6           0       -4.007315   -3.685611   -1.046352
     40          6           0       -2.693687   -3.355386   -0.523733
     41          6           0       -5.909686   -2.473506   -2.248439
     42          6           0       -4.422423   -5.196399   -1.059686
     43          6           0       -6.798225   -3.522071   -2.429904
     44          1           0        4.570663   -2.211401    0.250411
     45          1           0        5.039781    0.809436    1.070616
     46          1           0        4.944467   -0.699773    2.246253
     47          1           0        2.863658    1.406525   -0.291359
     48          1           0        3.527297   -0.548893   -1.372176
     49          1           0       -0.324962    0.104399    3.455887
     50          1           0       -1.378538    0.364469    2.134446
     51          1           0        0.796424    2.825988   -0.067007
     52          1           0        3.472313   -1.646938    3.387958
     53          1           0        1.808543   -1.085345    4.089622
     54          1           0        1.926836   -2.537529    3.013799
     55          1           0        6.836885   -2.255895    1.738362
     56          1           0        7.731682   -0.694573    1.505562
     57          1           0        8.269271   -2.320844    0.488725
     58          1           0       -0.963333   -2.406687    1.621004
     59          1           0       -0.310789   -2.544130    3.152168
     60          1           0       -1.585479   -0.495087   -0.275993
     61          1           0       -2.119511    4.898479   -1.542999
     62          1           0       -0.496059    4.412078   -0.928831
     63          1           0        7.953559   -0.808781   -3.395108
     64          1           0       -1.377984    4.693484    1.306080
     65          1           0       -2.900946    4.900419    0.651286
     66          1           0       -3.969209    4.127174   -2.107733
     67          1           0       -4.980797    3.313859   -0.834921
     68          1           0       -4.973036    2.666242   -2.442458
     69          1           0       -4.881511   -0.056750   -1.770517
     70          1           0        9.215206   -0.010318   -0.480389
     71          1           0       10.264103   -0.294740   -2.119120
     72          1           0       -3.324659   -3.320742    3.581356
     73          1           0       -6.178708   -1.404385   -2.463047
     74          1           0       -4.426495   -5.480793   -2.080189
     75          1           0       -3.473342   -5.625844   -0.720846
     76          1           0       -5.351597   -5.430514   -0.383004
     77          1           0       -2.064396    8.117080    1.269970
     78          1           0       -7.848071   -3.225953   -2.962788
     79          1           0       -6.735498   -4.535087   -1.951056
 ---------------------------------------------------------------------

 SCF Done:  E(RB3LYP) =  -1947.86397348     A.U. after   18 cycles

 Excitation energies and oscillator strengths:

 Excited State   1:      Singlet-A      1.9917 eV  622.52 nm  f=0.5063  <S**2>=0.000
     154 ->156         0.10847
     155 ->156         0.70000
     155 <-156        -0.13644
 This state for optimization and/or second-order correction.
 Total Energy, E(TD-HF/TD-KS) =  -1947.79078128
 Copying the excited state density for this state as the 1-particle RhoCI density.

 The electronic state is 1-A.
 Alpha  occ. eigenvalues --  -19.18397 -19.16233 -19.15222 -19.12525 -19.11104
 Alpha  occ. eigenvalues --  -19.10177 -14.38383 -14.36527 -14.34021 -14.29813
 Alpha  occ. eigenvalues --  -10.33761 -10.31240 -10.29146 -10.26848 -10.26010
 Alpha  occ. eigenvalues --  -10.24523 -10.24465 -10.23704 -10.23614 -10.23290
 Alpha  occ. eigenvalues --  -10.23261 -10.23140 -10.23005 -10.22239 -10.22158
 Alpha  occ. eigenvalues --  -10.21975 -10.21860 -10.21460 -10.21416 -10.20985
 Alpha  occ. eigenvalues --  -10.20847 -10.20744 -10.20660 -10.20495 -10.20458
 Alpha  occ. eigenvalues --  -10.20296 -10.20268 -10.20255 -10.19759 -10.19384
 Alpha  occ. eigenvalues --  -10.19232 -10.19104 -10.18329  -1.09327  -1.06840
 Alpha  occ. eigenvalues --   -1.04585  -1.02165  -0.98684  -0.98484  -0.97524
 Alpha  occ. eigenvalues --   -0.96522  -0.93573  -0.89714  -0.83829  -0.81902
 Alpha  occ. eigenvalues --   -0.81663  -0.81371  -0.79883  -0.79453  -0.78439
 Alpha  occ. eigenvalues --   -0.77483  -0.76826  -0.75113  -0.74157  -0.72649
 Alpha  occ. eigenvalues --   -0.71232  -0.70738  -0.69571  -0.68759  -0.68324
 Alpha  occ. eigenvalues --   -0.67627  -0.65836  -0.63280  -0.60843  -0.60202
 Alpha  occ. eigenvalues --   -0.59208  -0.58529  -0.57428  -0.57251  -0.56898
 Alpha  occ. eigenvalues --   -0.56411  -0.55971  -0.55553  -0.53747  -0.52481
 Alpha  occ. eigenvalues --   -0.51762  -0.51353  -0.50868  -0.50238  -0.49800
 Alpha  occ. eigenvalues --   -0.49334  -0.48949  -0.48065  -0.47683  -0.47218
 Alpha  occ. eigenvalues --   -0.46896  -0.46416  -0.46290  -0.46210  -0.45579
 Alpha  occ. eigenvalues --   -0.45344  -0.44642  -0.43984  -0.43808  -0.43567
 Alpha  occ. eigenvalues --   -0.43415  -0.43188  -0.42997  -0.42825  -0.42813
 Alpha  occ. eigenvalues --   -0.42563  -0.42555  -0.42066  -0.41647  -0.41493
 Alpha  occ. eigenvalues --   -0.41159  -0.40790  -0.40220  -0.40156  -0.39741
 Alpha  occ. eigenvalues --   -0.39637  -0.39337  -0.39087  -0.38776  -0.38696
 Alpha  occ. eigenvalues --   -0.38018  -0.37860  -0.37649  -0.37558  -0.36566
 Alpha  occ. eigenvalues --   -0.36394  -0.35650  -0.34875  -0.34818  -0.34551
 Alpha  occ. eigenvalues --   -0.34003  -0.33745  -0.32957  -0.32577  -0.31201
 Alpha  occ. eigenvalues --   -0.31172  -0.30939  -0.29909  -0.28354  -0.28180
 Alpha  occ. eigenvalues --   -0.27340  -0.26941  -0.26501  -0.26369  -0.25480
 Alpha  occ. eigenvalues --   -0.24470  -0.23905  -0.23632  -0.22719  -0.18536
 Alpha virt. eigenvalues --   -0.11065  -0.06824  -0.06295  -0.02254  -0.01632
 Alpha virt. eigenvalues --    0.00318   0.00552   0.00721   0.02385   0.03777
 Alpha virt. eigenvalues --    0.03873   0.04641   0.04964   0.05194   0.05516

 Mulliken charges:
               1
     1  O   -0.169162
     2  O   -0.187519
     3  O   -0.253899
     4  O   -0.205676
     5  O   -0.208194
     6  O   -0.301525
     7  N   -0.156818
     8  N   -0.202651
     9  N   -0.111075
    10  N   -0.342205
    11  C    0.119152
    12  C    0.102270
    13  C   -0.009321
    14  C   -0.155060
    15  C   -0.085959
    16  C    0.090136
    17  C   -0.168527
    18  C    0.135900
    19  C   -0.064609
    20  C   -0.135045
    21  C    0.080965
    22  C    0.153275
    23  C   -0.057341
    24  C    0.081562
    25  C   -0.020385
    26  C   -0.120622
    27  C    0.031487
    28  C    0.172324
    29  C    0.106505
    30  C   -0.033045
    31  C    0.102925
    32  C    0.095095
    33  C   -0.044744
    34  C    0.140531
    35  C    0.050612
    36  C   -0.090432
    37  C    0.145126
    38  C    0.027857
    39  C   -0.228015
    40  C    0.214658
    41  C   -0.004403
    42  C    0.107320
    43  C   -0.067675
    44  H    0.037178
    45  H    0.009551
    46  H    0.030318
    47  H    0.133228
    48  H    0.056039
    49  H    0.003064
    50  H    0.037761
    51  H    0.011122
    52  H    0.006501
    53  H    0.027366
    54  H    0.038716
    55  H    0.032514
    56  H    0.058001
    57  H    0.072636
    58  H    0.047987
    59  H    0.039938
    60  H    0.207293
    61  H    0.005179
    62  H    0.013558
    63  H    0.061921
    64  H    0.046416
    65  H   -0.060209
    66  H    0.020266
    67  H    0.031532
    68  H    0.019607
    69  H   -0.108700
    70  H    0.038586
    71  H    0.055798
    72  H    0.136133
    73  H    0.013799
    74  H    0.018482
    75  H    0.017959
    76  H    0.060921
    77  H    0.146932
    78  H    0.050517
    79  H    0.048294
 Sum of Mulliken charges =   0.00000

 Dipole moment (field-independent basis, Debye):
    X=              0.4817    Y=              2.6997    Z=              3.0063  Tot=              4.0692
 Quadrupole moment (field-independent basis, Debye-Ang):
   XX=           -213.2695   YY=           -254.6995   ZZ=           -261.9067
   XY=             -7.8654   XZ=             29.9455   YZ=              0.6138

 Normal termination of Gaussian 09 at Mon Jul  8 07:27:26 2019.
