 Gaussian 09, Revision D.01,
 Gaussian 09:  ES64L-G09RevD.01 24-Apr-2013

 --------------------------
 # td=(NStates=1) B3LYP/SVP
 --------------------------

 --
 TD
 --
 Symbolic Z-matrix:
 Charge =  0 Multiplicity = 1

                         Standard orientation:
 ---------------------------------------------------------------------
 Center     Atomic      Atomic             Coordinates (Angstroms)
 Number     Number       Type             X           Y           Z
 ---------------------------------------------------------------------
      1          8           0        5.259263   -0.102591   -3.344822
      2          8           0       -2.800398   -3.187624    3.160050
      3          8           0       -3.249123   -1.142826    3.250162
      4          8           0       -1.276491    7.135308    1.690424
      5          8           0       -0.962857    7.147312   -0.713822
      6          8           0       -1.959678   -3.894476   -0.073408
      7          7           0        2.351985    0.844529    0.712118
      8          7           0        4.315093   -0.590946   -1.322795
      9          7           0       -1.849786    0.655515   -0.356719
     10          7           0       -2.775984   -1.739687   -0.440581
     11          6           0        4.776740   -1.155444   -0.076239
     12          6           0        4.437082   -0.316168    1.198489
     13          6           0        3.007330   -0.130107    1.455890
     14          6           0        2.041856   -0.738426    2.203267
     15          6           0        0.761040   -0.168229    1.797636
     16          6           0        1.027262    0.745112    0.801963
     17          6           0        6.255443   -1.307261   -0.210710
     18          6           0       -0.553352   -0.455025    2.539962
     19          6           0        6.695927   -0.848982   -1.443298
     20          6           0        0.256464    1.835974    0.255707
     21          6           0       -1.146705    1.831251   -0.171776
     22          6           0        5.340864   -0.416044   -2.205561
     23          6           0       -1.862663    2.881788   -0.682815
     24          6           0        2.401527   -1.768050    3.218564
     25          6           0        7.150342   -1.881712    0.892769
     26          6           0       -3.156056    2.466975   -1.025526
     27          6           0       -1.080285   -1.779250    2.373798
     28          6           0       -3.054997    0.986785   -0.856709
     29          6           0       -1.288847    4.321062   -0.664960
     30          6           0        7.949659   -0.818206   -2.153539
     31          6           0       -1.695988    5.201808    0.408063
     32          6           0       -4.217887    3.215805   -1.715935
     33          6           0       -4.139064    0.098112   -1.241536
     34          6           0       -2.411650   -1.999862    2.897580
     35          6           0       -3.841811   -1.309430   -1.068213
     36          6           0        9.226426   -0.884133   -1.723932
     37          6           0       -1.236232    6.482945    0.342217
     38          6           0       -4.752845   -2.364570   -1.581638
     39          6           0       -4.093245   -3.589579   -1.200295
     40          6           0       -2.869030   -3.179248   -0.494522
     41          6           0       -5.999957   -2.269250   -2.241748
     42          6           0       -4.517533   -5.034305   -1.357009
     43          6           0       -6.791594   -3.354513   -2.601437
     44          1           0        4.253502   -2.120294    0.095675
     45          1           0        5.116690    0.685739    1.217472
     46          1           0        4.893635   -0.854728    2.173315
     47          1           0        2.845492    1.686004   -0.024013
     48          1           0        3.180417   -0.739147   -1.640127
     49          1           0       -0.355806    0.020941    3.581401
     50          1           0       -1.214472    0.273147    1.999967
     51          1           0        0.556197    2.852596    0.131669
     52          1           0        3.654178   -1.827232    3.280546
     53          1           0        1.827103   -1.442464    4.170002
     54          1           0        1.929143   -2.758234    2.946347
     55          1           0        6.668365   -2.642828    1.466013
     56          1           0        7.606490   -0.978428    1.514744
     57          1           0        8.091027   -2.506778    0.524710
     58          1           0       -1.370536   -2.190742    1.332185
     59          1           0       -0.422155   -2.550302    3.022250
     60          1           0       -1.461707   -0.272633   -0.323804
     61          1           0       -1.763348    4.969070   -1.600267
     62          1           0       -0.187665    4.224525   -1.085265
     63          1           0        7.794015   -0.739038   -3.215153
     64          1           0       -1.312364    4.739563    1.416491
     65          1           0       -2.788119    5.206867    0.376030
     66          1           0       -3.772823    4.128854   -1.812903
     67          1           0       -5.067346    3.223221   -1.120669
     68          1           0       -4.343882    2.736794   -2.691125
     69          1           0       -5.061661    0.578795   -1.655915
     70          1           0        9.603895   -0.665850   -0.688259
     71          1           0       10.089421   -0.888783   -2.318242
     72          1           0       -3.713023   -3.175974    3.534172
     73          1           0       -6.423459   -1.194783   -2.310718
     74          1           0       -4.497409   -5.194918   -2.326322
     75          1           0       -3.941469   -5.724869   -0.815744
     76          1           0       -5.407708   -5.312372   -0.818179
     77          1           0       -1.047308    8.127708    1.484963
     78          1           0       -7.637686   -2.822633   -3.191160
     79          1           0       -6.403854   -4.476435   -2.533967
 ---------------------------------------------------------------------

 SCF Done:  E(RB3LYP) =  -1947.79072864     A.U. after   18 cycles

 Excitation energies and oscillator strengths:

 Excited State   1:      Singlet-A      1.9793 eV  626.41 nm  f=0.4278  <S**2>=0.000
     154 ->156         0.17981
     155 ->156         0.67914
     155 <-156        -0.11585
 This state for optimization and/or second-order correction.
 Total Energy, E(TD-HF/TD-KS) =  -1947.71799135
 Copying the excited state density for this state as the 1-particle RhoCI density.

 The electronic state is 1-A.
 Alpha  occ. eigenvalues --  -19.18387 -19.15860 -19.15079 -19.10732 -19.10336
 Alpha  occ. eigenvalues --  -19.07663 -14.38825 -14.37044 -14.36778 -14.29010
 Alpha  occ. eigenvalues --  -10.33861 -10.28793 -10.28704 -10.26640 -10.25322
 Alpha  occ. eigenvalues --  -10.25084 -10.24314 -10.23416 -10.23387 -10.23281
 Alpha  occ. eigenvalues --  -10.23137 -10.22864 -10.22701 -10.22510 -10.22465
 Alpha  occ. eigenvalues --  -10.22086 -10.21683 -10.21493 -10.21298 -10.21264
 Alpha  occ. eigenvalues --  -10.21099 -10.20976 -10.20500 -10.20367 -10.20322
 Alpha  occ. eigenvalues --  -10.20034 -10.19701 -10.19647 -10.19600 -10.19541
 Alpha  occ. eigenvalues --  -10.19384 -10.19123 -10.17763  -1.09693  -1.05317
 Alpha  occ. eigenvalues --   -1.04105  -1.01095  -0.99615  -0.99050  -0.98250
 Alpha  occ. eigenvalues --   -0.94582  -0.94198  -0.91914  -0.85008  -0.81890
 Alpha  occ. eigenvalues --   -0.81521  -0.81185  -0.81152  -0.80537  -0.79244
 Alpha  occ. eigenvalues --   -0.77548  -0.76450  -0.75859  -0.74218  -0.73840
 Alpha  occ. eigenvalues --   -0.71573  -0.70256  -0.69996  -0.69571  -0.68720
 Alpha  occ. eigenvalues --   -0.67154  -0.66184  -0.63869  -0.61794  -0.60824
 Alpha  occ. eigenvalues --   -0.59103  -0.58788  -0.58169  -0.57731  -0.56182
 Alpha  occ. eigenvalues --   -0.55455  -0.55182  -0.54470  -0.53546  -0.53319
 Alpha  occ. eigenvalues --   -0.52278  -0.51817  -0.51415  -0.50709  -0.50500
 Alpha  occ. eigenvalues --   -0.49344  -0.48558  -0.48012  -0.47803  -0.47296
 Alpha  occ. eigenvalues --   -0.47285  -0.46963  -0.46608  -0.46344  -0.46146
 Alpha  occ. eigenvalues --   -0.45658  -0.45122  -0.44698  -0.43932  -0.43810
 Alpha  occ. eigenvalues --   -0.43692  -0.43525  -0.43294  -0.42884  -0.42319
 Alpha  occ. eigenvalues --   -0.42272  -0.41849  -0.41623  -0.41070  -0.40925
 Alpha  occ. eigenvalues --   -0.40831  -0.40567  -0.40364  -0.40124  -0.39853
 Alpha  occ. eigenvalues --   -0.39582  -0.39361  -0.39143  -0.38956  -0.38741
 Alpha  occ. eigenvalues --   -0.38648  -0.38254  -0.38025  -0.37571  -0.36420
 Alpha  occ. eigenvalues --   -0.35868  -0.35133  -0.34756  -0.34586  -0.34143
 Alpha  occ. eigenvalues --   -0.33435  -0.32957  -0.32335  -0.31905  -0.31742
 Alpha  occ. eigenvalues --   -0.31165  -0.29590  -0.28865  -0.28167  -0.27819
 Alpha  occ. eigenvalues --   -0.26978  -0.26561  -0.25642  -0.24428  -0.24363
 Alpha  occ. eigenvalues --   -0.24156  -0.23728  -0.23457  -0.21969  -0.19153
 Alpha virt. eigenvalues --   -0.11392  -0.07782  -0.05898  -0.04566  -0.01151
 Alpha virt. eigenvalues --   -0.00269   0.00408   0.01421   0.01909   0.02772
 Alpha virt. eigenvalues --    0.02970   0.03622   0.03961   0.04433   0.04911

 Mulliken charges:
               1
     1  O   -0.183392
     2  O   -0.127964
     3  O   -0.311930
     4  O   -0.304085
     5  O   -0.264235
     6  O   -0.214755
     7  N   -0.158704
     8  N   -0.247653
     9  N   -0.020472
    10  N   -0.301541
    11  C    0.140587
    12  C    0.021351
    13  C   -0.015944
    14  C   -0.118788
    15  C   -0.134263
    16  C    0.102078
    17  C   -0.158681
    18  C    0.122647
    19  C   -0.052734
    20  C   -0.056287
    21  C    0.001337
    22  C    0.128431
    23  C   -0.052147
    24  C    0.023028
    25  C    0.029819
    26  C   -0.211751
    27  C    0.017750
    28  C    0.064730
    29  C   -0.086439
    30  C    0.009952
    31  C    0.122197
    32  C    0.231754
    33  C   -0.128967
    34  C    0.054142
    35  C    0.121426
    36  C   -0.037870
    37  C    0.182387
    38  C    0.024331
    39  C   -0.209152
    40  C    0.158565
    41  C   -0.085569
    42  C    0.194382
    43  C   -0.048654
    44  H    0.014667
    45  H    0.023617
    46  H    0.021750
    47  H    0.191454
    48  H    0.196574
    49  H    0.037245
    50  H   -0.000878
    51  H   -0.031973
    52  H    0.039157
    53  H    0.035548
    54  H    0.048252
    55  H    0.014920
    56  H    0.060197
    57  H    0.045194
    58  H    0.096917
    59  H    0.036720
    60  H    0.145209
    61  H    0.039183
    62  H    0.051043
    63  H    0.009651
    64  H    0.059281
    65  H    0.060192
    66  H   -0.028910
    67  H    0.017755
    68  H    0.036713
    69  H   -0.004468
    70  H    0.020379
    71  H    0.010902
    72  H    0.188058
    73  H    0.010385
    74  H    0.005815
    75  H   -0.009775
    76  H    0.020481
    77  H    0.213874
    78  H    0.046120
    79  H    0.059838
 Sum of Mulliken charges =   0.00000

 Dipole moment (field-independent basis, Debye):
    X=              0.8666    Y=              1.6451    Z=              1.6626  Tot=              2.4944
 Quadrupole moment (field-independent basis, Debye-Ang):
   XX=           -223.5190   YY=           -248.0821   ZZ=           -269.5125
   XY=             -6.1081   XZ=             33.8539   YZ=              3.5293

 Normal termination of Gaussian 09 at Tue Jul  9 01:22:13 2019.
