 Gaussian 09, Revision D.01,
 Gaussian 09:  ES64L-G09RevD.01 24-Apr-2013

 --------------------------
 # td=(NStates=1) B3LYP/SVP
 --------------------------

 --
 TD
 --
 Symbolic Z-matrix:
 Charge =  0 Multiplicity = 1

                         Standard orientation:
 ---------------------------------------------------------------------
 Center     Atomic      Atomic             Coordinates (Angstroms)
 Number     Number       Type             X           Y           Z
 ---------------------------------------------------------------------
      1          8           0        5.534794    0.106286   -3.360765
      2          8           0       -2.890943   -3.251619    3.231589
      3          8           0       -3.208283   -0.985360    3.161338
      4          8           0       -1.838279    7.179086    1.650823
      5          8           0       -1.262263    7.135330   -0.589344
      6          8           0       -1.648932   -3.942793   -0.015828
      7          7           0        2.309473    0.880277    0.525886
      8          7           0        4.427254   -0.323231   -1.365304
      9          7           0       -1.908826    0.641695   -0.361725
     10          7           0       -2.595912   -1.967893   -0.503655
     11          6           0        4.708578   -1.099365   -0.104861
     12          6           0        4.393129   -0.301276    1.190405
     13          6           0        2.931216    0.014413    1.348416
     14          6           0        2.048550   -0.640310    2.163941
     15          6           0        0.721441   -0.113963    1.769760
     16          6           0        0.951208    0.860386    0.814679
     17          6           0        6.245529   -1.298280   -0.196128
     18          6           0       -0.575557   -0.372010    2.503500
     19          6           0        6.669538   -0.661541   -1.408466
     20          6           0        0.094766    1.894262    0.302608
     21          6           0       -1.176247    1.837616   -0.193334
     22          6           0        5.535539   -0.190833   -2.140544
     23          6           0       -2.053874    2.886954   -0.814435
     24          6           0        2.376569   -1.824944    3.197390
     25          6           0        7.100985   -1.798630    0.899664
     26          6           0       -3.164345    2.333646   -1.308576
     27          6           0       -1.052860   -1.885205    2.587268
     28          6           0       -3.056281    0.866623   -1.038132
     29          6           0       -1.793531    4.354311   -0.778184
     30          6           0        7.991111   -0.529786   -2.038008
     31          6           0       -1.813536    5.043625    0.542368
     32          6           0       -4.356967    3.080979   -1.768617
     33          6           0       -4.015876   -0.138738   -1.322798
     34          6           0       -2.492776   -2.023767    3.035228
     35          6           0       -3.702490   -1.464835   -1.160138
     36          6           0        9.213049   -0.452894   -1.387508
     37          6           0       -1.594231    6.509782    0.504224
     38          6           0       -4.504562   -2.621137   -1.519256
     39          6           0       -3.766964   -3.763555   -1.205057
     40          6           0       -2.600146   -3.292709   -0.549164
     41          6           0       -5.662622   -2.535790   -2.333982
     42          6           0       -4.115767   -5.173464   -1.253401
     43          6           0       -6.458001   -3.548830   -2.700199
     44          1           0        4.249852   -2.159804   -0.068558
     45          1           0        4.981527    0.683473    1.413299
     46          1           0        4.773207   -1.044134    1.991543
     47          1           0        2.962208    1.587027   -0.064401
     48          1           0        3.473754   -0.257381   -1.513399
     49          1           0       -0.570318    0.121679    3.520343
     50          1           0       -1.389446    0.206363    2.094093
     51          1           0        0.563638    2.817525    0.176100
     52          1           0        3.490941   -1.919718    3.255240
     53          1           0        2.147644   -1.285374    4.386545
     54          1           0        1.687491   -2.667495    2.790294
     55          1           0        6.704115   -2.719849    1.537825
     56          1           0        7.339482   -0.960108    1.544888
     57          1           0        8.031852   -2.168194    0.403090
     58          1           0       -0.884707   -2.183321    1.546935
     59          1           0       -0.471095   -2.523524    3.124373
     60          1           0       -1.685801   -0.222984    0.001719
     61          1           0       -2.251763    4.992381   -1.571651
     62          1           0       -0.787005    4.398611   -1.417093
     63          1           0        7.862770   -0.510372   -3.172998
     64          1           0       -1.135129    4.717044    1.369392
     65          1           0       -2.962940    4.912549    0.956272
     66          1           0       -4.252256    4.151454   -1.988529
     67          1           0       -5.435876    3.051225   -1.156494
     68          1           0       -4.645549    2.649237   -2.684535
     69          1           0       -4.977717    0.375227   -1.817981
     70          1           0        9.213648   -0.280216   -0.362635
     71          1           0       10.303945   -0.333221   -1.741223
     72          1           0       -3.872148   -3.258450    3.383829
     73          1           0       -6.028344   -1.486790   -2.544847
     74          1           0       -3.932580   -5.928835   -2.131024
     75          1           0       -3.541596   -5.722701   -0.382522
     76          1           0       -5.006454   -5.446133   -1.021088
     77          1           0       -1.621539    7.997680    1.432159
     78          1           0       -7.350601   -3.192958   -3.331052
     79          1           0       -6.243358   -4.637692   -2.478808
 ---------------------------------------------------------------------

 SCF Done:  E(RB3LYP) =  -1947.84902020     A.U. after   19 cycles

 Excitation energies and oscillator strengths:

 Excited State   1:      Singlet-A      1.9012 eV  652.15 nm  f=0.1406  <S**2>=0.000
     154 ->156         0.34851
     155 ->156         0.60724
 This state for optimization and/or second-order correction.
 Total Energy, E(TD-HF/TD-KS) =  -1947.77915367
 Copying the excited state density for this state as the 1-particle RhoCI density.

 The electronic state is 1-A.
 Alpha  occ. eigenvalues --  -19.20362 -19.18680 -19.13702 -19.10262 -19.09172
 Alpha  occ. eigenvalues --  -19.08541 -14.39395 -14.37431 -14.35642 -14.27306
 Alpha  occ. eigenvalues --  -10.34289 -10.30862 -10.28324 -10.26335 -10.26142
 Alpha  occ. eigenvalues --  -10.25426 -10.24176 -10.24081 -10.23447 -10.23396
 Alpha  occ. eigenvalues --  -10.23268 -10.23047 -10.22867 -10.22645 -10.22359
 Alpha  occ. eigenvalues --  -10.22287 -10.22253 -10.22016 -10.21743 -10.21523
 Alpha  occ. eigenvalues --  -10.21238 -10.20852 -10.20696 -10.20203 -10.19922
 Alpha  occ. eigenvalues --  -10.19709 -10.19520 -10.19428 -10.19277 -10.19032
 Alpha  occ. eigenvalues --  -10.18892 -10.17948 -10.17771  -1.12825  -1.09306
 Alpha  occ. eigenvalues --   -1.00876  -0.99455  -0.99049  -0.98712  -0.98465
 Alpha  occ. eigenvalues --   -0.96858  -0.93233  -0.91078  -0.84439  -0.82552
 Alpha  occ. eigenvalues --   -0.82098  -0.80249  -0.80153  -0.79939  -0.79381
 Alpha  occ. eigenvalues --   -0.77489  -0.75988  -0.75328  -0.74695  -0.73276
 Alpha  occ. eigenvalues --   -0.72113  -0.71336  -0.70636  -0.69744  -0.68319
 Alpha  occ. eigenvalues --   -0.67086  -0.66623  -0.64610  -0.62597  -0.62543
 Alpha  occ. eigenvalues --   -0.61136  -0.60165  -0.59140  -0.58138  -0.57472
 Alpha  occ. eigenvalues --   -0.56402  -0.55736  -0.54964  -0.54603  -0.53709
 Alpha  occ. eigenvalues --   -0.52505  -0.51814  -0.51214  -0.50590  -0.50412
 Alpha  occ. eigenvalues --   -0.50144  -0.49174  -0.48930  -0.48136  -0.47837
 Alpha  occ. eigenvalues --   -0.47402  -0.47274  -0.46735  -0.46157  -0.45745
 Alpha  occ. eigenvalues --   -0.45448  -0.44861  -0.44777  -0.44140  -0.44038
 Alpha  occ. eigenvalues --   -0.43637  -0.43371  -0.43273  -0.42736  -0.42616
 Alpha  occ. eigenvalues --   -0.42350  -0.42063  -0.41581  -0.41424  -0.41276
 Alpha  occ. eigenvalues --   -0.40505  -0.40406  -0.40296  -0.40046  -0.39617
 Alpha  occ. eigenvalues --   -0.39395  -0.38929  -0.38608  -0.38592  -0.38146
 Alpha  occ. eigenvalues --   -0.38011  -0.37515  -0.37444  -0.36694  -0.36677
 Alpha  occ. eigenvalues --   -0.36284  -0.35616  -0.34769  -0.34141  -0.33592
 Alpha  occ. eigenvalues --   -0.33474  -0.33002  -0.32745  -0.32633  -0.31519
 Alpha  occ. eigenvalues --   -0.30560  -0.30066  -0.28807  -0.28515  -0.27211
 Alpha  occ. eigenvalues --   -0.26510  -0.25793  -0.25034  -0.24877  -0.24511
 Alpha  occ. eigenvalues --   -0.23962  -0.23587  -0.23201  -0.21460  -0.19838
 Alpha virt. eigenvalues --   -0.11524  -0.06957  -0.06649  -0.03345  -0.00694
 Alpha virt. eigenvalues --   -0.00128   0.00747   0.01476   0.02282   0.02558
 Alpha virt. eigenvalues --    0.03024   0.03826   0.04163   0.04893   0.04963

 Mulliken charges:
               1
     1  O   -0.268330
     2  O   -0.137574
     3  O   -0.302995
     4  O   -0.093991
     5  O   -0.311238
     6  O   -0.259276
     7  N   -0.127095
     8  N   -0.164121
     9  N   -0.019546
    10  N   -0.246411
    11  C    0.078343
    12  C    0.073180
    13  C   -0.067197
    14  C   -0.138790
    15  C   -0.096863
    16  C    0.090383
    17  C   -0.166207
    18  C    0.080006
    19  C   -0.066905
    20  C   -0.067682
    21  C    0.100223
    22  C    0.172073
    23  C   -0.038275
    24  C    0.012443
    25  C    0.041345
    26  C   -0.081303
    27  C    0.030470
    28  C    0.037820
    29  C    0.023392
    30  C   -0.010777
    31  C    0.013021
    32  C    0.057601
    33  C   -0.132775
    34  C    0.149295
    35  C    0.146297
    36  C   -0.048369
    37  C    0.136655
    38  C    0.036459
    39  C   -0.119751
    40  C    0.105403
    41  C   -0.044824
    42  C    0.083621
    43  C   -0.042438
    44  H    0.057587
    45  H    0.026430
    46  H    0.012726
    47  H    0.173553
    48  H    0.102494
    49  H    0.011279
    50  H   -0.010837
    51  H   -0.039924
    52  H    0.013435
    53  H    0.047802
    54  H    0.094308
    55  H    0.042584
    56  H    0.049411
    57  H    0.046382
    58  H    0.070677
    59  H   -0.010673
    60  H    0.108216
    61  H    0.024433
    62  H    0.032085
    63  H    0.046959
    64  H    0.056845
    65  H    0.076735
    66  H    0.015947
    67  H    0.052580
    68  H    0.009715
    69  H    0.023624
    70  H   -0.001519
    71  H    0.048503
    72  H    0.196101
    73  H   -0.004210
    74  H    0.033128
    75  H    0.025031
    76  H   -0.040973
    77  H    0.129179
    78  H    0.031700
    79  H    0.033391
 Sum of Mulliken charges =   0.00000

 Dipole moment (field-independent basis, Debye):
    X=             -0.1618    Y=              3.0884    Z=              4.1690  Tot=              5.1908
 Quadrupole moment (field-independent basis, Debye-Ang):
   XX=           -221.7686   YY=           -247.2242   ZZ=           -269.1172
   XY=             -7.3119   XZ=             36.7712   YZ=              4.5432

 Normal termination of Gaussian 09 at Tue Jul  9 20:58:00 2019.
