 Gaussian 09, Revision D.01,
 Gaussian 09:  ES64L-G09RevD.01 24-Apr-2013

 --------------------------
 # td=(NStates=1) B3LYP/SVP
 --------------------------

 --
 TD
 --
 Symbolic Z-matrix:
 Charge =  0 Multiplicity = 1

                         Standard orientation:
 ---------------------------------------------------------------------
 Center     Atomic      Atomic             Coordinates (Angstroms)
 Number     Number       Type             X           Y           Z
 ---------------------------------------------------------------------
      1          8           0        5.227878   -0.066034   -3.342849
      2          8           0       -2.843440   -2.922946    3.288197
      3          8           0       -3.174758   -0.683037    3.526503
      4          8           0       -2.413671    7.257007    1.061480
      5          8           0       -0.944056    6.999601   -0.580419
      6          8           0       -1.475396   -4.023965    0.151106
      7          7           0        2.359725    1.145011    0.629415
      8          7           0        4.307082   -0.534420   -1.206984
      9          7           0       -1.856009    0.526990   -0.416583
     10          7           0       -2.511898   -1.965025   -0.274373
     11          6           0        4.785422   -1.065578    0.054940
     12          6           0        4.424123   -0.079805    1.154125
     13          6           0        3.007117    0.189753    1.381444
     14          6           0        2.030536   -0.224827    2.271341
     15          6           0        0.766225    0.226209    1.948014
     16          6           0        0.946742    1.106299    0.797332
     17          6           0        6.321841   -1.188757   -0.151147
     18          6           0       -0.502304   -0.113383    2.612420
     19          6           0        6.609697   -0.707887   -1.432561
     20          6           0        0.093986    1.898150    0.020840
     21          6           0       -1.192535    1.775082   -0.441323
     22          6           0        5.383004   -0.395960   -2.149269
     23          6           0       -2.061558    2.774163   -0.968666
     24          6           0        2.453189   -1.254292    3.372063
     25          6           0        7.188605   -1.756466    0.892918
     26          6           0       -3.265607    2.127011   -1.321720
     27          6           0       -1.082794   -1.582391    2.732518
     28          6           0       -3.045701    0.718321   -0.974506
     29          6           0       -1.692564    4.278463   -0.967914
     30          6           0        7.847288   -0.608121   -2.188408
     31          6           0       -2.228410    5.075172    0.185966
     32          6           0       -4.384202    2.605038   -2.026437
     33          6           0       -4.054930   -0.378055   -1.251346
     34          6           0       -2.486019   -1.602377    3.277543
     35          6           0       -3.578021   -1.675782   -1.133154
     36          6           0        9.090774   -0.538734   -1.584099
     37          6           0       -1.711783    6.495456    0.229829
     38          6           0       -4.367429   -2.931047   -1.516602
     39          6           0       -3.666448   -4.022464   -1.043023
     40          6           0       -2.448141   -3.350231   -0.278343
     41          6           0       -5.697277   -2.801071   -2.167916
     42          6           0       -3.899047   -5.530618   -1.054097
     43          6           0       -6.199394   -3.794942   -2.959086
     44          1           0        4.422712   -2.028222    0.467510
     45          1           0        4.986439    0.945251    0.956876
     46          1           0        4.842915   -0.274095    2.203508
     47          1           0        2.632242    1.489636   -0.348354
     48          1           0        3.308437   -0.347812   -1.610022
     49          1           0       -0.200430    0.038903    3.680817
     50          1           0       -1.329159    0.712828    2.408340
     51          1           0        0.506894    2.880208   -0.431307
     52          1           0        3.599929   -0.942119    3.655450
     53          1           0        1.953485   -0.946459    4.333145
     54          1           0        2.315648   -2.280224    3.087369
     55          1           0        6.618320   -2.253778    1.809509
     56          1           0        7.483850   -0.775575    1.520712
     57          1           0        8.182410   -2.370897    0.500614
     58          1           0       -1.128923   -2.023636    1.633662
     59          1           0       -0.371720   -2.243072    3.342566
     60          1           0       -1.499651   -0.538757   -0.132192
     61          1           0       -2.177301    4.555556   -1.978300
     62          1           0       -0.613428    4.317879   -0.998386
     63          1           0        7.803520   -0.767018   -3.343319
     64          1           0       -2.165757    4.610767    1.272342
     65          1           0       -3.259804    5.045229    0.240403
     66          1           0       -4.383678    3.606452   -2.518193
     67          1           0       -5.401687    2.721692   -1.443936
     68          1           0       -4.642453    1.917661   -2.906569
     69          1           0       -4.993169   -0.150349   -1.831940
     70          1           0        9.057606   -0.552749   -0.566873
     71          1           0       10.039557   -0.657321   -2.210527
     72          1           0       -3.787446   -3.142789    3.736473
     73          1           0       -6.370124   -1.849182   -1.866793
     74          1           0       -3.543452   -5.853306   -2.059580
     75          1           0       -3.243850   -5.733769   -0.132516
     76          1           0       -4.902132   -5.623243   -1.077852
     77          1           0       -2.083424    8.309448    1.072266
     78          1           0       -7.308253   -3.695913   -3.106639
     79          1           0       -5.759208   -4.792091   -3.240789
 ---------------------------------------------------------------------

 SCF Done:  E(RB3LYP) =  -1947.86894893     A.U. after   23 cycles

 Excitation energies and oscillator strengths:

 Excited State   1:      Singlet-A      2.0824 eV  595.39 nm  f=0.3424  <S**2>=0.000
     154 ->156        -0.20678
     155 ->156         0.67587
     155 <-156        -0.10055
 This state for optimization and/or second-order correction.
 Total Energy, E(TD-HF/TD-KS) =  -1947.79242186
 Copying the excited state density for this state as the 1-particle RhoCI density.

 The electronic state is 1-A.
 Alpha  occ. eigenvalues --  -19.19345 -19.16373 -19.12577 -19.11756 -19.10676
 Alpha  occ. eigenvalues --  -19.08327 -14.39112 -14.36668 -14.36456 -14.28725
 Alpha  occ. eigenvalues --  -10.32594 -10.30470 -10.29101 -10.26556 -10.25424
 Alpha  occ. eigenvalues --  -10.24938 -10.24754 -10.24184 -10.24065 -10.24028
 Alpha  occ. eigenvalues --  -10.23856 -10.23232 -10.22974 -10.22343 -10.21877
 Alpha  occ. eigenvalues --  -10.21867 -10.21556 -10.21415 -10.21333 -10.21260
 Alpha  occ. eigenvalues --  -10.21048 -10.20897 -10.20836 -10.20806 -10.20057
 Alpha  occ. eigenvalues --  -10.19958 -10.19877 -10.19797 -10.19587 -10.19480
 Alpha  occ. eigenvalues --  -10.19308 -10.19041 -10.18204  -1.09312  -1.07386
 Alpha  occ. eigenvalues --   -1.01239  -0.99468  -0.99306  -0.98619  -0.98029
 Alpha  occ. eigenvalues --   -0.97518  -0.93467  -0.89021  -0.82902  -0.82397
 Alpha  occ. eigenvalues --   -0.82108  -0.81467  -0.79979  -0.78934  -0.78486
 Alpha  occ. eigenvalues --   -0.77013  -0.75484  -0.75103  -0.73962  -0.72430
 Alpha  occ. eigenvalues --   -0.71855  -0.71132  -0.69243  -0.68534  -0.67830
 Alpha  occ. eigenvalues --   -0.66966  -0.66107  -0.62667  -0.60759  -0.60087
 Alpha  occ. eigenvalues --   -0.59319  -0.58097  -0.57939  -0.56862  -0.56630
 Alpha  occ. eigenvalues --   -0.55515  -0.55171  -0.54527  -0.53865  -0.52305
 Alpha  occ. eigenvalues --   -0.51886  -0.51497  -0.51152  -0.50122  -0.49040
 Alpha  occ. eigenvalues --   -0.48318  -0.48257  -0.47787  -0.47610  -0.47553
 Alpha  occ. eigenvalues --   -0.46923  -0.46345  -0.46032  -0.45935  -0.45470
 Alpha  occ. eigenvalues --   -0.45029  -0.44834  -0.44590  -0.44225  -0.43719
 Alpha  occ. eigenvalues --   -0.43337  -0.42884  -0.42532  -0.41914  -0.41734
 Alpha  occ. eigenvalues --   -0.41552  -0.41473  -0.41267  -0.41109  -0.40868
 Alpha  occ. eigenvalues --   -0.40523  -0.40400  -0.40169  -0.39860  -0.39772
 Alpha  occ. eigenvalues --   -0.39529  -0.39493  -0.38628  -0.38248  -0.38083
 Alpha  occ. eigenvalues --   -0.37381  -0.37174  -0.36847  -0.36669  -0.35986
 Alpha  occ. eigenvalues --   -0.35704  -0.35382  -0.34892  -0.34622  -0.34285
 Alpha  occ. eigenvalues --   -0.33826  -0.32847  -0.32241  -0.32016  -0.31133
 Alpha  occ. eigenvalues --   -0.31008  -0.30371  -0.28355  -0.28273  -0.27269
 Alpha  occ. eigenvalues --   -0.26698  -0.26536  -0.26188  -0.25629  -0.25549
 Alpha  occ. eigenvalues --   -0.24228  -0.23282  -0.22738  -0.21529  -0.18844
 Alpha virt. eigenvalues --   -0.10484  -0.07124  -0.05607  -0.01113  -0.00825
 Alpha virt. eigenvalues --   -0.00462  -0.00258   0.00668   0.01644   0.02113
 Alpha virt. eigenvalues --    0.02266   0.03347   0.03907   0.04089   0.04451

 Mulliken charges:
               1
     1  O   -0.245368
     2  O   -0.259195
     3  O   -0.180120
     4  O   -0.239747
     5  O   -0.242117
     6  O   -0.280736
     7  N   -0.122598
     8  N   -0.279100
     9  N   -0.118818
    10  N   -0.347862
    11  C    0.168891
    12  C    0.090208
    13  C   -0.024706
    14  C   -0.160386
    15  C   -0.022326
    16  C    0.083629
    17  C   -0.125629
    18  C    0.007627
    19  C   -0.028268
    20  C   -0.121512
    21  C    0.051973
    22  C    0.172781
    23  C   -0.108122
    24  C    0.055542
    25  C   -0.023611
    26  C   -0.072522
    27  C   -0.072063
    28  C    0.047129
    29  C    0.153844
    30  C   -0.073384
    31  C    0.017348
    32  C   -0.008144
    33  C   -0.091890
    34  C    0.156224
    35  C    0.106467
    36  C    0.002709
    37  C    0.154110
    38  C    0.013486
    39  C   -0.233073
    40  C    0.169645
    41  C   -0.074938
    42  C    0.147818
    43  C   -0.050352
    44  H    0.022508
    45  H    0.017581
    46  H    0.004333
    47  H    0.137928
    48  H    0.164695
    49  H    0.002500
    50  H    0.047883
    51  H    0.012491
    52  H    0.014169
    53  H    0.022503
    54  H    0.059024
    55  H    0.040826
    56  H    0.059658
    57  H    0.090972
    58  H    0.109957
    59  H    0.039834
    60  H    0.230185
    61  H    0.037324
    62  H    0.005079
    63  H    0.049538
    64  H    0.048659
    65  H    0.003468
    66  H    0.013086
    67  H    0.035638
    68  H    0.041448
    69  H   -0.002542
    70  H   -0.018415
    71  H    0.048009
    72  H    0.216839
    73  H    0.051454
    74  H    0.036620
    75  H    0.067741
    76  H   -0.011315
    77  H    0.247202
    78  H    0.022274
    79  H    0.037999
 Sum of Mulliken charges =   0.00000

 Dipole moment (field-independent basis, Debye):
    X=              1.3729    Y=              2.7853    Z=              3.9545  Tot=              5.0280
 Quadrupole moment (field-independent basis, Debye-Ang):
   XX=           -215.7914   YY=           -246.9521   ZZ=           -261.3784
   XY=            -17.0105   XZ=             29.4801   YZ=              3.3663

 Normal termination of Gaussian 09 at Wed Jul 10 07:15:41 2019.
