 Gaussian 09, Revision D.01,
 Gaussian 09:  ES64L-G09RevD.01 24-Apr-2013

 --------------------------
 # td=(NStates=1) B3LYP/SVP
 --------------------------

 --
 TD
 --
 Symbolic Z-matrix:
 Charge =  0 Multiplicity = 1

                         Standard orientation:
 ---------------------------------------------------------------------
 Center     Atomic      Atomic             Coordinates (Angstroms)
 Number     Number       Type             X           Y           Z
 ---------------------------------------------------------------------
      1          8           0        5.254645   -0.592357   -3.418749
      2          8           0       -2.984707   -3.078735    3.230929
      3          8           0       -3.393966   -0.883339    3.127954
      4          8           0       -1.357463    7.398622    1.335387
      5          8           0        0.228925    6.733455   -0.313417
      6          8           0       -2.214541   -3.994339    0.049265
      7          7           0        2.385366    0.864820    0.615785
      8          7           0        4.369957   -0.746064   -1.207525
      9          7           0       -1.870446    0.682114   -0.370856
     10          7           0       -2.784912   -1.823323   -0.528882
     11          6           0        4.848527   -1.224131    0.103286
     12          6           0        4.495010   -0.371284    1.254904
     13          6           0        3.024636   -0.066344    1.303822
     14          6           0        2.060058   -0.696522    2.105539
     15          6           0        0.775006   -0.104566    1.682226
     16          6           0        1.081189    0.909540    0.788797
     17          6           0        6.324250   -1.285111   -0.168989
     18          6           0       -0.488159   -0.375230    2.453806
     19          6           0        6.708725   -1.065606   -1.386944
     20          6           0        0.229797    1.853056    0.144407
     21          6           0       -1.107505    1.764470   -0.332267
     22          6           0        5.409104   -0.762763   -2.223175
     23          6           0       -1.846994    2.881010   -0.823850
     24          6           0        2.215820   -1.689798    3.194794
     25          6           0        7.219369   -1.782386    1.038941
     26          6           0       -3.050479    2.443007   -1.215102
     27          6           0       -1.157224   -1.731864    2.383390
     28          6           0       -3.132022    1.072823   -0.953806
     29          6           0       -1.370476    4.242500   -0.825062
     30          6           0        7.968300   -1.159692   -2.186664
     31          6           0       -1.647064    5.206790    0.424611
     32          6           0       -4.170867    3.259288   -1.859382
     33          6           0       -4.109215    0.053003   -1.342488
     34          6           0       -2.554800   -1.786481    3.009457
     35          6           0       -3.873998   -1.308128   -1.108149
     36          6           0        9.223532   -1.068421   -1.626840
     37          6           0       -0.793408    6.561700    0.449511
     38          6           0       -4.871058   -2.393682   -1.416024
     39          6           0       -4.271992   -3.515974   -1.143801
     40          6           0       -2.928864   -3.127421   -0.492375
     41          6           0       -6.212753   -2.038909   -1.923431
     42          6           0       -4.895371   -4.920060   -1.089522
     43          6           0       -6.924663   -2.832641   -2.690946
     44          1           0        4.474390   -2.199738    0.341103
     45          1           0        5.115968    0.579986    0.878660
     46          1           0        4.727452   -0.976439    2.257251
     47          1           0        2.836146    1.581048   -0.101540
     48          1           0        3.339529   -0.524160   -1.449417
     49          1           0       -0.189577   -0.099642    3.618960
     50          1           0       -1.218384    0.323099    2.175991
     51          1           0        0.840537    2.727418   -0.028105
     52          1           0        3.393812   -1.740496    3.324993
     53          1           0        1.752454   -1.682450    4.155689
     54          1           0        1.983008   -2.721549    2.754441
     55          1           0        6.743319   -2.514674    1.561287
     56          1           0        7.403229   -1.122476    1.691534
     57          1           0        8.082019   -2.269006    0.678460
     58          1           0       -1.204132   -2.160679    1.486717
     59          1           0       -0.718345   -2.439780    2.854724
     60          1           0       -1.928269   -0.440064   -0.101337
     61          1           0       -1.721049    4.724084   -1.796199
     62          1           0       -0.323869    4.315952   -0.968572
     63          1           0        7.827555   -1.460264   -3.272542
     64          1           0       -1.171853    4.716854    1.163517
     65          1           0       -2.796734    5.497575    0.543326
     66          1           0       -3.972319    4.318926   -1.854679
     67          1           0       -5.094431    2.950015   -1.427673
     68          1           0       -4.119439    3.002096   -2.891375
     69          1           0       -5.068309    0.537868   -1.605647
     70          1           0        9.458177   -0.828319   -0.696039
     71          1           0       10.129449   -1.230237   -2.267469
     72          1           0       -3.879001   -2.874722    3.586965
     73          1           0       -6.549399   -1.052303   -1.555355
     74          1           0       -4.674911   -5.410516   -2.183255
     75          1           0       -4.507263   -5.746473   -0.316867
     76          1           0       -5.899066   -4.780903   -1.045239
     77          1           0       -0.524745    8.163957    1.443440
     78          1           0       -7.924868   -2.490516   -3.001944
     79          1           0       -6.642449   -3.823793   -2.776452
 ---------------------------------------------------------------------

 SCF Done:  E(RB3LYP) =  -1947.83022776     A.U. after   25 cycles

 Excitation energies and oscillator strengths:

 Excited State   1:      Singlet-A      2.2064 eV  561.94 nm  f=0.5382  <S**2>=0.000
     154 ->156        -0.12803
     155 ->156         0.69871
     155 <-156        -0.13574
 This state for optimization and/or second-order correction.
 Total Energy, E(TD-HF/TD-KS) =  -1947.74914487
 Copying the excited state density for this state as the 1-particle RhoCI density.

 The electronic state is 1-A.
 Alpha  occ. eigenvalues --  -19.22496 -19.16450 -19.14397 -19.11548 -19.11517
 Alpha  occ. eigenvalues --  -19.08677 -14.40010 -14.35766 -14.35625 -14.29569
 Alpha  occ. eigenvalues --  -10.34530 -10.30929 -10.29724 -10.25509 -10.24536
 Alpha  occ. eigenvalues --  -10.24453 -10.24402 -10.23905 -10.23703 -10.23436
 Alpha  occ. eigenvalues --  -10.22861 -10.22641 -10.22585 -10.21750 -10.21742
 Alpha  occ. eigenvalues --  -10.20943 -10.20822 -10.20644 -10.20221 -10.19971
 Alpha  occ. eigenvalues --  -10.19930 -10.19832 -10.19694 -10.19680 -10.19656
 Alpha  occ. eigenvalues --  -10.19495 -10.19344 -10.19334 -10.18418 -10.18350
 Alpha  occ. eigenvalues --  -10.18304 -10.18107 -10.17136  -1.09464  -1.07412
 Alpha  occ. eigenvalues --   -1.02559  -1.01912  -0.99641  -0.99196  -0.97936
 Alpha  occ. eigenvalues --   -0.97390  -0.93188  -0.92940  -0.82982  -0.82476
 Alpha  occ. eigenvalues --   -0.81603  -0.81457  -0.80808  -0.80152  -0.77893
 Alpha  occ. eigenvalues --   -0.77394  -0.76896  -0.75561  -0.74705  -0.73165
 Alpha  occ. eigenvalues --   -0.72404  -0.71867  -0.70502  -0.68780  -0.68555
 Alpha  occ. eigenvalues --   -0.67366  -0.65929  -0.63880  -0.61294  -0.60239
 Alpha  occ. eigenvalues --   -0.59822  -0.59200  -0.58369  -0.57780  -0.57153
 Alpha  occ. eigenvalues --   -0.56292  -0.55671  -0.55444  -0.53736  -0.53415
 Alpha  occ. eigenvalues --   -0.52459  -0.52362  -0.51290  -0.50649  -0.49784
 Alpha  occ. eigenvalues --   -0.48973  -0.48815  -0.48373  -0.47598  -0.47400
 Alpha  occ. eigenvalues --   -0.47221  -0.46997  -0.46801  -0.46451  -0.46263
 Alpha  occ. eigenvalues --   -0.45681  -0.45237  -0.44979  -0.44078  -0.43892
 Alpha  occ. eigenvalues --   -0.43767  -0.43592  -0.43444  -0.43187  -0.42673
 Alpha  occ. eigenvalues --   -0.42603  -0.42360  -0.41891  -0.41671  -0.41321
 Alpha  occ. eigenvalues --   -0.40563  -0.40359  -0.40190  -0.40166  -0.39931
 Alpha  occ. eigenvalues --   -0.39638  -0.39409  -0.39125  -0.38977  -0.38609
 Alpha  occ. eigenvalues --   -0.38504  -0.37766  -0.37663  -0.37592  -0.37281
 Alpha  occ. eigenvalues --   -0.37083  -0.36467  -0.35763  -0.35589  -0.34900
 Alpha  occ. eigenvalues --   -0.33959  -0.33141  -0.33069  -0.32717  -0.32083
 Alpha  occ. eigenvalues --   -0.30699  -0.30342  -0.28897  -0.28755  -0.27706
 Alpha  occ. eigenvalues --   -0.26794  -0.26716  -0.26036  -0.25925  -0.25088
 Alpha  occ. eigenvalues --   -0.24529  -0.24212  -0.23124  -0.23031  -0.19322
 Alpha virt. eigenvalues --   -0.11174  -0.05263  -0.05094  -0.02447  -0.01294
 Alpha virt. eigenvalues --   -0.00177   0.00134   0.00485   0.00914   0.01943
 Alpha virt. eigenvalues --    0.03000   0.03818   0.03829   0.05800   0.06119

 Mulliken charges:
               1
     1  O   -0.203981
     2  O   -0.193181
     3  O   -0.267330
     4  O   -0.224477
     5  O   -0.291471
     6  O   -0.251164
     7  N   -0.003759
     8  N   -0.311645
     9  N   -0.157164
    10  N   -0.224089
    11  C    0.156438
    12  C    0.137468
    13  C   -0.112436
    14  C   -0.133659
    15  C   -0.105552
    16  C    0.024836
    17  C   -0.218866
    18  C    0.047212
    19  C   -0.047780
    20  C   -0.101198
    21  C    0.139307
    22  C    0.186107
    23  C   -0.065449
    24  C    0.076623
    25  C    0.247216
    26  C   -0.150964
    27  C    0.228886
    28  C    0.030596
    29  C    0.072852
    30  C   -0.017823
    31  C    0.052104
    32  C    0.178089
    33  C   -0.102968
    34  C    0.112861
    35  C    0.118103
    36  C    0.007717
    37  C    0.165628
    38  C    0.049519
    39  C   -0.214426
    40  C    0.121236
    41  C   -0.026134
    42  C    0.054551
    43  C    0.030605
    44  H    0.003656
    45  H    0.002823
    46  H    0.033661
    47  H    0.152732
    48  H    0.152515
    49  H    0.026103
    50  H   -0.010161
    51  H   -0.023577
    52  H   -0.008426
    53  H    0.029540
    54  H    0.041652
    55  H   -0.028895
    56  H   -0.034340
    57  H    0.004673
    58  H   -0.011244
    59  H   -0.067700
    60  H    0.228131
    61  H    0.013986
    62  H   -0.012212
    63  H    0.045169
    64  H    0.002470
    65  H    0.067692
    66  H    0.003624
    67  H    0.025034
    68  H    0.015866
    69  H   -0.015228
    70  H   -0.017851
    71  H    0.033327
    72  H    0.173479
    73  H    0.000762
    74  H    0.035935
    75  H    0.061846
    76  H   -0.002303
    77  H    0.249807
    78  H    0.020942
    79  H   -0.005929
 Sum of Mulliken charges =   0.00000

 Dipole moment (field-independent basis, Debye):
    X=              1.8700    Y=              4.8597    Z=              3.8737  Tot=              6.4899
 Quadrupole moment (field-independent basis, Debye-Ang):
   XX=           -220.8336   YY=           -242.0675   ZZ=           -262.4219
   XY=            -13.6572   XZ=             31.4427   YZ=              3.1356

 Normal termination of Gaussian 09 at Sun Jul  7 19:54:36 2019.
