 Gaussian 09, Revision D.01,
 Gaussian 09:  ES64L-G09RevD.01 24-Apr-2013

 --------------------------
 # td=(NStates=1) B3LYP/SVP
 --------------------------

 --
 TD
 --
 Symbolic Z-matrix:
 Charge =  0 Multiplicity = 1

                         Standard orientation:
 ---------------------------------------------------------------------
 Center     Atomic      Atomic             Coordinates (Angstroms)
 Number     Number       Type             X           Y           Z
 ---------------------------------------------------------------------
      1          8           0        5.378428   -0.202284   -3.318244
      2          8           0       -3.108690   -2.920483    3.302028
      3          8           0       -3.345990   -0.786634    3.234117
      4          8           0       -1.503694    7.396734    1.315073
      5          8           0       -0.759092    7.134923   -0.797313
      6          8           0       -1.942898   -4.104377   -0.043020
      7          7           0        2.281643    0.860431    0.611202
      8          7           0        4.440088   -0.639861   -1.223868
      9          7           0       -1.874564    0.687285   -0.351825
     10          7           0       -2.595254   -1.915746   -0.457315
     11          6           0        4.838654   -1.211098    0.012614
     12          6           0        4.439036   -0.335181    1.245770
     13          6           0        2.907788   -0.094970    1.493610
     14          6           0        2.018535   -0.762831    2.277253
     15          6           0        0.780747   -0.070067    1.916326
     16          6           0        0.960035    0.962303    0.930710
     17          6           0        6.324011   -1.337794   -0.234970
     18          6           0       -0.514111   -0.292003    2.650814
     19          6           0        6.637533   -1.007769   -1.454237
     20          6           0        0.122598    1.939906    0.282797
     21          6           0       -1.101794    1.791188   -0.150812
     22          6           0        5.482315   -0.511714   -2.180306
     23          6           0       -1.951918    2.902291   -0.827961
     24          6           0        2.213483   -1.766764    3.293544
     25          6           0        7.305495   -1.773830    0.846336
     26          6           0       -3.139852    2.318732   -1.333839
     27          6           0       -1.087700   -1.696736    2.644623
     28          6           0       -2.984961    0.848626   -0.888306
     29          6           0       -1.607641    4.366989   -0.867917
     30          6           0        7.921116   -0.834340   -2.139073
     31          6           0       -1.663050    5.199983    0.480058
     32          6           0       -4.248233    3.079345   -1.919172
     33          6           0       -4.002966   -0.051219   -1.232447
     34          6           0       -2.577231   -1.760783    3.133490
     35          6           0       -3.800038   -1.426532   -1.012780
     36          6           0        9.161565   -0.691690   -1.575689
     37          6           0       -1.230495    6.698279    0.269143
     38          6           0       -4.593625   -2.596025   -1.463648
     39          6           0       -4.066768   -3.745516   -1.200534
     40          6           0       -2.686425   -3.257367   -0.496532
     41          6           0       -5.967906   -2.417802   -2.221272
     42          6           0       -4.286825   -5.186716   -1.449783
     43          6           0       -6.710860   -3.408613   -2.770492
     44          1           0        4.548195   -2.258260    0.154862
     45          1           0        5.096372    0.622913    1.117225
     46          1           0        4.859861   -0.897353    2.053341
     47          1           0        2.790641    1.514689    0.138541
     48          1           0        3.484461   -0.847831   -1.763277
     49          1           0       -0.416374    0.103218    3.840394
     50          1           0       -1.360498    0.318003    2.194176
     51          1           0        0.657544    2.952659    0.050246
     52          1           0        3.358066   -1.849586    3.430022
     53          1           0        1.495338   -1.797267    4.086879
     54          1           0        1.864321   -2.791658    2.854594
     55          1           0        6.666099   -2.483292    1.450964
     56          1           0        7.691943   -0.949733    1.622039
     57          1           0        8.157739   -2.379100    0.649783
     58          1           0       -1.017319   -2.005664    1.512562
     59          1           0       -0.665680   -2.513661    3.302740
     60          1           0       -1.815970   -0.422264   -0.132511
     61          1           0       -1.962745    4.901685   -1.774878
     62          1           0       -0.486308    4.444214   -1.098079
     63          1           0        7.779246   -0.775519   -3.303106
     64          1           0       -1.052893    4.663080    1.168557
     65          1           0       -2.707822    5.223495    0.778071
     66          1           0       -4.153670    4.261216   -1.725451
     67          1           0       -5.172939    2.890317   -1.215515
     68          1           0       -4.427357    2.825661   -3.018006
     69          1           0       -4.740974    0.212647   -1.775302
     70          1           0        9.458149   -0.599079   -0.496482
     71          1           0       10.095546   -0.659993   -2.373280
     72          1           0       -4.136057   -2.775494    3.623408
     73          1           0       -6.382678   -1.413086   -2.135591
     74          1           0       -4.226172   -5.560543   -2.382691
     75          1           0       -3.586532   -5.721160   -0.883174
     76          1           0       -5.328046   -5.269731   -1.107477
     77          1           0       -1.070042    8.364636    1.337664
     78          1           0       -7.618214   -3.085160   -3.236104
     79          1           0       -6.526197   -4.552486   -2.877535
 ---------------------------------------------------------------------

 SCF Done:  E(RB3LYP) =  -1947.84953915     A.U. after   16 cycles

 Excitation energies and oscillator strengths:

 Excited State   1:      Singlet-A      2.3933 eV  518.04 nm  f=0.3645  <S**2>=0.000
     154 ->156        -0.11449
     155 ->156         0.68927
 This state for optimization and/or second-order correction.
 Total Energy, E(TD-HF/TD-KS) =  -1947.76158561
 Copying the excited state density for this state as the 1-particle RhoCI density.

 The electronic state is 1-A.
 Alpha  occ. eigenvalues --  -19.21064 -19.17783 -19.12856 -19.10917 -19.09610
 Alpha  occ. eigenvalues --  -19.09175 -14.37467 -14.37233 -14.34803 -14.29879
 Alpha  occ. eigenvalues --  -10.33377 -10.30220 -10.27901 -10.25698 -10.25416
 Alpha  occ. eigenvalues --  -10.24986 -10.24613 -10.24200 -10.23304 -10.23119
 Alpha  occ. eigenvalues --  -10.22595 -10.22269 -10.22172 -10.21973 -10.21734
 Alpha  occ. eigenvalues --  -10.21625 -10.21589 -10.21355 -10.21184 -10.21135
 Alpha  occ. eigenvalues --  -10.20799 -10.20648 -10.20408 -10.20351 -10.20217
 Alpha  occ. eigenvalues --  -10.19494 -10.19465 -10.19453 -10.19207 -10.18899
 Alpha  occ. eigenvalues --  -10.18623 -10.18156 -10.17274  -1.11497  -1.09135
 Alpha  occ. eigenvalues --   -1.04499  -1.01684  -1.00578  -0.99947  -0.97561
 Alpha  occ. eigenvalues --   -0.96094  -0.94541  -0.91293  -0.83124  -0.81783
 Alpha  occ. eigenvalues --   -0.81734  -0.81388  -0.79782  -0.78916  -0.77501
 Alpha  occ. eigenvalues --   -0.77096  -0.76429  -0.74603  -0.74291  -0.72424
 Alpha  occ. eigenvalues --   -0.71392  -0.70942  -0.70412  -0.69510  -0.67878
 Alpha  occ. eigenvalues --   -0.66739  -0.65847  -0.63833  -0.62615  -0.60705
 Alpha  occ. eigenvalues --   -0.59845  -0.58719  -0.58168  -0.57473  -0.56929
 Alpha  occ. eigenvalues --   -0.55956  -0.55609  -0.54161  -0.53696  -0.52696
 Alpha  occ. eigenvalues --   -0.51668  -0.51390  -0.50877  -0.50512  -0.49815
 Alpha  occ. eigenvalues --   -0.49330  -0.48495  -0.47721  -0.47304  -0.47105
 Alpha  occ. eigenvalues --   -0.46936  -0.46442  -0.46038  -0.45968  -0.45579
 Alpha  occ. eigenvalues --   -0.45229  -0.44655  -0.44285  -0.43788  -0.43587
 Alpha  occ. eigenvalues --   -0.43541  -0.43224  -0.43018  -0.42869  -0.42731
 Alpha  occ. eigenvalues --   -0.42217  -0.42091  -0.41640  -0.41484  -0.40982
 Alpha  occ. eigenvalues --   -0.40789  -0.40601  -0.40486  -0.40112  -0.39622
 Alpha  occ. eigenvalues --   -0.39226  -0.39038  -0.38733  -0.38586  -0.38514
 Alpha  occ. eigenvalues --   -0.38082  -0.38011  -0.37800  -0.36991  -0.36626
 Alpha  occ. eigenvalues --   -0.36006  -0.35239  -0.34300  -0.33991  -0.33866
 Alpha  occ. eigenvalues --   -0.33218  -0.32891  -0.32763  -0.32254  -0.31419
 Alpha  occ. eigenvalues --   -0.31090  -0.29433  -0.28500  -0.28357  -0.27918
 Alpha  occ. eigenvalues --   -0.27132  -0.25779  -0.25617  -0.25346  -0.24583
 Alpha  occ. eigenvalues --   -0.24333  -0.23736  -0.22721  -0.22576  -0.19881
 Alpha virt. eigenvalues --   -0.10074  -0.05556  -0.04812  -0.00740  -0.00391
 Alpha virt. eigenvalues --    0.00350   0.00852   0.01346   0.01711   0.02515
 Alpha virt. eigenvalues --    0.03015   0.03035   0.03568   0.04866   0.05314

 Mulliken charges:
               1
     1  O   -0.176481
     2  O   -0.178287
     3  O   -0.299573
     4  O   -0.171316
     5  O   -0.260879
     6  O   -0.218966
     7  N   -0.063392
     8  N   -0.262554
     9  N    0.011705
    10  N   -0.320283
    11  C    0.113590
    12  C    0.159426
    13  C   -0.074482
    14  C   -0.065514
    15  C   -0.133312
    16  C    0.088196
    17  C   -0.192750
    18  C   -0.005879
    19  C   -0.030273
    20  C   -0.132966
    21  C    0.162588
    22  C    0.132428
    23  C   -0.082488
    24  C    0.119787
    25  C    0.045391
    26  C   -0.123773
    27  C   -0.056785
    28  C    0.042363
    29  C    0.011535
    30  C   -0.018684
    31  C    0.024193
    32  C    0.004865
    33  C   -0.005795
    34  C    0.124311
    35  C    0.125018
    36  C   -0.091259
    37  C    0.134415
    38  C    0.019123
    39  C   -0.231299
    40  C    0.117448
    41  C   -0.001023
    42  C    0.173889
    43  C   -0.050727
    44  H    0.019750
    45  H    0.009762
    46  H   -0.027479
    47  H    0.082536
    48  H    0.160238
    49  H    0.026212
    50  H    0.025374
    51  H    0.026422
    52  H    0.026497
    53  H    0.008688
    54  H    0.032469
    55  H    0.008518
    56  H    0.053571
    57  H    0.024617
    58  H    0.103075
    59  H    0.026452
    60  H    0.207018
    61  H    0.029476
    62  H    0.010714
    63  H    0.047306
    64  H    0.033149
    65  H    0.035191
    66  H    0.044363
    67  H    0.046916
    68  H    0.057867
    69  H   -0.126861
    70  H    0.037707
    71  H    0.047764
    72  H    0.235766
    73  H   -0.000846
    74  H    0.004563
    75  H    0.007902
    76  H    0.023220
    77  H    0.237464
    78  H    0.012032
    79  H    0.041053
 Sum of Mulliken charges =   0.00000

 Dipole moment (field-independent basis, Debye):
    X=              0.5711    Y=              3.1362    Z=              3.7211  Tot=              4.8999
 Quadrupole moment (field-independent basis, Debye-Ang):
   XX=           -225.5576   YY=           -234.9897   ZZ=           -262.6485
   XY=             -9.2490   XZ=             30.5333   YZ=             10.3430

 Normal termination of Gaussian 09 at Wed Jul 10 17:05:50 2019.
