 Gaussian 09, Revision D.01,
 Gaussian 09:  ES64L-G09RevD.01 24-Apr-2013

 --------------------------
 # td=(NStates=1) B3LYP/SVP
 --------------------------

 --
 TD
 --
 Symbolic Z-matrix:
 Charge =  0 Multiplicity = 1

                         Standard orientation:
 ---------------------------------------------------------------------
 Center     Atomic      Atomic             Coordinates (Angstroms)
 Number     Number       Type             X           Y           Z
 ---------------------------------------------------------------------
      1          8           0        5.471677   -0.151955   -3.328171
      2          8           0       -3.146752   -3.157035    2.973779
      3          8           0       -3.214950   -0.848490    3.274777
      4          8           0       -1.643732    7.404439    1.507240
      5          8           0       -0.272028    6.975865   -0.308830
      6          8           0       -2.067712   -4.035172   -0.084684
      7          7           0        2.417080    0.823177    0.586577
      8          7           0        4.471874   -0.580927   -1.272691
      9          7           0       -1.836885    0.720971   -0.326435
     10          7           0       -2.735649   -1.878945   -0.637708
     11          6           0        4.853185   -1.223423   -0.049562
     12          6           0        4.429499   -0.355853    1.198016
     13          6           0        3.017577   -0.203149    1.350755
     14          6           0        2.009860   -0.824131    2.115648
     15          6           0        0.807185   -0.175950    1.806552
     16          6           0        1.065390    0.864355    0.793547
     17          6           0        6.507084   -1.380858   -0.211895
     18          6           0       -0.486752   -0.377400    2.514297
     19          6           0        6.748403   -0.913503   -1.393041
     20          6           0        0.284673    1.859176    0.266496
     21          6           0       -1.087076    1.837220   -0.147869
     22          6           0        5.493219   -0.423403   -2.162784
     23          6           0       -1.831139    2.861904   -0.836329
     24          6           0        2.071059   -1.959870    3.092432
     25          6           0        7.207042   -2.077159    0.883714
     26          6           0       -3.007940    2.417374   -1.325354
     27          6           0       -1.193882   -1.832815    2.265423
     28          6           0       -3.024373    1.024963   -0.966774
     29          6           0       -1.436566    4.334214   -0.713723
     30          6           0        8.084359   -0.891894   -1.969624
     31          6           0       -1.628482    5.119563    0.629597
     32          6           0       -4.185179    3.079865   -1.973807
     33          6           0       -3.926263    0.118174   -1.462913
     34          6           0       -2.541540   -1.910786    2.978620
     35          6           0       -3.853772   -1.334712   -1.171461
     36          6           0        9.301982   -0.799368   -1.439606
     37          6           0       -1.185425    6.624337    0.471967
     38          6           0       -4.795176   -2.348941   -1.480451
     39          6           0       -4.246564   -3.507822   -1.083644
     40          6           0       -2.927852   -3.208778   -0.554250
     41          6           0       -6.141864   -2.058262   -2.038563
     42          6           0       -4.854010   -4.952776   -1.071395
     43          6           0       -6.948045   -3.025780   -2.578913
     44          1           0        4.340197   -2.186649    0.049002
     45          1           0        5.150196    0.481235    1.276743
     46          1           0        4.653030   -1.016798    2.116121
     47          1           0        3.049004    1.279920   -0.029870
     48          1           0        3.547851   -0.717985   -1.717220
     49          1           0       -0.402667   -0.454178    3.553938
     50          1           0       -1.100334    0.437817    2.008599
     51          1           0        0.812855    2.819599   -0.112349
     52          1           0        3.083541   -2.298790    3.495752
     53          1           0        1.382248   -1.699623    3.990127
     54          1           0        1.527315   -2.893037    2.835558
     55          1           0        6.554102   -2.628521    1.496736
     56          1           0        7.693522   -1.344808    1.528583
     57          1           0        8.144595   -2.638520    0.435054
     58          1           0       -1.461667   -1.906624    1.119903
     59          1           0       -0.554362   -2.670457    2.628593
     60          1           0       -1.760446   -0.311958   -0.181856
     61          1           0       -1.795658    5.035997   -1.472943
     62          1           0       -0.256097    4.474624   -0.662197
     63          1           0        8.186505   -0.734581   -2.994000
     64          1           0       -0.825633    4.735894    1.352072
     65          1           0       -2.569594    4.951497    0.993586
     66          1           0       -3.942379    4.063882   -2.191846
     67          1           0       -5.098323    3.104188   -1.439154
     68          1           0       -4.318172    2.588955   -2.935425
     69          1           0       -4.877999    0.597286   -1.722058
     70          1           0        9.600709   -0.742889   -0.289629
     71          1           0       10.222864   -1.053965   -2.115452
     72          1           0       -3.956343   -3.004045    3.266856
     73          1           0       -6.386695   -1.028316   -1.986362
     74          1           0       -5.007128   -5.389773   -2.197887
     75          1           0       -4.139198   -5.433373   -0.529711
     76          1           0       -5.958633   -5.065549   -0.737672
     77          1           0       -1.419967    8.256827    1.441761
     78          1           0       -7.972484   -2.675133   -2.805729
     79          1           0       -6.843414   -4.150382   -2.599354
 ---------------------------------------------------------------------

 SCF Done:  E(RB3LYP) =  -1947.88689023     A.U. after   20 cycles

 Excitation energies and oscillator strengths:

 Excited State   1:      Singlet-A      1.9066 eV  650.30 nm  f=0.4523  <S**2>=0.000
     154 ->156         0.16703
     155 ->156         0.68715
     155 <-156        -0.14790
 This state for optimization and/or second-order correction.
 Total Energy, E(TD-HF/TD-KS) =  -1947.81682553
 Copying the excited state density for this state as the 1-particle RhoCI density.

 The electronic state is 1-A.
 Alpha  occ. eigenvalues --  -19.18964 -19.16862 -19.14065 -19.11529 -19.11258
 Alpha  occ. eigenvalues --  -19.09528 -14.38776 -14.36679 -14.36645 -14.28741
 Alpha  occ. eigenvalues --  -10.34229 -10.31579 -10.29706 -10.25773 -10.25495
 Alpha  occ. eigenvalues --  -10.24935 -10.24223 -10.24153 -10.23688 -10.23485
 Alpha  occ. eigenvalues --  -10.23008 -10.22464 -10.22393 -10.21887 -10.21725
 Alpha  occ. eigenvalues --  -10.21385 -10.21364 -10.21275 -10.21068 -10.20520
 Alpha  occ. eigenvalues --  -10.20452 -10.20442 -10.20399 -10.20241 -10.20189
 Alpha  occ. eigenvalues --  -10.19976 -10.19694 -10.19659 -10.19609 -10.19548
 Alpha  occ. eigenvalues --  -10.19444 -10.19100 -10.18826  -1.10257  -1.08201
 Alpha  occ. eigenvalues --   -1.04640  -1.00793  -0.99280  -0.98929  -0.98523
 Alpha  occ. eigenvalues --   -0.96402  -0.95453  -0.92188  -0.83400  -0.82750
 Alpha  occ. eigenvalues --   -0.82501  -0.82144  -0.80518  -0.79692  -0.77976
 Alpha  occ. eigenvalues --   -0.77318  -0.76025  -0.75683  -0.74178  -0.72840
 Alpha  occ. eigenvalues --   -0.72506  -0.71594  -0.70198  -0.69248  -0.68861
 Alpha  occ. eigenvalues --   -0.68079  -0.66628  -0.64457  -0.62260  -0.61248
 Alpha  occ. eigenvalues --   -0.60672  -0.59845  -0.59271  -0.59060  -0.57328
 Alpha  occ. eigenvalues --   -0.56404  -0.56145  -0.55737  -0.54327  -0.53300
 Alpha  occ. eigenvalues --   -0.52806  -0.51961  -0.51578  -0.50814  -0.50089
 Alpha  occ. eigenvalues --   -0.48797  -0.48615  -0.48353  -0.48095  -0.47340
 Alpha  occ. eigenvalues --   -0.47205  -0.46738  -0.46565  -0.45878  -0.45693
 Alpha  occ. eigenvalues --   -0.45539  -0.45301  -0.44898  -0.44551  -0.44084
 Alpha  occ. eigenvalues --   -0.43589  -0.43456  -0.43409  -0.43110  -0.42789
 Alpha  occ. eigenvalues --   -0.42657  -0.42505  -0.42343  -0.41962  -0.41704
 Alpha  occ. eigenvalues --   -0.41172  -0.40926  -0.40451  -0.40030  -0.39849
 Alpha  occ. eigenvalues --   -0.39699  -0.39153  -0.39057  -0.38668  -0.38123
 Alpha  occ. eigenvalues --   -0.37705  -0.37351  -0.37222  -0.37166  -0.36692
 Alpha  occ. eigenvalues --   -0.36509  -0.35421  -0.35115  -0.34710  -0.34337
 Alpha  occ. eigenvalues --   -0.34162  -0.33332  -0.33219  -0.32919  -0.32262
 Alpha  occ. eigenvalues --   -0.30907  -0.30052  -0.29090  -0.28612  -0.27941
 Alpha  occ. eigenvalues --   -0.27021  -0.26927  -0.26277  -0.26044  -0.25480
 Alpha  occ. eigenvalues --   -0.25158  -0.24532  -0.23638  -0.22318  -0.18639
 Alpha virt. eigenvalues --   -0.11595  -0.07132  -0.05029  -0.02823  -0.01184
 Alpha virt. eigenvalues --   -0.01100   0.00280   0.00553   0.02505   0.02960
 Alpha virt. eigenvalues --    0.03521   0.04816   0.05154   0.05294   0.05467

 Mulliken charges:
               1
     1  O   -0.180133
     2  O   -0.123598
     3  O   -0.311850
     4  O   -0.141264
     5  O   -0.252637
     6  O   -0.271361
     7  N   -0.069382
     8  N   -0.187055
     9  N   -0.083646
    10  N   -0.282256
    11  C    0.035098
    12  C    0.125224
    13  C   -0.085523
    14  C   -0.040153
    15  C   -0.110039
    16  C    0.133616
    17  C   -0.133904
    18  C    0.122155
    19  C   -0.060682
    20  C   -0.119630
    21  C    0.079483
    22  C    0.154344
    23  C   -0.047293
    24  C    0.035159
    25  C    0.123367
    26  C   -0.128856
    27  C   -0.078721
    28  C    0.053650
    29  C   -0.022445
    30  C    0.014452
    31  C    0.033908
    32  C    0.192379
    33  C   -0.077924
    34  C    0.166753
    35  C    0.061602
    36  C   -0.118867
    37  C    0.151479
    38  C    0.035917
    39  C   -0.177592
    40  C    0.142748
    41  C    0.013979
    42  C    0.064760
    43  C   -0.032384
    44  H    0.016788
    45  H    0.014473
    46  H    0.002837
    47  H    0.106540
    48  H    0.144074
    49  H   -0.006160
    50  H    0.027653
    51  H    0.020991
    52  H    0.022698
    53  H    0.017075
    54  H    0.043088
    55  H    0.014359
    56  H    0.028032
    57  H    0.051905
    58  H    0.130220
    59  H    0.029740
    60  H    0.154683
    61  H    0.023722
    62  H    0.029229
    63  H   -0.006499
    64  H    0.056188
    65  H    0.006440
    66  H   -0.025215
    67  H    0.026885
    68  H    0.024623
    69  H   -0.010290
    70  H    0.026868
    71  H    0.046192
    72  H    0.122271
    73  H   -0.024841
    74  H    0.040118
    75  H    0.011217
    76  H    0.035147
    77  H    0.139023
    78  H    0.020296
    79  H    0.036750
 Sum of Mulliken charges =   0.00000

 Dipole moment (field-independent basis, Debye):
    X=              1.2519    Y=              2.7990    Z=              3.2185  Tot=              4.4452
 Quadrupole moment (field-independent basis, Debye-Ang):
   XX=           -217.0473   YY=           -246.5583   ZZ=           -266.3121
   XY=            -20.4054   XZ=             33.2814   YZ=              0.5008

 Normal termination of Gaussian 09 at Tue Jul  9 01:55:50 2019.
