 Gaussian 09, Revision D.01,
 Gaussian 09:  ES64L-G09RevD.01 24-Apr-2013

 --------------------------
 # td=(NStates=1) B3LYP/SVP
 --------------------------

 --
 TD
 --
 Symbolic Z-matrix:
 Charge =  0 Multiplicity = 1

                         Standard orientation:
 ---------------------------------------------------------------------
 Center     Atomic      Atomic             Coordinates (Angstroms)
 Number     Number       Type             X           Y           Z
 ---------------------------------------------------------------------
      1          8           0        5.259996   -0.094776   -3.281244
      2          8           0       -2.610509   -3.440381    3.409173
      3          8           0       -3.299176   -1.357035    3.142941
      4          8           0       -1.781666    7.145162    1.596084
      5          8           0       -0.809012    7.161588   -0.334618
      6          8           0       -1.851651   -4.016057   -0.087919
      7          7           0        2.356899    0.879722    0.590391
      8          7           0        4.399185   -0.494320   -1.169733
      9          7           0       -1.957230    0.710143   -0.235633
     10          7           0       -2.661039   -1.856629   -0.550911
     11          6           0        4.850210   -1.088333   -0.002907
     12          6           0        4.489799   -0.212784    1.210359
     13          6           0        2.938799    0.021354    1.371722
     14          6           0        2.067585   -0.721450    2.135986
     15          6           0        0.788792   -0.127524    1.857458
     16          6           0        0.962720    0.801375    0.863142
     17          6           0        6.295735   -1.107876   -0.302253
     18          6           0       -0.507748   -0.428582    2.585317
     19          6           0        6.632466   -0.779377   -1.521718
     20          6           0        0.101161    1.876207    0.255876
     21          6           0       -1.222073    1.823261   -0.160241
     22          6           0        5.405315   -0.410290   -2.145449
     23          6           0       -2.007818    2.978339   -0.766460
     24          6           0        2.380433   -1.721337    3.087724
     25          6           0        7.199105   -1.832178    0.762299
     26          6           0       -3.215223    2.473805   -1.230883
     27          6           0       -0.939213   -1.913245    2.481558
     28          6           0       -3.101704    0.974818   -0.905048
     29          6           0       -1.467820    4.352480   -0.768912
     30          6           0        7.844565   -0.663453   -2.172228
     31          6           0       -1.778791    5.119719    0.475025
     32          6           0       -4.252036    3.137755   -1.950326
     33          6           0       -3.978890   -0.015550   -1.264442
     34          6           0       -2.393247   -2.144211    2.991197
     35          6           0       -3.750666   -1.347582   -1.082625
     36          6           0        9.135855   -0.774048   -1.692509
     37          6           0       -1.370396    6.524291    0.515057
     38          6           0       -4.649760   -2.402656   -1.575735
     39          6           0       -4.002743   -3.687831   -1.248423
     40          6           0       -2.659688   -3.222207   -0.598873
     41          6           0       -5.900652   -2.296725   -2.076153
     42          6           0       -4.369571   -5.063109   -1.538290
     43          6           0       -6.828091   -3.161246   -2.589643
     44          1           0        4.403644   -2.033656    0.336425
     45          1           0        5.049830    0.709307    1.244538
     46          1           0        4.789947   -0.791588    2.100891
     47          1           0        3.084700    1.403509   -0.080930
     48          1           0        3.334647   -0.523818   -1.375360
     49          1           0       -0.301977   -0.321251    3.618845
     50          1           0       -1.280609    0.287775    2.183047
     51          1           0        0.579291    2.852945   -0.036042
     52          1           0        3.419397   -1.820663    3.364410
     53          1           0        2.019729   -1.340832    4.272433
     54          1           0        1.859375   -2.730012    2.961096
     55          1           0        6.757443   -2.581984    1.309800
     56          1           0        7.534496   -1.053888    1.449473
     57          1           0        8.022052   -2.134410    0.157208
     58          1           0       -0.932435   -2.178408    1.459788
     59          1           0       -0.063973   -2.544402    3.084963
     60          1           0       -1.732235   -0.189129    0.161025
     61          1           0       -2.109347    4.881480   -1.478829
     62          1           0       -0.286896    4.394118   -1.098045
     63          1           0        7.959974   -0.396984   -3.163799
     64          1           0       -1.213436    4.761990    1.377426
     65          1           0       -2.772327    5.039677    0.592598
     66          1           0       -3.875951    4.193566   -2.150889
     67          1           0       -5.090985    3.278405   -1.271404
     68          1           0       -4.478285    2.584228   -2.955698
     69          1           0       -5.002616    0.271899   -1.665623
     70          1           0        9.253886   -0.617048   -0.739631
     71          1           0        9.849092   -0.655905   -2.364771
     72          1           0       -3.523298   -3.592545    3.706252
     73          1           0       -6.308983   -1.278887   -2.133122
     74          1           0       -4.510704   -5.231076   -2.721533
     75          1           0       -3.461428   -5.744728   -1.340981
     76          1           0       -5.337514   -5.160483   -1.137534
     77          1           0       -1.303268    7.984060    1.585053
     78          1           0       -8.098595   -3.028180   -2.798499
     79          1           0       -6.639669   -4.324374   -2.444339
 ---------------------------------------------------------------------

 SCF Done:  E(RB3LYP) =  -1947.84239899     A.U. after   17 cycles

 Excitation energies and oscillator strengths:

 Excited State   1:      Singlet-A      2.0426 eV  607.00 nm  f=0.1423  <S**2>=0.000
     154 ->156         0.54299
     155 ->156        -0.44469
 This state for optimization and/or second-order correction.
 Total Energy, E(TD-HF/TD-KS) =  -1947.76733533
 Copying the excited state density for this state as the 1-particle RhoCI density.

 The electronic state is 1-A.
 Alpha  occ. eigenvalues --  -19.18875 -19.15422 -19.12771 -19.11419 -19.10307
 Alpha  occ. eigenvalues --  -19.10171 -14.39076 -14.37740 -14.35411 -14.28552
 Alpha  occ. eigenvalues --  -10.32214 -10.31089 -10.28225 -10.26452 -10.25801
 Alpha  occ. eigenvalues --  -10.24676 -10.24118 -10.23771 -10.22953 -10.22725
 Alpha  occ. eigenvalues --  -10.22615 -10.22470 -10.22452 -10.22408 -10.21935
 Alpha  occ. eigenvalues --  -10.21885 -10.21602 -10.21178 -10.21082 -10.20936
 Alpha  occ. eigenvalues --  -10.20412 -10.20310 -10.19856 -10.19686 -10.19665
 Alpha  occ. eigenvalues --  -10.19633 -10.19610 -10.19415 -10.19407 -10.19342
 Alpha  occ. eigenvalues --  -10.18949 -10.18386 -10.18054  -1.12624  -1.07054
 Alpha  occ. eigenvalues --   -1.04511  -1.01303  -1.00452  -0.99909  -0.99796
 Alpha  occ. eigenvalues --   -0.97964  -0.96389  -0.92332  -0.84939  -0.83909
 Alpha  occ. eigenvalues --   -0.82394  -0.81733  -0.80584  -0.80325  -0.79546
 Alpha  occ. eigenvalues --   -0.77621  -0.76639  -0.76303  -0.74757  -0.73975
 Alpha  occ. eigenvalues --   -0.72883  -0.71914  -0.70080  -0.69427  -0.68216
 Alpha  occ. eigenvalues --   -0.66910  -0.66028  -0.64331  -0.63302  -0.61449
 Alpha  occ. eigenvalues --   -0.60013  -0.59085  -0.58633  -0.58343  -0.58219
 Alpha  occ. eigenvalues --   -0.56208  -0.55639  -0.55466  -0.54907  -0.53918
 Alpha  occ. eigenvalues --   -0.53265  -0.52943  -0.52049  -0.51779  -0.51069
 Alpha  occ. eigenvalues --   -0.50288  -0.49594  -0.49011  -0.48520  -0.47676
 Alpha  occ. eigenvalues --   -0.47611  -0.47135  -0.46823  -0.46431  -0.46073
 Alpha  occ. eigenvalues --   -0.45457  -0.45205  -0.44797  -0.44629  -0.44408
 Alpha  occ. eigenvalues --   -0.43929  -0.43358  -0.43333  -0.43178  -0.43132
 Alpha  occ. eigenvalues --   -0.42857  -0.42410  -0.42263  -0.41972  -0.41816
 Alpha  occ. eigenvalues --   -0.41504  -0.41337  -0.40851  -0.40452  -0.40336
 Alpha  occ. eigenvalues --   -0.39928  -0.39378  -0.39206  -0.39083  -0.38513
 Alpha  occ. eigenvalues --   -0.38430  -0.38202  -0.37494  -0.37124  -0.36541
 Alpha  occ. eigenvalues --   -0.36442  -0.36137  -0.35914  -0.35742  -0.35009
 Alpha  occ. eigenvalues --   -0.34542  -0.33137  -0.33085  -0.32759  -0.31864
 Alpha  occ. eigenvalues --   -0.30991  -0.30359  -0.28812  -0.28693  -0.27281
 Alpha  occ. eigenvalues --   -0.26955  -0.26730  -0.26585  -0.25966  -0.25275
 Alpha  occ. eigenvalues --   -0.24376  -0.23597  -0.23260  -0.20714  -0.19551
 Alpha virt. eigenvalues --   -0.10988  -0.06847  -0.06557  -0.00995   0.00211
 Alpha virt. eigenvalues --    0.00236   0.01193   0.01577   0.02472   0.02659
 Alpha virt. eigenvalues --    0.02912   0.03423   0.04455   0.05112   0.05350

 Mulliken charges:
               1
     1  O   -0.174350
     2  O   -0.213084
     3  O   -0.226153
     4  O   -0.147983
     5  O   -0.224296
     6  O   -0.235649
     7  N   -0.089729
     8  N   -0.238994
     9  N    0.007387
    10  N   -0.244350
    11  C    0.101531
    12  C    0.175305
    13  C   -0.156734
    14  C   -0.063949
    15  C   -0.088284
    16  C    0.044304
    17  C   -0.212673
    18  C    0.123717
    19  C    0.105310
    20  C   -0.069587
    21  C    0.035549
    22  C    0.116350
    23  C   -0.086821
    24  C   -0.007086
    25  C    0.153502
    26  C   -0.117901
    27  C   -0.048029
    28  C    0.110141
    29  C    0.053921
    30  C   -0.106403
    31  C    0.086270
    32  C    0.087078
    33  C   -0.171835
    34  C    0.159533
    35  C    0.129419
    36  C    0.099305
    37  C    0.073702
    38  C    0.089851
    39  C   -0.203001
    40  C    0.157855
    41  C   -0.055921
    42  C    0.052890
    43  C   -0.153569
    44  H    0.014297
    45  H   -0.020975
    46  H   -0.016808
    47  H    0.176847
    48  H    0.154101
    49  H   -0.008378
    50  H    0.020465
    51  H   -0.009160
    52  H   -0.004360
    53  H    0.016261
    54  H    0.062589
    55  H    0.005209
    56  H    0.021544
    57  H    0.013591
    58  H    0.053975
    59  H    0.056861
    60  H    0.143561
    61  H   -0.004060
    62  H    0.061329
    63  H   -0.022930
    64  H    0.041199
    65  H   -0.000183
    66  H    0.015803
    67  H    0.036364
    68  H    0.065221
    69  H   -0.007289
    70  H   -0.032425
    71  H   -0.010576
    72  H    0.178939
    73  H   -0.017838
    74  H    0.048035
    75  H    0.052889
    76  H    0.038371
    77  H    0.175761
    78  H    0.060432
    79  H    0.014795
 Sum of Mulliken charges =   0.00000

 Dipole moment (field-independent basis, Debye):
    X=              1.8091    Y=              3.6671    Z=              3.2409  Tot=              5.2176
 Quadrupole moment (field-independent basis, Debye-Ang):
   XX=           -222.4977   YY=           -251.9302   ZZ=           -265.8327
   XY=            -10.3406   XZ=             25.9071   YZ=              3.9444

 Normal termination of Gaussian 09 at Mon Jul  8 16:30:07 2019.
