 Gaussian 09, Revision D.01,
 Gaussian 09:  ES64L-G09RevD.01 24-Apr-2013

 --------------------------
 # td=(NStates=1) B3LYP/SVP
 --------------------------

 --
 TD
 --
 Symbolic Z-matrix:
 Charge =  0 Multiplicity = 1

                         Standard orientation:
 ---------------------------------------------------------------------
 Center     Atomic      Atomic             Coordinates (Angstroms)
 Number     Number       Type             X           Y           Z
 ---------------------------------------------------------------------
      1          8           0        5.236876   -0.538157   -3.347740
      2          8           0       -2.789570   -3.012558    3.295562
      3          8           0       -3.162953   -0.757164    3.193125
      4          8           0       -0.918400    6.846850    1.823377
      5          8           0       -0.428967    7.045175   -0.518709
      6          8           0       -2.133872   -3.932591   -0.172457
      7          7           0        2.417237    0.879144    0.400788
      8          7           0        4.527850   -0.773676   -1.218972
      9          7           0       -1.974307    0.617574   -0.412638
     10          7           0       -2.833638   -1.772300   -0.522488
     11          6           0        4.907527   -1.301665    0.108322
     12          6           0        4.537961   -0.218732    1.213249
     13          6           0        3.070710    0.112150    1.236638
     14          6           0        2.148124   -0.531002    2.065043
     15          6           0        0.825868   -0.111176    1.662112
     16          6           0        1.027149    0.889587    0.600377
     17          6           0        6.416836   -1.403668   -0.117809
     18          6           0       -0.500363   -0.300289    2.338065
     19          6           0        6.709131   -1.061753   -1.399826
     20          6           0        0.169304    1.872307   -0.141794
     21          6           0       -1.189307    1.766911   -0.535330
     22          6           0        5.556621   -0.808622   -2.184724
     23          6           0       -1.927548    2.832379   -1.050041
     24          6           0        2.337767   -1.629206    3.143799
     25          6           0        7.331533   -1.818183    1.090156
     26          6           0       -3.231223    2.434431   -1.273418
     27          6           0       -1.020267   -1.660498    2.497115
     28          6           0       -3.186555    0.979519   -1.021306
     29          6           0       -1.431666    4.302934   -1.038406
     30          6           0        7.945920   -1.053098   -2.167066
     31          6           0       -1.480180    4.959425    0.391257
     32          6           0       -4.445039    3.192320   -1.703857
     33          6           0       -4.258377    0.111850   -1.198914
     34          6           0       -2.407863   -1.683541    3.003294
     35          6           0       -3.976936   -1.320421   -0.951286
     36          6           0        9.129886   -0.877560   -1.670917
     37          6           0       -0.910062    6.413011    0.442246
     38          6           0       -4.992302   -2.372213   -1.264386
     39          6           0       -4.413410   -3.607559   -1.012478
     40          6           0       -2.958904   -3.152000   -0.537243
     41          6           0       -6.295579   -2.132729   -1.672111
     42          6           0       -4.796998   -4.891473   -1.107668
     43          6           0       -6.969768   -2.938258   -2.407380
     44          1           0        4.456813   -2.364375    0.253457
     45          1           0        5.107091    0.522160    1.035770
     46          1           0        4.994958   -0.502568    2.188055
     47          1           0        3.065243    1.446923   -0.248703
     48          1           0        3.543150   -0.893437   -1.634478
     49          1           0       -0.385088    0.238842    3.298516
     50          1           0       -1.284484    0.281898    1.944566
     51          1           0        0.535406    2.874485   -0.585745
     52          1           0        3.436047   -1.832104    3.411416
     53          1           0        1.789104   -1.214905    3.936398
     54          1           0        2.300138   -2.685595    3.004154
     55          1           0        6.622531   -2.383514    1.854355
     56          1           0        7.608403   -0.991393    1.712968
     57          1           0        8.352292   -2.416443    0.768910
     58          1           0       -1.006196   -2.186032    1.573226
     59          1           0       -0.273499   -2.307731    2.937333
     60          1           0       -1.858489   -0.394138   -0.431619
     61          1           0       -1.913488    4.967413   -1.688050
     62          1           0       -0.238536    4.263707   -1.394638
     63          1           0        7.650409   -1.423888   -3.226527
     64          1           0       -0.990697    4.356071    1.179351
     65          1           0       -2.519182    4.975672    0.816594
     66          1           0       -4.299898    4.252246   -1.843845
     67          1           0       -5.356634    2.674336   -1.011281
     68          1           0       -4.512762    2.908042   -2.835712
     69          1           0       -5.394143    0.559993   -1.541092
     70          1           0        9.580151   -0.620150   -0.646302
     71          1           0        9.991457   -0.982634   -2.337103
     72          1           0       -3.663388   -2.818199    3.566381
     73          1           0       -6.754610   -1.095921   -1.029109
     74          1           0       -4.744904   -5.409257   -2.091864
     75          1           0       -4.356397   -5.719363   -0.427874
     76          1           0       -5.927665   -5.242195   -0.972644
     77          1           0       -0.667214    7.835728    1.859824
     78          1           0       -7.978372   -2.546421   -2.496591
     79          1           0       -6.624400   -3.953952   -2.824444
 ---------------------------------------------------------------------

 SCF Done:  E(RB3LYP) =  -1947.81043131     A.U. after   16 cycles

 Excitation energies and oscillator strengths:

 Excited State   1:      Singlet-A      2.1941 eV  565.07 nm  f=0.5436  <S**2>=0.000
     155 ->156         0.70406
     155 <-156        -0.11063
 This state for optimization and/or second-order correction.
 Total Energy, E(TD-HF/TD-KS) =  -1947.72979875
 Copying the excited state density for this state as the 1-particle RhoCI density.

 The electronic state is 1-A.
 Alpha  occ. eigenvalues --  -19.18668 -19.15734 -19.14839 -19.12581 -19.10702
 Alpha  occ. eigenvalues --  -19.10423 -14.39074 -14.35196 -14.34460 -14.29957
 Alpha  occ. eigenvalues --  -10.34097 -10.31071 -10.28204 -10.26983 -10.25954
 Alpha  occ. eigenvalues --  -10.24001 -10.23971 -10.23911 -10.23727 -10.23586
 Alpha  occ. eigenvalues --  -10.23584 -10.22732 -10.22601 -10.22507 -10.22388
 Alpha  occ. eigenvalues --  -10.22325 -10.21251 -10.20877 -10.20791 -10.20588
 Alpha  occ. eigenvalues --  -10.20524 -10.20303 -10.20053 -10.20010 -10.19902
 Alpha  occ. eigenvalues --  -10.19629 -10.19558 -10.19398 -10.19113 -10.19062
 Alpha  occ. eigenvalues --  -10.18873 -10.17833 -10.17744  -1.07765  -1.06252
 Alpha  occ. eigenvalues --   -1.03079  -1.02039  -0.99619  -0.99422  -0.99076
 Alpha  occ. eigenvalues --   -0.97240  -0.93376  -0.92986  -0.82710  -0.82210
 Alpha  occ. eigenvalues --   -0.82047  -0.81442  -0.80343  -0.79337  -0.77293
 Alpha  occ. eigenvalues --   -0.77220  -0.76896  -0.76310  -0.74412  -0.72596
 Alpha  occ. eigenvalues --   -0.71723  -0.70695  -0.70201  -0.68618  -0.67741
 Alpha  occ. eigenvalues --   -0.67150  -0.66034  -0.63736  -0.61126  -0.59912
 Alpha  occ. eigenvalues --   -0.58987  -0.58273  -0.58098  -0.57327  -0.56759
 Alpha  occ. eigenvalues --   -0.56202  -0.54993  -0.54591  -0.53246  -0.52953
 Alpha  occ. eigenvalues --   -0.51958  -0.51645  -0.50694  -0.49938  -0.49439
 Alpha  occ. eigenvalues --   -0.49325  -0.47986  -0.47638  -0.47414  -0.47257
 Alpha  occ. eigenvalues --   -0.46913  -0.46736  -0.46344  -0.46051  -0.45760
 Alpha  occ. eigenvalues --   -0.45167  -0.44798  -0.44282  -0.43987  -0.43783
 Alpha  occ. eigenvalues --   -0.43333  -0.42889  -0.42650  -0.42537  -0.42218
 Alpha  occ. eigenvalues --   -0.41867  -0.41584  -0.41475  -0.40940  -0.40881
 Alpha  occ. eigenvalues --   -0.40490  -0.40225  -0.39882  -0.39778  -0.39721
 Alpha  occ. eigenvalues --   -0.39369  -0.39181  -0.39063  -0.38971  -0.38641
 Alpha  occ. eigenvalues --   -0.38411  -0.38159  -0.37484  -0.36877  -0.36644
 Alpha  occ. eigenvalues --   -0.36517  -0.36431  -0.34760  -0.34497  -0.34093
 Alpha  occ. eigenvalues --   -0.33906  -0.32999  -0.32810  -0.31981  -0.31492
 Alpha  occ. eigenvalues --   -0.31092  -0.30857  -0.29393  -0.28914  -0.28399
 Alpha  occ. eigenvalues --   -0.27922  -0.26433  -0.25848  -0.25532  -0.25427
 Alpha  occ. eigenvalues --   -0.24255  -0.23991  -0.23678  -0.22624  -0.18475
 Alpha virt. eigenvalues --   -0.10032  -0.06708  -0.05876  -0.02384   0.00004
 Alpha virt. eigenvalues --    0.00663   0.00913   0.01882   0.02354   0.02737
 Alpha virt. eigenvalues --    0.03209   0.03809   0.04019   0.04320   0.04723

 Mulliken charges:
               1
     1  O   -0.233499
     2  O   -0.196841
     3  O   -0.224128
     4  O   -0.278249
     5  O   -0.235467
     6  O   -0.160185
     7  N   -0.044001
     8  N   -0.268656
     9  N   -0.081756
    10  N   -0.242014
    11  C    0.048402
    12  C    0.318166
    13  C   -0.114766
    14  C   -0.133622
    15  C   -0.098301
    16  C    0.076319
    17  C   -0.154229
    18  C    0.110896
    19  C   -0.083092
    20  C   -0.068085
    21  C    0.060274
    22  C    0.161303
    23  C   -0.058380
    24  C    0.093967
    25  C    0.024031
    26  C   -0.135070
    27  C    0.056334
    28  C    0.087815
    29  C    0.055395
    30  C    0.022401
    31  C   -0.014742
    32  C    0.065728
    33  C   -0.186950
    34  C    0.157953
    35  C    0.071107
    36  C   -0.060352
    37  C    0.207015
    38  C    0.024508
    39  C   -0.062768
    40  C    0.125793
    41  C   -0.089258
    42  C   -0.065316
    43  C   -0.025500
    44  H    0.050790
    45  H   -0.104625
    46  H   -0.000284
    47  H    0.150142
    48  H    0.146340
    49  H    0.006042
    50  H   -0.013640
    51  H   -0.002057
    52  H   -0.023200
    53  H    0.026152
    54  H    0.025026
    55  H    0.031997
    56  H    0.033660
    57  H    0.073047
    58  H    0.025833
    59  H    0.007726
    60  H    0.146856
    61  H    0.002637
    62  H    0.044369
    63  H    0.051979
    64  H    0.047566
    65  H    0.045357
    66  H    0.008778
    67  H    0.075648
    68  H    0.046552
    69  H    0.045076
    70  H    0.037714
    71  H    0.018692
    72  H    0.141914
    73  H    0.041488
    74  H    0.032569
    75  H    0.038897
    76  H    0.018113
    77  H    0.207830
    78  H    0.016567
    79  H    0.046268
 Sum of Mulliken charges =   0.00000

 Dipole moment (field-independent basis, Debye):
    X=              1.7454    Y=              1.7595    Z=              3.0407  Tot=              3.9228
 Quadrupole moment (field-independent basis, Debye-Ang):
   XX=           -207.8487   YY=           -244.9970   ZZ=           -267.1926
   XY=            -10.0846   XZ=             33.2163   YZ=              6.3222

 Normal termination of Gaussian 09 at Tue Jul  9 08:09:48 2019.
