 Gaussian 09, Revision D.01,
 Gaussian 09:  ES64L-G09RevD.01 24-Apr-2013

 --------------------------
 # td=(NStates=1) B3LYP/SVP
 --------------------------

 --
 TD
 --
 Symbolic Z-matrix:
 Charge =  0 Multiplicity = 1

                         Standard orientation:
 ---------------------------------------------------------------------
 Center     Atomic      Atomic             Coordinates (Angstroms)
 Number     Number       Type             X           Y           Z
 ---------------------------------------------------------------------
      1          8           0        5.504317    0.016495   -3.192175
      2          8           0       -3.027077   -3.074584    3.135784
      3          8           0       -3.326591   -0.830451    3.207084
      4          8           0       -0.915433    7.076880    1.756034
      5          8           0       -0.024968    6.931687   -0.377883
      6          8           0       -2.277729   -3.888192   -0.195912
      7          7           0        2.372536    0.529828    0.476758
      8          7           0        4.472138   -0.658553   -1.306911
      9          7           0       -1.843647    0.723790   -0.463578
     10          7           0       -2.890928   -1.657202   -0.668426
     11          6           0        4.794060   -1.482104   -0.123226
     12          6           0        4.467197   -0.625121    1.178634
     13          6           0        2.946911   -0.355560    1.233684
     14          6           0        1.879587   -0.885923    2.099958
     15          6           0        0.720279   -0.222908    1.809915
     16          6           0        0.968235    0.680877    0.765510
     17          6           0        6.308487   -1.582602   -0.218449
     18          6           0       -0.667329   -0.347798    2.469652
     19          6           0        6.725625   -1.104204   -1.393922
     20          6           0        0.367937    1.792255    0.094693
     21          6           0       -0.944623    1.790427   -0.285495
     22          6           0        5.560235   -0.467688   -2.096493
     23          6           0       -1.805301    3.015103   -0.844721
     24          6           0        2.066131   -2.021266    3.043796
     25          6           0        7.113099   -2.259889    0.771205
     26          6           0       -2.953539    2.588400   -1.216224
     27          6           0       -1.249014   -1.785017    2.456212
     28          6           0       -3.080965    1.123254   -0.991100
     29          6           0       -1.132697    4.445194   -0.778568
     30          6           0        8.084533   -0.964340   -1.986006
     31          6           0       -1.205702    5.066610    0.589771
     32          6           0       -4.143006    3.430537   -1.647198
     33          6           0       -4.168774    0.243154   -1.276921
     34          6           0       -2.628240   -1.779771    3.018586
     35          6           0       -3.969034   -1.202227   -1.079987
     36          6           0        9.256227   -1.038109   -1.418856
     37          6           0       -0.615863    6.447934    0.549634
     38          6           0       -5.061461   -2.224579   -1.519311
     39          6           0       -4.393713   -3.398477   -1.223013
     40          6           0       -3.087601   -3.097023   -0.625746
     41          6           0       -6.321031   -1.762562   -2.083688
     42          6           0       -4.945170   -4.771066   -1.279744
     43          6           0       -7.197233   -2.767221   -2.541267
     44          1           0        4.294955   -2.571709   -0.071747
     45          1           0        5.242506    0.391826    1.262578
     46          1           0        4.870453   -1.126070    2.191319
     47          1           0        3.007780    0.935905   -0.453709
     48          1           0        3.462935   -0.510376   -1.471607
     49          1           0       -0.629534   -0.024781    3.428482
     50          1           0       -1.365032    0.314671    2.106835
     51          1           0        0.798232    2.793340    0.016354
     52          1           0        3.207349   -2.181178    3.217239
     53          1           0        1.491446   -1.783384    4.074673
     54          1           0        1.774601   -2.944151    2.750611
     55          1           0        6.411842   -3.073095    1.320799
     56          1           0        7.627373   -1.609019    1.703370
     57          1           0        7.867609   -2.739915    0.340239
     58          1           0       -1.318749   -2.337715    1.446448
     59          1           0       -0.671485   -2.448136    3.186462
     60          1           0       -1.624477   -0.177735   -0.475151
     61          1           0       -1.625601    4.937109   -1.605349
     62          1           0        0.033320    4.313027   -0.942978
     63          1           0        7.905977   -0.780616   -2.986307
     64          1           0       -0.733844    4.369394    1.349301
     65          1           0       -2.257205    5.199096    0.950371
     66          1           0       -3.673617    4.455791   -1.921665
     67          1           0       -4.958216    3.478647   -0.765453
     68          1           0       -4.530396    2.943525   -2.443974
     69          1           0       -4.993418    0.782019   -1.349254
     70          1           0        9.771522   -1.011803   -0.264234
     71          1           0       10.061557   -0.974423   -2.073940
     72          1           0       -4.087139   -3.008576    3.514982
     73          1           0       -6.626544   -0.801253   -2.060351
     74          1           0       -5.076509   -4.842489   -2.305713
     75          1           0       -4.136380   -5.765515   -1.062013
     76          1           0       -5.970447   -4.872576   -0.685617
     77          1           0       -0.635792    7.944168    1.839766
     78          1           0       -8.261105   -2.765567   -2.865086
     79          1           0       -7.014287   -3.797895   -2.531930
 ---------------------------------------------------------------------

 SCF Done:  E(RB3LYP) =  -1947.78604322     A.U. after   16 cycles

 Excitation energies and oscillator strengths:

 Excited State   1:      Singlet-A      1.9563 eV  633.75 nm  f=0.3329  <S**2>=0.000
     155 ->156         0.70562
 This state for optimization and/or second-order correction.
 Total Energy, E(TD-HF/TD-KS) =  -1947.71414873
 Copying the excited state density for this state as the 1-particle RhoCI density.

 The electronic state is 1-A.
 Alpha  occ. eigenvalues --  -19.17758 -19.17138 -19.14105 -19.11737 -19.11410
 Alpha  occ. eigenvalues --  -19.10061 -14.38716 -14.36165 -14.35381 -14.29219
 Alpha  occ. eigenvalues --  -10.33063 -10.29829 -10.28669 -10.27390 -10.26289
 Alpha  occ. eigenvalues --  -10.24788 -10.24451 -10.23784 -10.23295 -10.22697
 Alpha  occ. eigenvalues --  -10.21858 -10.21834 -10.21681 -10.21639 -10.21575
 Alpha  occ. eigenvalues --  -10.21513 -10.21218 -10.20928 -10.20827 -10.20719
 Alpha  occ. eigenvalues --  -10.20510 -10.20441 -10.20428 -10.20170 -10.19956
 Alpha  occ. eigenvalues --  -10.19911 -10.19900 -10.19177 -10.18836 -10.18586
 Alpha  occ. eigenvalues --  -10.18194 -10.18157 -10.17234  -1.09323  -1.07147
 Alpha  occ. eigenvalues --   -1.03820  -1.02826  -1.02180  -0.98609  -0.97926
 Alpha  occ. eigenvalues --   -0.96631  -0.94461  -0.93904  -0.83068  -0.82702
 Alpha  occ. eigenvalues --   -0.81369  -0.81084  -0.80052  -0.78805  -0.78101
 Alpha  occ. eigenvalues --   -0.77032  -0.75883  -0.75718  -0.74318  -0.72104
 Alpha  occ. eigenvalues --   -0.71546  -0.70612  -0.69197  -0.68742  -0.67563
 Alpha  occ. eigenvalues --   -0.66164  -0.65215  -0.63767  -0.62367  -0.61479
 Alpha  occ. eigenvalues --   -0.60443  -0.59292  -0.58247  -0.57704  -0.56062
 Alpha  occ. eigenvalues --   -0.55452  -0.55135  -0.54065  -0.53777  -0.53194
 Alpha  occ. eigenvalues --   -0.52059  -0.51078  -0.50502  -0.50346  -0.49621
 Alpha  occ. eigenvalues --   -0.48790  -0.48311  -0.47989  -0.47826  -0.47184
 Alpha  occ. eigenvalues --   -0.46745  -0.46496  -0.46393  -0.46205  -0.44968
 Alpha  occ. eigenvalues --   -0.44869  -0.44795  -0.44670  -0.44240  -0.44131
 Alpha  occ. eigenvalues --   -0.43667  -0.43229  -0.42613  -0.42455  -0.42271
 Alpha  occ. eigenvalues --   -0.41770  -0.41329  -0.41252  -0.41105  -0.40849
 Alpha  occ. eigenvalues --   -0.40579  -0.40408  -0.40154  -0.39809  -0.39568
 Alpha  occ. eigenvalues --   -0.39497  -0.39050  -0.38727  -0.38562  -0.38149
 Alpha  occ. eigenvalues --   -0.37999  -0.37557  -0.37406  -0.36370  -0.36293
 Alpha  occ. eigenvalues --   -0.35634  -0.35536  -0.34987  -0.34563  -0.34392
 Alpha  occ. eigenvalues --   -0.33632  -0.33409  -0.33121  -0.32791  -0.31924
 Alpha  occ. eigenvalues --   -0.31233  -0.30918  -0.29483  -0.28951  -0.28480
 Alpha  occ. eigenvalues --   -0.27139  -0.26904  -0.26723  -0.25851  -0.25093
 Alpha  occ. eigenvalues --   -0.24877  -0.24830  -0.23203  -0.22208  -0.18272
 Alpha virt. eigenvalues --   -0.10175  -0.05965  -0.05654  -0.01275  -0.00854
 Alpha virt. eigenvalues --    0.00000   0.01125   0.01890   0.02224   0.02506
 Alpha virt. eigenvalues --    0.02853   0.03339   0.04158   0.04875   0.05270

 Mulliken charges:
               1
     1  O   -0.199415
     2  O   -0.263839
     3  O   -0.219049
     4  O   -0.196292
     5  O   -0.195664
     6  O   -0.169281
     7  N   -0.142554
     8  N   -0.204445
     9  N   -0.043933
    10  N   -0.218771
    11  C    0.064321
    12  C   -0.005346
    13  C   -0.054453
    14  C   -0.146086
    15  C   -0.060334
    16  C    0.081768
    17  C   -0.170406
    18  C    0.232664
    19  C   -0.072920
    20  C   -0.078364
    21  C    0.043307
    22  C    0.145848
    23  C   -0.077463
    24  C    0.076957
    25  C    0.059629
    26  C   -0.154034
    27  C   -0.072886
    28  C    0.052336
    29  C    0.071809
    30  C    0.078491
    31  C   -0.021305
    32  C    0.100221
    33  C   -0.033867
    34  C    0.132045
    35  C    0.042419
    36  C   -0.057077
    37  C    0.166729
    38  C    0.052397
    39  C   -0.197268
    40  C    0.172128
    41  C    0.057765
    42  C    0.013675
    43  C   -0.020639
    44  H    0.065921
    45  H    0.048974
    46  H    0.040262
    47  H    0.181742
    48  H    0.135406
    49  H   -0.042068
    50  H   -0.028828
    51  H   -0.012225
    52  H   -0.006284
    53  H    0.029348
    54  H    0.009220
    55  H    0.027731
    56  H    0.058194
    57  H   -0.003035
    58  H    0.096124
    59  H    0.029643
    60  H    0.080819
    61  H    0.016358
    62  H    0.040019
    63  H   -0.009192
    64  H    0.060668
    65  H    0.041089
    66  H    0.027486
    67  H    0.058445
    68  H    0.002073
    69  H   -0.081191
    70  H    0.057584
    71  H    0.007878
    72  H    0.226303
    73  H   -0.037997
    74  H    0.024016
    75  H    0.054526
    76  H    0.058150
    77  H    0.152660
    78  H    0.025915
    79  H   -0.004553
 Sum of Mulliken charges =   0.00000

 Dipole moment (field-independent basis, Debye):
    X=             -0.6919    Y=              0.9399    Z=              2.7283  Tot=              2.9675
 Quadrupole moment (field-independent basis, Debye-Ang):
   XX=           -208.4395   YY=           -243.1243   ZZ=           -264.2773
   XY=            -10.1376   XZ=             29.5708   YZ=              8.1258

 Normal termination of Gaussian 09 at Mon Jul  8 14:01:28 2019.
