 Gaussian 09, Revision D.01,
 Gaussian 09:  ES64L-G09RevD.01 24-Apr-2013

 --------------------------
 # td=(NStates=1) B3LYP/SVP
 --------------------------

 --
 TD
 --
 Symbolic Z-matrix:
 Charge =  0 Multiplicity = 1

                         Standard orientation:
 ---------------------------------------------------------------------
 Center     Atomic      Atomic             Coordinates (Angstroms)
 Number     Number       Type             X           Y           Z
 ---------------------------------------------------------------------
      1          8           0        5.580786   -0.056962   -3.317877
      2          8           0       -2.721416   -3.363840    3.400821
      3          8           0       -3.416899   -1.220665    2.956510
      4          8           0       -1.773283    7.163440    1.722919
      5          8           0       -0.614189    7.022150   -0.176231
      6          8           0       -1.893789   -4.039194   -0.045449
      7          7           0        2.410433    0.899896    0.490822
      8          7           0        4.492333   -0.601582   -1.333621
      9          7           0       -1.900985    0.708784   -0.379954
     10          7           0       -2.650981   -1.827738   -0.655524
     11          6           0        4.884419   -1.242463   -0.092257
     12          6           0        4.492088   -0.398978    1.181042
     13          6           0        2.994005   -0.151309    1.265968
     14          6           0        1.933486   -0.719706    2.108303
     15          6           0        0.759192   -0.162338    1.724993
     16          6           0        0.997316    0.888963    0.779352
     17          6           0        6.460741   -1.371811   -0.244243
     18          6           0       -0.613513   -0.374851    2.347496
     19          6           0        6.846949   -0.758350   -1.389348
     20          6           0        0.174087    1.901398    0.173759
     21          6           0       -1.097821    1.799576   -0.317338
     22          6           0        5.615710   -0.359562   -2.213747
     23          6           0       -1.992626    2.999587   -0.894432
     24          6           0        2.210007   -1.856279    3.030310
     25          6           0        7.181084   -1.997883    0.915839
     26          6           0       -3.103515    2.480053   -1.370256
     27          6           0       -0.994100   -1.846085    2.472217
     28          6           0       -3.042628    1.015833   -1.032436
     29          6           0       -1.601511    4.431511   -0.700927
     30          6           0        8.201302   -0.578018   -1.976773
     31          6           0       -1.957320    5.171181    0.543059
     32          6           0       -4.337449    3.063807   -1.890231
     33          6           0       -4.007745    0.068120   -1.520187
     34          6           0       -2.419557   -2.020265    2.918867
     35          6           0       -3.799442   -1.370351   -1.128162
     36          6           0        9.354959   -0.474164   -1.325786
     37          6           0       -1.288000    6.539206    0.630573
     38          6           0       -4.725672   -2.433478   -1.475824
     39          6           0       -4.086042   -3.665305   -1.111366
     40          6           0       -2.793679   -3.233823   -0.512648
     41          6           0       -6.008000   -2.246226   -2.123127
     42          6           0       -4.529784   -5.035010   -1.306165
     43          6           0       -7.028903   -3.242958   -2.417342
     44          1           0        4.398374   -2.167991    0.164731
     45          1           0        5.129344    0.645695    1.342299
     46          1           0        4.902195   -0.884199    2.110707
     47          1           0        2.786769    1.755783    0.015248
     48          1           0        3.474425   -0.634222   -1.678704
     49          1           0       -0.838792    0.069259    3.210289
     50          1           0       -1.466558    0.181870    1.649872
     51          1           0        0.524185    2.971261    0.184102
     52          1           0        3.294988   -2.113258    3.242510
     53          1           0        1.691379   -1.682095    4.100324
     54          1           0        1.774660   -2.770930    2.658776
     55          1           0        6.355930   -2.574164    1.629384
     56          1           0        7.728203   -1.183412    1.441126
     57          1           0        7.980095   -2.806804    0.594496
     58          1           0       -0.886829   -2.389062    1.563116
     59          1           0       -0.492629   -2.402547    3.251782
     60          1           0       -1.594473   -0.323911   -0.188006
     61          1           0       -2.041753    5.174318   -1.463625
     62          1           0       -0.488141    4.469748   -0.659845
     63          1           0        8.100658   -0.632158   -3.163879
     64          1           0       -1.648685    4.737401    1.524682
     65          1           0       -2.992751    5.397428    0.665885
     66          1           0       -3.909377    4.075221   -2.282354
     67          1           0       -5.374214    3.313847   -1.085734
     68          1           0       -4.941578    2.822792   -2.630142
     69          1           0       -5.025353    0.287024   -1.686825
     70          1           0        9.544614   -0.482736   -0.176615
     71          1           0       10.252639   -0.298597   -1.932254
     72          1           0       -3.587204   -3.202382    3.596767
     73          1           0       -6.595271   -1.313644   -2.186456
     74          1           0       -4.645466   -5.457483   -2.343419
     75          1           0       -3.672989   -5.564091   -0.950130
     76          1           0       -5.368754   -5.275074   -0.614953
     77          1           0       -1.349038    8.150497    1.829786
     78          1           0       -7.985886   -2.800591   -2.758674
     79          1           0       -6.846219   -4.307874   -2.446968
 ---------------------------------------------------------------------

 SCF Done:  E(RB3LYP) =  -1947.83982646     A.U. after   17 cycles

 Excitation energies and oscillator strengths:

 Excited State   1:      Singlet-A      1.8560 eV  668.00 nm  f=0.3299  <S**2>=0.000
     154 ->156        -0.15055
     155 ->156         0.68759
 This state for optimization and/or second-order correction.
 Total Energy, E(TD-HF/TD-KS) =  -1947.77161824
 Copying the excited state density for this state as the 1-particle RhoCI density.

 The electronic state is 1-A.
 Alpha  occ. eigenvalues --  -19.19130 -19.15101 -19.13855 -19.12395 -19.11387
 Alpha  occ. eigenvalues --  -19.11202 -14.38858 -14.37945 -14.34554 -14.29934
 Alpha  occ. eigenvalues --  -10.32253 -10.31834 -10.28824 -10.27501 -10.25712
 Alpha  occ. eigenvalues --  -10.25112 -10.24622 -10.24052 -10.23864 -10.23233
 Alpha  occ. eigenvalues --  -10.22870 -10.22634 -10.22583 -10.22188 -10.21903
 Alpha  occ. eigenvalues --  -10.21839 -10.21797 -10.21555 -10.21443 -10.20989
 Alpha  occ. eigenvalues --  -10.20980 -10.20758 -10.20751 -10.20625 -10.20424
 Alpha  occ. eigenvalues --  -10.20174 -10.20139 -10.19875 -10.19677 -10.19613
 Alpha  occ. eigenvalues --  -10.19517 -10.19498 -10.18548  -1.11146  -1.06634
 Alpha  occ. eigenvalues --   -1.05726  -1.02377  -0.99355  -0.98406  -0.96480
 Alpha  occ. eigenvalues --   -0.95657  -0.92034  -0.91955  -0.83839  -0.81960
 Alpha  occ. eigenvalues --   -0.81230  -0.80892  -0.79794  -0.79300  -0.78068
 Alpha  occ. eigenvalues --   -0.77232  -0.76186  -0.75196  -0.73963  -0.72229
 Alpha  occ. eigenvalues --   -0.71501  -0.70392  -0.69732  -0.68721  -0.67937
 Alpha  occ. eigenvalues --   -0.66674  -0.65192  -0.63301  -0.60257  -0.59962
 Alpha  occ. eigenvalues --   -0.59797  -0.58746  -0.58297  -0.57488  -0.56579
 Alpha  occ. eigenvalues --   -0.55774  -0.55229  -0.54908  -0.53366  -0.52631
 Alpha  occ. eigenvalues --   -0.52024  -0.51366  -0.50832  -0.50598  -0.50249
 Alpha  occ. eigenvalues --   -0.48948  -0.48784  -0.48094  -0.47523  -0.47443
 Alpha  occ. eigenvalues --   -0.47299  -0.46857  -0.46700  -0.46273  -0.45926
 Alpha  occ. eigenvalues --   -0.44903  -0.44835  -0.44694  -0.43978  -0.43879
 Alpha  occ. eigenvalues --   -0.43603  -0.43065  -0.42975  -0.42750  -0.42632
 Alpha  occ. eigenvalues --   -0.42340  -0.41927  -0.41381  -0.41240  -0.41094
 Alpha  occ. eigenvalues --   -0.40322  -0.40280  -0.39960  -0.39732  -0.39312
 Alpha  occ. eigenvalues --   -0.39168  -0.39095  -0.38838  -0.38457  -0.38316
 Alpha  occ. eigenvalues --   -0.38108  -0.37739  -0.37409  -0.37382  -0.36969
 Alpha  occ. eigenvalues --   -0.36563  -0.35865  -0.35492  -0.34800  -0.34011
 Alpha  occ. eigenvalues --   -0.33804  -0.33605  -0.33371  -0.32570  -0.30996
 Alpha  occ. eigenvalues --   -0.30229  -0.29945  -0.29309  -0.28291  -0.27951
 Alpha  occ. eigenvalues --   -0.27109  -0.26970  -0.26923  -0.26080  -0.25333
 Alpha  occ. eigenvalues --   -0.24587  -0.24446  -0.23165  -0.21651  -0.19173
 Alpha virt. eigenvalues --   -0.11560  -0.07014  -0.04885  -0.02319  -0.01032
 Alpha virt. eigenvalues --   -0.00893   0.00792   0.01414   0.01543   0.01718
 Alpha virt. eigenvalues --    0.02493   0.03580   0.03852   0.04600   0.05079

 Mulliken charges:
               1
     1  O   -0.123808
     2  O   -0.202747
     3  O   -0.291247
     4  O   -0.252068
     5  O   -0.161388
     6  O   -0.272985
     7  N   -0.152707
     8  N   -0.278875
     9  N   -0.074668
    10  N   -0.291823
    11  C    0.123991
    12  C    0.058218
    13  C   -0.028066
    14  C   -0.107667
    15  C   -0.016352
    16  C    0.069212
    17  C   -0.128178
    18  C    0.033550
    19  C   -0.100824
    20  C   -0.094494
    21  C    0.039985
    22  C    0.162347
    23  C   -0.027915
    24  C    0.043230
    25  C   -0.004610
    26  C   -0.039873
    27  C    0.065664
    28  C    0.084047
    29  C    0.064277
    30  C   -0.016223
    31  C   -0.009769
    32  C    0.033920
    33  C   -0.029378
    34  C    0.154895
    35  C    0.034036
    36  C   -0.060538
    37  C    0.097779
    38  C    0.084310
    39  C   -0.187091
    40  C    0.205110
    41  C   -0.087063
    42  C    0.096408
    43  C   -0.053509
    44  H    0.004220
    45  H    0.017526
    46  H    0.001274
    47  H    0.144788
    48  H    0.150441
    49  H   -0.026895
    50  H    0.041996
    51  H    0.001767
    52  H    0.013505
    53  H    0.034117
    54  H    0.038880
    55  H    0.047510
    56  H    0.054189
    57  H    0.059395
    58  H    0.054632
    59  H    0.023542
    60  H    0.204327
    61  H    0.034765
    62  H    0.016098
    63  H    0.050436
    64  H    0.031452
    65  H    0.027061
    66  H    0.020186
    67  H    0.042572
    68  H   -0.013235
    69  H   -0.014338
    70  H    0.037552
    71  H    0.029732
    72  H    0.130178
    73  H    0.009404
    74  H    0.044094
    75  H    0.003831
    76  H    0.037786
    77  H    0.227968
    78  H    0.034527
    79  H    0.027601
 Sum of Mulliken charges =   0.00000

 Dipole moment (field-independent basis, Debye):
    X=              0.3706    Y=              4.0006    Z=              2.7932  Tot=              4.8932
 Quadrupole moment (field-independent basis, Debye-Ang):
   XX=           -222.4935   YY=           -240.4573   ZZ=           -263.7394
   XY=            -13.6294   XZ=             34.1069   YZ=              9.5148

 Normal termination of Gaussian 09 at Mon Jul  8 13:57:01 2019.
