 Gaussian 09, Revision D.01,
 Gaussian 09:  ES64L-G09RevD.01 24-Apr-2013

 --------------------------
 # td=(NStates=1) B3LYP/SVP
 --------------------------

 --
 TD
 --
 Symbolic Z-matrix:
 Charge =  0 Multiplicity = 1

                         Standard orientation:
 ---------------------------------------------------------------------
 Center     Atomic      Atomic             Coordinates (Angstroms)
 Number     Number       Type             X           Y           Z
 ---------------------------------------------------------------------
      1          8           0        5.505843   -0.235981   -3.430920
      2          8           0       -2.970186   -3.019877    3.289828
      3          8           0       -3.277545   -0.904800    3.306684
      4          8           0       -1.284715    7.070543    1.660957
      5          8           0       -0.353610    7.014336   -0.389791
      6          8           0       -2.261286   -4.080179   -0.065499
      7          7           0        2.409695    0.948139    0.649227
      8          7           0        4.520240   -0.340955   -1.306360
      9          7           0       -1.805743    0.702789   -0.467023
     10          7           0       -2.852329   -1.914431   -0.377726
     11          6           0        4.763309   -1.211745   -0.115494
     12          6           0        4.460191   -0.446394    1.162357
     13          6           0        3.072945   -0.131339    1.346039
     14          6           0        2.071771   -0.768169    2.137789
     15          6           0        0.733619   -0.195573    1.722481
     16          6           0        1.008940    0.896536    0.931250
     17          6           0        6.292045   -1.543283   -0.254793
     18          6           0       -0.474785   -0.324631    2.475417
     19          6           0        6.725042   -1.016208   -1.471376
     20          6           0        0.241794    1.808597    0.212569
     21          6           0       -1.036367    1.881829   -0.291234
     22          6           0        5.583575   -0.459109   -2.289761
     23          6           0       -1.857517    2.934633   -0.798065
     24          6           0        2.304426   -1.844392    3.045775
     25          6           0        7.177304   -2.034018    0.952756
     26          6           0       -3.074428    2.419653   -1.199800
     27          6           0       -1.204061   -1.745162    2.487700
     28          6           0       -3.080027    0.953612   -0.951305
     29          6           0       -1.409758    4.390891   -0.821173
     30          6           0        8.033843   -1.040837   -2.045126
     31          6           0       -1.666871    5.073076    0.469822
     32          6           0       -4.200675    3.242640   -1.829744
     33          6           0       -4.036216    0.045622   -1.334800
     34          6           0       -2.465236   -1.836725    3.008396
     35          6           0       -3.848192   -1.307087   -1.106978
     36          6           0        9.275043   -0.920555   -1.438971
     37          6           0       -1.020187    6.508400    0.472991
     38          6           0       -4.855590   -2.336528   -1.497341
     39          6           0       -4.317559   -3.555102   -1.098881
     40          6           0       -3.037515   -3.310974   -0.476336
     41          6           0       -5.988599   -2.064066   -2.308240
     42          6           0       -4.804139   -4.971935   -1.164530
     43          6           0       -7.071534   -2.937724   -2.657238
     44          1           0        4.181942   -2.159771   -0.235711
     45          1           0        5.203186    0.447074    1.089401
     46          1           0        4.767086   -1.053613    2.140153
     47          1           0        2.799933    1.340278   -0.144594
     48          1           0        3.613603   -0.473992   -1.733193
     49          1           0       -0.122511   -0.048267    3.381251
     50          1           0       -1.117329    0.515442    1.868592
     51          1           0        0.688447    2.816834    0.118640
     52          1           0        3.339390   -2.212048    3.162622
     53          1           0        1.937810   -1.654946    4.052844
     54          1           0        1.838946   -2.713683    2.582050
     55          1           0        6.721061   -2.690144    1.572753
     56          1           0        7.450354   -1.224632    1.636390
     57          1           0        8.059001   -2.493250    0.590956
     58          1           0       -1.261475   -2.372466    1.480892
     59          1           0       -0.650157   -2.546566    3.216035
     60          1           0       -1.601394   -0.344270   -0.305344
     61          1           0       -1.988781    5.081628   -1.707817
     62          1           0       -0.442848    4.593761   -0.981261
     63          1           0        7.962264   -1.147120   -3.116483
     64          1           0       -1.257889    4.477962    1.433898
     65          1           0       -2.827565    5.227761    0.815121
     66          1           0       -3.926263    4.310362   -2.129892
     67          1           0       -5.146122    3.272156   -1.157515
     68          1           0       -4.519799    2.757411   -2.691993
     69          1           0       -5.007761    0.607709   -1.406854
     70          1           0        9.301003   -0.795950   -0.267217
     71          1           0       10.115407   -0.775654   -1.995497
     72          1           0       -3.859530   -2.942798    3.407346
     73          1           0       -5.937809   -0.887823   -2.868989
     74          1           0       -4.849416   -5.185970   -2.224983
     75          1           0       -4.165175   -5.645350   -0.735936
     76          1           0       -5.812733   -5.001995   -0.878940
     77          1           0       -0.977231    8.066910    1.434742
     78          1           0       -7.887643   -2.492694   -3.173161
     79          1           0       -7.158597   -4.097016   -2.330139
 ---------------------------------------------------------------------

 SCF Done:  E(RB3LYP) =  -1947.84270946     A.U. after   16 cycles

 Excitation energies and oscillator strengths:

 Excited State   1:      Singlet-A      1.9997 eV  620.02 nm  f=0.3227  <S**2>=0.000
     154 ->156         0.30348
     155 ->156         0.63391
 This state for optimization and/or second-order correction.
 Total Energy, E(TD-HF/TD-KS) =  -1947.76922249
 Copying the excited state density for this state as the 1-particle RhoCI density.

 The electronic state is 1-A.
 Alpha  occ. eigenvalues --  -19.19810 -19.14886 -19.14349 -19.12812 -19.10758
 Alpha  occ. eigenvalues --  -19.07974 -14.37095 -14.36546 -14.35231 -14.28608
 Alpha  occ. eigenvalues --  -10.33010 -10.29894 -10.29005 -10.25663 -10.25630
 Alpha  occ. eigenvalues --  -10.24794 -10.24736 -10.23650 -10.23613 -10.23387
 Alpha  occ. eigenvalues --  -10.23264 -10.23112 -10.22781 -10.22431 -10.21986
 Alpha  occ. eigenvalues --  -10.21599 -10.21538 -10.21474 -10.21153 -10.21115
 Alpha  occ. eigenvalues --  -10.20849 -10.20651 -10.20646 -10.20580 -10.20556
 Alpha  occ. eigenvalues --  -10.19959 -10.19951 -10.19905 -10.19863 -10.19436
 Alpha  occ. eigenvalues --  -10.19363 -10.19115 -10.17530  -1.10746  -1.09005
 Alpha  occ. eigenvalues --   -1.06779  -1.04552  -1.01809  -0.97168  -0.96159
 Alpha  occ. eigenvalues --   -0.94150  -0.93341  -0.91114  -0.83017  -0.82632
 Alpha  occ. eigenvalues --   -0.81968  -0.81824  -0.80261  -0.79371  -0.77806
 Alpha  occ. eigenvalues --   -0.77683  -0.77359  -0.75745  -0.74703  -0.74009
 Alpha  occ. eigenvalues --   -0.72034  -0.71734  -0.69461  -0.69284  -0.68842
 Alpha  occ. eigenvalues --   -0.67327  -0.66305  -0.64433  -0.61728  -0.60904
 Alpha  occ. eigenvalues --   -0.59881  -0.58878  -0.58175  -0.57787  -0.56273
 Alpha  occ. eigenvalues --   -0.55779  -0.55396  -0.55108  -0.53530  -0.53202
 Alpha  occ. eigenvalues --   -0.52289  -0.51350  -0.50898  -0.50092  -0.49840
 Alpha  occ. eigenvalues --   -0.49088  -0.48711  -0.48378  -0.48000  -0.47542
 Alpha  occ. eigenvalues --   -0.47407  -0.46691  -0.46016  -0.45802  -0.45050
 Alpha  occ. eigenvalues --   -0.44907  -0.44801  -0.44467  -0.44185  -0.44067
 Alpha  occ. eigenvalues --   -0.43836  -0.43501  -0.43231  -0.43087  -0.42888
 Alpha  occ. eigenvalues --   -0.42783  -0.42640  -0.42292  -0.42077  -0.41816
 Alpha  occ. eigenvalues --   -0.41754  -0.41406  -0.41064  -0.40925  -0.40686
 Alpha  occ. eigenvalues --   -0.39805  -0.39691  -0.39425  -0.39237  -0.38760
 Alpha  occ. eigenvalues --   -0.38477  -0.38091  -0.37731  -0.37252  -0.36914
 Alpha  occ. eigenvalues --   -0.36247  -0.35864  -0.35734  -0.35516  -0.34805
 Alpha  occ. eigenvalues --   -0.34104  -0.33884  -0.33196  -0.31984  -0.31560
 Alpha  occ. eigenvalues --   -0.30996  -0.29744  -0.28979  -0.28338  -0.27780
 Alpha  occ. eigenvalues --   -0.27459  -0.27038  -0.25910  -0.24745  -0.24387
 Alpha  occ. eigenvalues --   -0.24271  -0.23732  -0.23564  -0.21398  -0.19403
 Alpha virt. eigenvalues --   -0.11187  -0.07220  -0.06718  -0.01719  -0.00820
 Alpha virt. eigenvalues --   -0.00226   0.00182   0.01543   0.01976   0.02359
 Alpha virt. eigenvalues --    0.02878   0.03659   0.04244   0.05001   0.05688

 Mulliken charges:
               1
     1  O   -0.135687
     2  O   -0.114547
     3  O   -0.317379
     4  O   -0.208719
     5  O   -0.218039
     6  O   -0.144321
     7  N   -0.124217
     8  N   -0.252913
     9  N   -0.170908
    10  N   -0.331189
    11  C    0.070331
    12  C    0.102626
    13  C   -0.009738
    14  C   -0.149458
    15  C   -0.111905
    16  C    0.144139
    17  C   -0.159563
    18  C    0.106023
    19  C   -0.087004
    20  C   -0.056707
    21  C    0.056698
    22  C    0.163468
    23  C   -0.005297
    24  C    0.102323
    25  C    0.147214
    26  C   -0.143328
    27  C   -0.033754
    28  C    0.085859
    29  C    0.125763
    30  C   -0.032363
    31  C   -0.138535
    32  C    0.090121
    33  C   -0.141300
    34  C    0.083989
    35  C    0.150057
    36  C   -0.010019
    37  C    0.153479
    38  C    0.050327
    39  C   -0.236210
    40  C    0.122348
    41  C   -0.111783
    42  C    0.210833
    43  C   -0.061984
    44  H    0.029327
    45  H    0.022016
    46  H    0.026720
    47  H    0.089058
    48  H    0.120135
    49  H   -0.004589
    50  H    0.062148
    51  H   -0.007996
    52  H   -0.010695
    53  H    0.021852
    54  H    0.034353
    55  H   -0.018534
    56  H    0.033968
    57  H    0.023940
    58  H    0.105183
    59  H    0.046956
    60  H    0.167774
    61  H    0.042325
    62  H   -0.022472
    63  H    0.010922
    64  H    0.069740
    65  H    0.061494
    66  H    0.027380
    67  H    0.040330
    68  H    0.007560
    69  H    0.020976
    70  H    0.038488
    71  H    0.009063
    72  H    0.140051
    73  H    0.046728
    74  H    0.008869
    75  H   -0.001555
    76  H    0.008471
    77  H    0.212118
    78  H    0.023822
    79  H    0.055345
 Sum of Mulliken charges =   0.00000

 Dipole moment (field-independent basis, Debye):
    X=              2.1703    Y=              1.9067    Z=              1.5000  Tot=              3.2551
 Quadrupole moment (field-independent basis, Debye-Ang):
   XX=           -222.1755   YY=           -241.0987   ZZ=           -267.0403
   XY=            -16.0976   XZ=             34.8125   YZ=              2.0136

 Normal termination of Gaussian 09 at Sun Jul  7 21:29:14 2019.
