 Gaussian 09, Revision D.01,
 Gaussian 09:  ES64L-G09RevD.01 24-Apr-2013

 --------------------------
 # td=(NStates=1) B3LYP/SVP
 --------------------------

 --
 TD
 --
 Symbolic Z-matrix:
 Charge =  0 Multiplicity = 1

                         Standard orientation:
 ---------------------------------------------------------------------
 Center     Atomic      Atomic             Coordinates (Angstroms)
 Number     Number       Type             X           Y           Z
 ---------------------------------------------------------------------
      1          8           0        5.319276   -0.483711   -3.407021
      2          8           0       -2.779144   -2.919602    3.530598
      3          8           0       -3.167177   -0.590320    3.213021
      4          8           0       -1.787239    7.250620    1.132800
      5          8           0       -0.308151    6.886994   -0.588595
      6          8           0       -2.004217   -4.036796    0.172425
      7          7           0        2.402329    1.020343    0.568533
      8          7           0        4.405949   -0.750588   -1.254957
      9          7           0       -1.917995    0.634872   -0.344554
     10          7           0       -2.762927   -1.957732   -0.539263
     11          6           0        4.829685   -1.113629    0.028422
     12          6           0        4.542497   -0.142851    1.214218
     13          6           0        3.022298    0.106771    1.391473
     14          6           0        2.104275   -0.474787    2.130865
     15          6           0        0.817660    0.148488    1.859098
     16          6           0        1.074790    1.045702    0.795106
     17          6           0        6.275712   -1.303250   -0.117887
     18          6           0       -0.431732   -0.139949    2.535352
     19          6           0        6.653274   -1.054774   -1.480913
     20          6           0        0.180831    1.945913    0.104763
     21          6           0       -1.153556    1.882218   -0.298031
     22          6           0        5.457180   -0.662218   -2.255294
     23          6           0       -1.908555    2.861815   -0.943008
     24          6           0        2.312004   -1.537951    3.233859
     25          6           0        7.199016   -1.843597    0.991584
     26          6           0       -3.265285    2.316003   -1.218723
     27          6           0       -1.078171   -1.549462    2.512115
     28          6           0       -3.147853    0.850528   -0.934458
     29          6           0       -1.505574    4.295811   -0.978058
     30          6           0        7.933375   -0.901969   -2.201036
     31          6           0       -1.688986    5.130749    0.311988
     32          6           0       -4.533758    2.986718   -1.749596
     33          6           0       -4.065645   -0.100344   -1.362823
     34          6           0       -2.450043   -1.626919    3.167441
     35          6           0       -3.817438   -1.477781   -1.131240
     36          6           0        9.094264   -0.926768   -1.616544
     37          6           0       -1.194160    6.519401    0.198431
     38          6           0       -4.725157   -2.619257   -1.399963
     39          6           0       -4.125479   -3.796143   -1.005951
     40          6           0       -2.798504   -3.324030   -0.337021
     41          6           0       -6.043953   -2.484689   -2.045940
     42          6           0       -4.400152   -5.198483   -1.069884
     43          6           0       -6.676244   -3.426193   -2.811207
     44          1           0        4.290218   -1.955866    0.218296
     45          1           0        4.910604    0.751413    0.907670
     46          1           0        5.017346   -0.590704    2.220022
     47          1           0        2.885877    1.765495    0.057929
     48          1           0        3.306834   -0.482122   -1.523280
     49          1           0       -0.262078    0.333533    3.613133
     50          1           0       -1.166457    0.647650    2.132196
     51          1           0        0.583805    2.831294   -0.204752
     52          1           0        3.295330   -1.439676    3.772428
     53          1           0        1.597971   -1.384188    4.103567
     54          1           0        2.309087   -2.695351    2.745544
     55          1           0        6.815853   -2.738041    1.622048
     56          1           0        7.661125   -1.175376    1.664157
     57          1           0        7.911412   -2.372636    0.582619
     58          1           0       -1.191366   -2.079636    1.622611
     59          1           0       -0.427186   -2.195215    3.172766
     60          1           0       -1.663385   -0.267327    0.016320
     61          1           0       -1.942113    4.880521   -1.887849
     62          1           0       -0.395579    4.268781   -1.058639
     63          1           0        8.093133   -0.956209   -3.377583
     64          1           0       -1.085490    4.469808    1.078073
     65          1           0       -2.752006    5.078949    0.790651
     66          1           0       -4.651620    4.031104   -1.621300
     67          1           0       -5.406394    2.713579   -0.998729
     68          1           0       -4.640334    2.842307   -2.943269
     69          1           0       -4.965672    0.213454   -1.966115
     70          1           0        9.237472   -0.840592   -0.517222
     71          1           0       10.048686   -0.659671   -2.211242
     72          1           0       -3.658807   -3.043513    3.911676
     73          1           0       -6.676382   -1.532303   -2.044911
     74          1           0       -4.219595   -5.555950   -2.017463
     75          1           0       -4.018839   -5.889969   -0.446410
     76          1           0       -5.481945   -5.307235   -1.008548
     77          1           0       -1.541663    8.168818    1.290236
     78          1           0       -7.659503   -3.310780   -3.060899
     79          1           0       -6.156314   -4.320492   -3.170696
 ---------------------------------------------------------------------

 SCF Done:  E(RB3LYP) =  -1947.86819500     A.U. after   16 cycles

 Excitation energies and oscillator strengths:

 Excited State   1:      Singlet-A      2.1218 eV  584.34 nm  f=0.3281  <S**2>=0.000
     153 ->156         0.15680
     154 ->156         0.30084
     155 ->156         0.61395
 This state for optimization and/or second-order correction.
 Total Energy, E(TD-HF/TD-KS) =  -1947.79022052
 Copying the excited state density for this state as the 1-particle RhoCI density.

 The electronic state is 1-A.
 Alpha  occ. eigenvalues --  -19.19589 -19.17882 -19.13071 -19.11525 -19.10787
 Alpha  occ. eigenvalues --  -19.10385 -14.38420 -14.36110 -14.34569 -14.27625
 Alpha  occ. eigenvalues --  -10.33276 -10.31702 -10.28044 -10.25984 -10.24832
 Alpha  occ. eigenvalues --  -10.24720 -10.23202 -10.23171 -10.23067 -10.22732
 Alpha  occ. eigenvalues --  -10.22494 -10.22371 -10.22215 -10.22184 -10.21939
 Alpha  occ. eigenvalues --  -10.21802 -10.21764 -10.21549 -10.21530 -10.21143
 Alpha  occ. eigenvalues --  -10.20465 -10.20152 -10.19995 -10.19954 -10.19367
 Alpha  occ. eigenvalues --  -10.19362 -10.19229 -10.19115 -10.19038 -10.18885
 Alpha  occ. eigenvalues --  -10.18600 -10.18043 -10.16536  -1.10390  -1.06418
 Alpha  occ. eigenvalues --   -1.04212  -1.03267  -1.00534  -0.99799  -0.97911
 Alpha  occ. eigenvalues --   -0.95920  -0.93712  -0.92280  -0.82867  -0.81306
 Alpha  occ. eigenvalues --   -0.81002  -0.80715  -0.79584  -0.78891  -0.77562
 Alpha  occ. eigenvalues --   -0.77136  -0.76044  -0.75696  -0.74692  -0.72826
 Alpha  occ. eigenvalues --   -0.71510  -0.71037  -0.69635  -0.68993  -0.68756
 Alpha  occ. eigenvalues --   -0.68124  -0.66505  -0.64213  -0.62016  -0.60848
 Alpha  occ. eigenvalues --   -0.60042  -0.59764  -0.58141  -0.56710  -0.56068
 Alpha  occ. eigenvalues --   -0.55856  -0.55168  -0.54813  -0.53615  -0.52745
 Alpha  occ. eigenvalues --   -0.52361  -0.52125  -0.51148  -0.50858  -0.49666
 Alpha  occ. eigenvalues --   -0.48700  -0.48262  -0.47844  -0.47614  -0.47109
 Alpha  occ. eigenvalues --   -0.46662  -0.46518  -0.46263  -0.45704  -0.45312
 Alpha  occ. eigenvalues --   -0.45099  -0.44526  -0.44167  -0.43765  -0.43585
 Alpha  occ. eigenvalues --   -0.43200  -0.43050  -0.42818  -0.42667  -0.42143
 Alpha  occ. eigenvalues --   -0.41806  -0.41482  -0.41282  -0.41041  -0.40893
 Alpha  occ. eigenvalues --   -0.40565  -0.40408  -0.40244  -0.39813  -0.39701
 Alpha  occ. eigenvalues --   -0.39491  -0.39338  -0.39146  -0.38993  -0.38615
 Alpha  occ. eigenvalues --   -0.38441  -0.37877  -0.37588  -0.37408  -0.37014
 Alpha  occ. eigenvalues --   -0.36382  -0.35582  -0.35532  -0.35102  -0.34598
 Alpha  occ. eigenvalues --   -0.33959  -0.33568  -0.32870  -0.31935  -0.31544
 Alpha  occ. eigenvalues --   -0.30921  -0.30596  -0.28696  -0.28214  -0.26373
 Alpha  occ. eigenvalues --   -0.26245  -0.26070  -0.25625  -0.24858  -0.24527
 Alpha  occ. eigenvalues --   -0.24123  -0.23718  -0.22726  -0.21471  -0.19024
 Alpha virt. eigenvalues --   -0.10682  -0.06529  -0.06248  -0.01739  -0.00411
 Alpha virt. eigenvalues --    0.00446   0.01490   0.01955   0.02723   0.03480
 Alpha virt. eigenvalues --    0.03824   0.04089   0.04715   0.05084   0.05189

 Mulliken charges:
               1
     1  O   -0.164150
     2  O   -0.204137
     3  O   -0.271462
     4  O   -0.165413
     5  O   -0.246652
     6  O   -0.162581
     7  N   -0.055956
     8  N   -0.333189
     9  N   -0.117380
    10  N   -0.247827
    11  C    0.191668
    12  C    0.234974
    13  C   -0.106742
    14  C   -0.107980
    15  C   -0.092377
    16  C    0.071593
    17  C   -0.158929
    18  C    0.007439
    19  C   -0.064704
    20  C   -0.029502
    21  C    0.097234
    22  C    0.170092
    23  C   -0.071077
    24  C    0.007494
    25  C    0.137598
    26  C   -0.135077
    27  C    0.069773
    28  C    0.154400
    29  C    0.048880
    30  C   -0.014690
    31  C   -0.061407
    32  C    0.044952
    33  C   -0.134923
    34  C    0.166628
    35  C    0.088158
    36  C   -0.078674
    37  C    0.172492
    38  C    0.051235
    39  C   -0.219761
    40  C    0.124522
    41  C   -0.085627
    42  C    0.211776
    43  C   -0.012596
    44  H   -0.022960
    45  H   -0.064755
    46  H    0.037251
    47  H    0.123870
    48  H    0.168590
    49  H    0.025745
    50  H    0.019183
    51  H   -0.066478
    52  H    0.009470
    53  H    0.035581
    54  H    0.059092
    55  H    0.018576
    56  H    0.025569
    57  H   -0.024590
    58  H    0.042833
    59  H    0.019638
    60  H    0.134349
    61  H    0.035884
    62  H    0.021245
    63  H    0.052191
    64  H    0.056876
    65  H    0.046210
    66  H   -0.000861
    67  H    0.048583
    68  H    0.065835
    69  H    0.002178
    70  H    0.013035
    71  H    0.034370
    72  H    0.186788
    73  H    0.010818
    74  H   -0.000401
    75  H   -0.015350
    76  H   -0.005801
    77  H    0.188314
    78  H   -0.004209
    79  H    0.015234
 Sum of Mulliken charges =   0.00000

 Dipole moment (field-independent basis, Debye):
    X=              0.3612    Y=              3.4996    Z=              4.3657  Tot=              5.6069
 Quadrupole moment (field-independent basis, Debye-Ang):
   XX=           -220.5156   YY=           -234.0301   ZZ=           -259.0870
   XY=            -10.2453   XZ=             28.8564   YZ=              3.4676

 Normal termination of Gaussian 09 at Mon Jul  8 17:46:01 2019.
