 Gaussian 09, Revision D.01,
 Gaussian 09:  ES64L-G09RevD.01 24-Apr-2013

 --------------------------
 # td=(NStates=1) B3LYP/SVP
 --------------------------

 --
 TD
 --
 Symbolic Z-matrix:
 Charge =  0 Multiplicity = 1

                         Standard orientation:
 ---------------------------------------------------------------------
 Center     Atomic      Atomic             Coordinates (Angstroms)
 Number     Number       Type             X           Y           Z
 ---------------------------------------------------------------------
      1          8           0        5.286397   -0.348514   -3.432034
      2          8           0       -2.680546   -3.389139    3.545962
      3          8           0       -3.161801   -1.142533    3.531511
      4          8           0       -1.443314    7.164582    1.849704
      5          8           0       -0.259013    7.085040   -0.103624
      6          8           0       -2.153386   -3.911266   -0.240554
      7          7           0        2.374466    0.732568    0.593008
      8          7           0        4.333500   -0.786413   -1.313976
      9          7           0       -1.852922    0.780147   -0.424196
     10          7           0       -2.813852   -1.686865   -0.570822
     11          6           0        4.826514   -1.343108   -0.101977
     12          6           0        4.482619   -0.459645    1.191476
     13          6           0        3.001107   -0.372391    1.322176
     14          6           0        1.938269   -0.924639    2.073633
     15          6           0        0.735535   -0.282391    1.813696
     16          6           0        1.110211    0.746640    0.852889
     17          6           0        6.376989   -1.368376   -0.204552
     18          6           0       -0.603721   -0.482957    2.467291
     19          6           0        6.707532   -0.800243   -1.424493
     20          6           0        0.239647    1.763530    0.134836
     21          6           0       -1.011152    1.865550   -0.408618
     22          6           0        5.371221   -0.601862   -2.215541
     23          6           0       -1.798841    3.010992   -0.840097
     24          6           0        2.176168   -2.047643    2.933898
     25          6           0        7.216705   -2.001936    0.824118
     26          6           0       -2.990187    2.487011   -1.394940
     27          6           0       -1.124079   -1.929301    2.409862
     28          6           0       -3.070894    1.093157   -1.104873
     29          6           0       -1.192412    4.516437   -0.760659
     30          6           0        7.961105   -0.598691   -2.186693
     31          6           0       -1.520860    5.173802    0.649581
     32          6           0       -4.135082    3.218004   -1.910324
     33          6           0       -4.118137    0.157619   -1.326447
     34          6           0       -2.422771   -2.027105    3.176525
     35          6           0       -3.895002   -1.242644   -1.084518
     36          6           0        9.176237   -0.570659   -1.540859
     37          6           0       -1.052890    6.563839    0.706646
     38          6           0       -4.990885   -2.221996   -1.527620
     39          6           0       -4.311018   -3.409158   -1.197033
     40          6           0       -2.913003   -3.142138   -0.632133
     41          6           0       -6.322346   -1.944737   -2.004747
     42          6           0       -4.803335   -4.836158   -1.313029
     43          6           0       -7.028583   -2.760096   -2.954909
     44          1           0        4.601626   -2.422451    0.110834
     45          1           0        4.833792    0.604885    0.995616
     46          1           0        4.892160   -0.825765    2.103536
     47          1           0        2.919823    1.290142    0.111259
     48          1           0        3.353225   -0.859810   -1.783242
     49          1           0       -0.370946   -0.365336    3.458679
     50          1           0       -1.467074    0.179639    2.213226
     51          1           0        0.860902    2.616149   -0.083854
     52          1           0        3.363771   -2.339786    3.168258
     53          1           0        1.775998   -1.717063    3.791935
     54          1           0        1.743792   -2.884909    2.520050
     55          1           0        6.603212   -2.966871    1.262700
     56          1           0        7.341071   -1.323089    1.759230
     57          1           0        8.330804   -2.413232    0.534862
     58          1           0       -1.313316   -2.467126    1.432215
     59          1           0       -0.313903   -2.769038    2.746929
     60          1           0       -1.691404   -0.276239   -0.333212
     61          1           0       -1.631862    5.080582   -1.414056
     62          1           0       -0.107421    4.578600   -0.643616
     63          1           0        7.771658   -0.483417   -3.421984
     64          1           0       -1.003299    4.551972    1.596170
     65          1           0       -2.546515    5.252717    0.847670
     66          1           0       -3.896058    4.458948   -2.030377
     67          1           0       -4.959074    3.129895   -1.113809
     68          1           0       -4.204152    2.864160   -2.945813
     69          1           0       -4.945640    0.552202   -2.012879
     70          1           0        9.466564   -0.533415   -0.491204
     71          1           0       10.006132   -0.386971   -2.199194
     72          1           0       -3.556046   -3.469270    4.196462
     73          1           0       -6.790153   -0.918565   -1.523238
     74          1           0       -4.046412   -5.367395   -2.301191
     75          1           0       -4.524903   -5.608557   -0.290216
     76          1           0       -5.914950   -4.887602   -1.597475
     77          1           0       -1.254098    8.235842    1.739131
     78          1           0       -7.902054   -2.516089   -3.073831
     79          1           0       -6.508253   -3.907407   -3.060798
 ---------------------------------------------------------------------

 SCF Done:  E(RB3LYP) =  -1947.73168758     A.U. after   16 cycles

 Excitation energies and oscillator strengths:

 Excited State   1:      Singlet-A      2.0119 eV  616.24 nm  f=0.4310  <S**2>=0.000
     155 ->156         0.70043
     155 <-156        -0.10153
 This state for optimization and/or second-order correction.
 Total Energy, E(TD-HF/TD-KS) =  -1947.65775002
 Copying the excited state density for this state as the 1-particle RhoCI density.

 The electronic state is 1-A.
 Alpha  occ. eigenvalues --  -19.19719 -19.15759 -19.12989 -19.12562 -19.12206
 Alpha  occ. eigenvalues --  -19.10606 -14.37458 -14.37019 -14.35021 -14.29534
 Alpha  occ. eigenvalues --  -10.32564 -10.30988 -10.29092 -10.27862 -10.25947
 Alpha  occ. eigenvalues --  -10.24146 -10.23753 -10.23736 -10.23595 -10.23567
 Alpha  occ. eigenvalues --  -10.23125 -10.22829 -10.22678 -10.22373 -10.22224
 Alpha  occ. eigenvalues --  -10.22159 -10.21987 -10.21863 -10.21741 -10.21433
 Alpha  occ. eigenvalues --  -10.21114 -10.20884 -10.20849 -10.20844 -10.20770
 Alpha  occ. eigenvalues --  -10.20484 -10.20164 -10.19664 -10.19261 -10.19112
 Alpha  occ. eigenvalues --  -10.19068 -10.18915 -10.18747  -1.08604  -1.06739
 Alpha  occ. eigenvalues --   -1.05451  -1.01451  -0.99417  -0.99196  -0.96665
 Alpha  occ. eigenvalues --   -0.96397  -0.94177  -0.93079  -0.82946  -0.81631
 Alpha  occ. eigenvalues --   -0.81463  -0.80858  -0.79936  -0.79558  -0.77695
 Alpha  occ. eigenvalues --   -0.77217  -0.75738  -0.74734  -0.73561  -0.72753
 Alpha  occ. eigenvalues --   -0.71479  -0.70333  -0.69054  -0.68292  -0.67998
 Alpha  occ. eigenvalues --   -0.67367  -0.65365  -0.63289  -0.60983  -0.60332
 Alpha  occ. eigenvalues --   -0.59288  -0.58435  -0.58158  -0.56914  -0.55761
 Alpha  occ. eigenvalues --   -0.55276  -0.54844  -0.54578  -0.53545  -0.52638
 Alpha  occ. eigenvalues --   -0.52113  -0.51504  -0.50589  -0.50334  -0.49696
 Alpha  occ. eigenvalues --   -0.49034  -0.48232  -0.47804  -0.47666  -0.46987
 Alpha  occ. eigenvalues --   -0.46612  -0.46431  -0.46144  -0.45638  -0.45485
 Alpha  occ. eigenvalues --   -0.45260  -0.45136  -0.44685  -0.44294  -0.44105
 Alpha  occ. eigenvalues --   -0.43562  -0.43313  -0.42694  -0.42572  -0.42355
 Alpha  occ. eigenvalues --   -0.42165  -0.41756  -0.41607  -0.40978  -0.40674
 Alpha  occ. eigenvalues --   -0.40606  -0.40105  -0.39813  -0.39574  -0.39264
 Alpha  occ. eigenvalues --   -0.38831  -0.38605  -0.38134  -0.37854  -0.37676
 Alpha  occ. eigenvalues --   -0.37484  -0.37450  -0.37277  -0.37105  -0.36658
 Alpha  occ. eigenvalues --   -0.36193  -0.35726  -0.35446  -0.35064  -0.34699
 Alpha  occ. eigenvalues --   -0.34336  -0.33554  -0.32338  -0.31774  -0.31367
 Alpha  occ. eigenvalues --   -0.30476  -0.30190  -0.29490  -0.28482  -0.28350
 Alpha  occ. eigenvalues --   -0.27263  -0.27169  -0.25788  -0.25270  -0.25152
 Alpha  occ. eigenvalues --   -0.24491  -0.23734  -0.22848  -0.22256  -0.18580
 Alpha virt. eigenvalues --   -0.10582  -0.07012  -0.05877  -0.02032  -0.01958
 Alpha virt. eigenvalues --    0.00364   0.00754   0.00899   0.01336   0.02624
 Alpha virt. eigenvalues --    0.03190   0.03505   0.04052   0.04200   0.04473

 Mulliken charges:
               1
     1  O   -0.252379
     2  O   -0.316273
     3  O   -0.213396
     4  O   -0.240669
     5  O   -0.265974
     6  O   -0.110249
     7  N    0.026145
     8  N   -0.203123
     9  N   -0.153001
    10  N   -0.278930
    11  C    0.088967
    12  C    0.186054
    13  C   -0.086565
    14  C   -0.158416
    15  C   -0.088396
    16  C   -0.012559
    17  C   -0.137649
    18  C    0.190912
    19  C   -0.055573
    20  C   -0.054535
    21  C    0.097976
    22  C    0.143117
    23  C   -0.077266
    24  C    0.124298
    25  C   -0.037967
    26  C   -0.136467
    27  C   -0.113446
    28  C    0.084341
    29  C    0.235891
    30  C   -0.056632
    31  C   -0.064491
    32  C    0.016562
    33  C   -0.129376
    34  C    0.178293
    35  C    0.068816
    36  C   -0.031064
    37  C    0.152665
    38  C    0.044551
    39  C   -0.178549
    40  C    0.172444
    41  C   -0.119995
    42  C   -0.084044
    43  C    0.050609
    44  H    0.027163
    45  H    0.004727
    46  H   -0.006214
    47  H    0.053977
    48  H    0.172424
    49  H   -0.021978
    50  H    0.038836
    51  H   -0.031135
    52  H    0.009783
    53  H   -0.007476
    54  H    0.033461
    55  H    0.036662
    56  H    0.054923
    57  H    0.070683
    58  H    0.070389
    59  H    0.038967
    60  H    0.172170
    61  H   -0.047669
    62  H    0.027663
    63  H    0.083569
    64  H    0.085846
    65  H    0.017260
    66  H    0.027623
    67  H    0.067606
    68  H    0.045908
    69  H    0.005704
    70  H    0.029656
    71  H    0.018155
    72  H    0.223504
    73  H    0.052634
    74  H    0.058029
    75  H    0.072658
    76  H    0.048089
    77  H    0.239635
    78  H   -0.052122
    79  H    0.074232
 Sum of Mulliken charges =   0.00000

 Dipole moment (field-independent basis, Debye):
    X=              0.3639    Y=              1.9037    Z=              3.5775  Tot=              4.0688
 Quadrupole moment (field-independent basis, Debye-Ang):
   XX=           -224.1400   YY=           -241.5981   ZZ=           -266.0959
   XY=            -15.0635   XZ=             31.0053   YZ=              2.3930

 Normal termination of Gaussian 09 at Sun Jul  7 20:59:36 2019.
