 Gaussian 09, Revision D.01,
 Gaussian 09:  ES64L-G09RevD.01 24-Apr-2013

 --------------------------
 # td=(NStates=1) B3LYP/SVP
 --------------------------

 --
 TD
 --
 Symbolic Z-matrix:
 Charge =  0 Multiplicity = 1

                         Standard orientation:
 ---------------------------------------------------------------------
 Center     Atomic      Atomic             Coordinates (Angstroms)
 Number     Number       Type             X           Y           Z
 ---------------------------------------------------------------------
      1          8           0        5.400012   -0.141056   -3.287674
      2          8           0       -2.831861   -3.167851    3.585044
      3          8           0       -3.237143   -0.922409    3.140231
      4          8           0       -1.653195    7.447093    1.472177
      5          8           0       -0.115928    6.938692   -0.179793
      6          8           0       -2.070027   -3.962260   -0.125831
      7          7           0        2.392066    0.796106    0.533539
      8          7           0        4.446040   -0.754027   -1.275649
      9          7           0       -1.903170    0.762260   -0.352055
     10          7           0       -2.823302   -1.794770   -0.511613
     11          6           0        4.844446   -1.275351   -0.020196
     12          6           0        4.449623   -0.410866    1.121287
     13          6           0        3.045398   -0.195175    1.353112
     14          6           0        2.053562   -0.913849    2.019157
     15          6           0        0.767389   -0.262553    1.751045
     16          6           0        0.954341    0.719934    0.726852
     17          6           0        6.394802   -1.401201   -0.208485
     18          6           0       -0.516458   -0.496390    2.513509
     19          6           0        6.761673   -0.893292   -1.435273
     20          6           0        0.229920    1.893727    0.119673
     21          6           0       -1.131748    1.882245   -0.119331
     22          6           0        5.477363   -0.559222   -2.181375
     23          6           0       -1.869270    2.965451   -0.750953
     24          6           0        2.264798   -2.012509    2.951775
     25          6           0        7.230864   -1.812892    0.918391
     26          6           0       -3.185428    2.441887   -1.138037
     27          6           0       -0.934709   -1.958506    2.588571
     28          6           0       -3.110016    1.026130   -0.958541
     29          6           0       -1.462710    4.393290   -0.779680
     30          6           0        8.074255   -0.660379   -2.106617
     31          6           0       -1.752851    5.241633    0.536115
     32          6           0       -4.282238    3.107463   -1.900956
     33          6           0       -4.059485    0.107717   -1.340815
     34          6           0       -2.446179   -1.849716    3.184932
     35          6           0       -3.835763   -1.323526   -1.127231
     36          6           0        9.342565   -0.785781   -1.562536
     37          6           0       -1.065051    6.627835    0.527575
     38          6           0       -4.765665   -2.395136   -1.591385
     39          6           0       -4.257150   -3.609931   -1.212871
     40          6           0       -2.873481   -3.215200   -0.521084
     41          6           0       -5.978646   -2.127968   -2.285242
     42          6           0       -4.690680   -5.074242   -1.416754
     43          6           0       -7.147941   -3.014148   -2.518643
     44          1           0        4.474094   -2.296589    0.343505
     45          1           0        5.031790    0.489659    1.048123
     46          1           0        5.187402   -0.503407    2.014040
     47          1           0        2.811893    1.341638   -0.143423
     48          1           0        3.359131   -0.878598   -1.778411
     49          1           0       -0.591816    0.036885    3.501386
     50          1           0       -1.247689    0.167923    1.982342
     51          1           0        0.687241    2.762384    0.058044
     52          1           0        3.239453   -2.165116    3.192987
     53          1           0        1.519702   -1.748074    3.951132
     54          1           0        1.777347   -3.067716    2.580586
     55          1           0        6.565333   -2.400550    1.537849
     56          1           0        7.413918   -0.925606    1.541082
     57          1           0        8.102138   -2.544733    0.577203
     58          1           0       -1.150329   -2.344796    1.554581
     59          1           0       -0.422110   -2.686657    3.072525
     60          1           0       -1.812994   -0.212057   -0.257030
     61          1           0       -1.948998    4.886106   -1.643289
     62          1           0       -0.461462    4.378435   -1.111439
     63          1           0        7.938307   -0.290450   -3.101149
     64          1           0       -1.406250    4.649283    1.459210
     65          1           0       -2.818013    5.586836    0.618012
     66          1           0       -3.975000    4.106639   -2.114196
     67          1           0       -5.136105    3.188676   -1.133875
     68          1           0       -4.633718    2.499714   -2.634334
     69          1           0       -4.952686    0.604427   -1.729488
     70          1           0        9.409119   -0.977265   -0.563288
     71          1           0       10.028242   -0.388070   -2.353804
     72          1           0       -3.741575   -3.134058    3.694246
     73          1           0       -6.121039   -0.885791   -2.367975
     74          1           0       -5.143830   -5.518564   -2.526661
     75          1           0       -3.773252   -5.748538   -1.204520
     76          1           0       -5.544752   -5.177545   -0.550689
     77          1           0       -1.186945    8.306609    1.493038
     78          1           0       -8.115207   -2.574602   -2.996987
     79          1           0       -7.230826   -4.097966   -2.418062
 ---------------------------------------------------------------------

 SCF Done:  E(RB3LYP) =  -1947.83232843     A.U. after   16 cycles

 Excitation energies and oscillator strengths:

 Excited State   1:      Singlet-A      2.1095 eV  587.74 nm  f=0.4718  <S**2>=0.000
     155 ->156         0.69604
 This state for optimization and/or second-order correction.
 Total Energy, E(TD-HF/TD-KS) =  -1947.75480495
 Copying the excited state density for this state as the 1-particle RhoCI density.

 The electronic state is 1-A.
 Alpha  occ. eigenvalues --  -19.19307 -19.15840 -19.13991 -19.13201 -19.12463
 Alpha  occ. eigenvalues --  -19.10290 -14.36827 -14.36081 -14.35396 -14.29947
 Alpha  occ. eigenvalues --  -10.33446 -10.31761 -10.28185 -10.28132 -10.25003
 Alpha  occ. eigenvalues --  -10.24469 -10.24251 -10.23793 -10.23737 -10.23029
 Alpha  occ. eigenvalues --  -10.23000 -10.22736 -10.22707 -10.21991 -10.21782
 Alpha  occ. eigenvalues --  -10.21666 -10.21638 -10.21456 -10.21087 -10.20941
 Alpha  occ. eigenvalues --  -10.20889 -10.20880 -10.20636 -10.20183 -10.20070
 Alpha  occ. eigenvalues --  -10.19967 -10.19924 -10.19910 -10.19524 -10.19450
 Alpha  occ. eigenvalues --  -10.19390 -10.19389 -10.19277  -1.09163  -1.06813
 Alpha  occ. eigenvalues --   -1.05679  -1.03981  -1.01108  -0.99508  -0.98114
 Alpha  occ. eigenvalues --   -0.95342  -0.93980  -0.93816  -0.82389  -0.81732
 Alpha  occ. eigenvalues --   -0.81381  -0.80891  -0.80224  -0.79700  -0.77566
 Alpha  occ. eigenvalues --   -0.76938  -0.75916  -0.75458  -0.73163  -0.72161
 Alpha  occ. eigenvalues --   -0.71385  -0.70959  -0.69186  -0.68747  -0.68120
 Alpha  occ. eigenvalues --   -0.66141  -0.65777  -0.63495  -0.61118  -0.60586
 Alpha  occ. eigenvalues --   -0.60437  -0.59325  -0.58020  -0.57473  -0.56066
 Alpha  occ. eigenvalues --   -0.56050  -0.55108  -0.54665  -0.53762  -0.52993
 Alpha  occ. eigenvalues --   -0.52303  -0.51580  -0.51066  -0.49946  -0.49531
 Alpha  occ. eigenvalues --   -0.48980  -0.48523  -0.47893  -0.47711  -0.47566
 Alpha  occ. eigenvalues --   -0.47203  -0.46617  -0.46418  -0.45975  -0.45691
 Alpha  occ. eigenvalues --   -0.45285  -0.45095  -0.44556  -0.44425  -0.43996
 Alpha  occ. eigenvalues --   -0.43566  -0.43195  -0.42728  -0.42558  -0.42278
 Alpha  occ. eigenvalues --   -0.42077  -0.41632  -0.41466  -0.41346  -0.41237
 Alpha  occ. eigenvalues --   -0.41147  -0.40618  -0.40260  -0.39972  -0.39940
 Alpha  occ. eigenvalues --   -0.39847  -0.39444  -0.38930  -0.38553  -0.38200
 Alpha  occ. eigenvalues --   -0.38134  -0.38049  -0.37332  -0.37015  -0.36780
 Alpha  occ. eigenvalues --   -0.36665  -0.36090  -0.35598  -0.35086  -0.34623
 Alpha  occ. eigenvalues --   -0.34436  -0.33451  -0.33426  -0.32361  -0.31401
 Alpha  occ. eigenvalues --   -0.31284  -0.31060  -0.29096  -0.28932  -0.28905
 Alpha  occ. eigenvalues --   -0.27610  -0.26663  -0.25779  -0.24849  -0.24717
 Alpha  occ. eigenvalues --   -0.24094  -0.23583  -0.23402  -0.21978  -0.19286
 Alpha virt. eigenvalues --   -0.10938  -0.07227  -0.05888  -0.01934  -0.01292
 Alpha virt. eigenvalues --    0.00019   0.00319   0.00916   0.02047   0.02411
 Alpha virt. eigenvalues --    0.03515   0.03971   0.04314   0.04822   0.04916

 Mulliken charges:
               1
     1  O   -0.184415
     2  O   -0.208105
     3  O   -0.219848
     4  O   -0.211409
     5  O   -0.225554
     6  O   -0.131215
     7  N   -0.149693
     8  N   -0.257955
     9  N   -0.045015
    10  N   -0.246125
    11  C    0.117563
    12  C    0.104331
    13  C    0.040940
    14  C   -0.106392
    15  C   -0.087617
    16  C    0.086446
    17  C   -0.236299
    18  C    0.070170
    19  C   -0.052330
    20  C   -0.017047
    21  C    0.134866
    22  C    0.137696
    23  C   -0.152918
    24  C    0.034877
    25  C    0.094628
    26  C   -0.166488
    27  C    0.041505
    28  C    0.050924
    29  C    0.129119
    30  C   -0.035004
    31  C   -0.009584
    32  C    0.176466
    33  C   -0.107505
    34  C    0.144862
    35  C    0.111330
    36  C    0.037291
    37  C    0.145796
    38  C    0.044989
    39  C   -0.186296
    40  C    0.139562
    41  C   -0.079427
    42  C   -0.048268
    43  C   -0.077099
    44  H    0.018808
    45  H   -0.046976
    46  H   -0.000259
    47  H    0.091030
    48  H    0.191775
    49  H    0.017161
    50  H    0.005719
    51  H   -0.047546
    52  H   -0.016814
    53  H    0.043991
    54  H    0.054517
    55  H   -0.000609
    56  H    0.043907
    57  H    0.069756
    58  H    0.073635
    59  H   -0.004860
    60  H    0.106376
    61  H    0.002000
    62  H    0.004287
    63  H   -0.001345
    64  H    0.069954
    65  H    0.046606
    66  H    0.002213
    67  H    0.027324
    68  H    0.011192
    69  H   -0.029312
    70  H   -0.012744
    71  H    0.045645
    72  H    0.142174
    73  H    0.035012
    74  H    0.065576
    75  H    0.055607
    76  H    0.062542
    77  H    0.189299
    78  H    0.046147
    79  H    0.036458
 Sum of Mulliken charges =   0.00000

 Dipole moment (field-independent basis, Debye):
    X=             -0.3492    Y=              2.4428    Z=              2.7125  Tot=              3.6670
 Quadrupole moment (field-independent basis, Debye-Ang):
   XX=           -229.6323   YY=           -237.1380   ZZ=           -264.9804
   XY=            -10.7682   XZ=             31.0225   YZ=              3.9546

 Normal termination of Gaussian 09 at Mon Jul  8 13:38:39 2019.
