 Gaussian 09, Revision D.01,
 Gaussian 09:  ES64L-G09RevD.01 24-Apr-2013

 --------------------------
 # td=(NStates=1) B3LYP/SVP
 --------------------------

 --
 TD
 --
 Symbolic Z-matrix:
 Charge =  0 Multiplicity = 1

                         Standard orientation:
 ---------------------------------------------------------------------
 Center     Atomic      Atomic             Coordinates (Angstroms)
 Number     Number       Type             X           Y           Z
 ---------------------------------------------------------------------
      1          8           0        5.596941   -0.546699   -3.396451
      2          8           0       -3.101852   -3.278566    2.941968
      3          8           0       -3.217623   -0.930821    3.375727
      4          8           0       -1.245215    7.139287    1.644397
      5          8           0       -0.121467    6.916083   -0.298848
      6          8           0       -2.386133   -4.002042   -0.117394
      7          7           0        2.343273    0.846968    0.514970
      8          7           0        4.430345   -0.897266   -1.347243
      9          7           0       -1.904431    0.707199   -0.368361
     10          7           0       -2.850373   -1.720569   -0.507494
     11          6           0        4.958676   -1.358517   -0.037111
     12          6           0        4.563420   -0.409319    1.147482
     13          6           0        3.002377   -0.147591    1.220040
     14          6           0        2.069946   -0.832588    2.047801
     15          6           0        0.766906   -0.176871    1.736459
     16          6           0        0.997472    0.880413    0.834691
     17          6           0        6.385379   -1.436735   -0.206986
     18          6           0       -0.474804   -0.420516    2.455030
     19          6           0        6.786894   -0.967914   -1.342193
     20          6           0        0.196792    1.895846    0.129451
     21          6           0       -1.033048    1.746230   -0.425729
     22          6           0        5.607899   -0.713549   -2.234848
     23          6           0       -1.771628    2.984137   -0.804219
     24          6           0        2.342685   -1.878145    2.977196
     25          6           0        7.199132   -1.817061    1.036969
     26          6           0       -3.031014    2.479755   -1.188181
     27          6           0       -1.119579   -1.777702    2.459361
     28          6           0       -3.095807    1.112625   -0.985209
     29          6           0       -1.280455    4.388722   -0.824136
     30          6           0        8.125419   -0.929282   -2.002960
     31          6           0       -1.599530    5.109370    0.476195
     32          6           0       -4.169215    3.252696   -1.784330
     33          6           0       -4.135640    0.099907   -1.279453
     34          6           0       -2.542945   -1.850820    2.960188
     35          6           0       -3.979813   -1.198321   -1.028151
     36          6           0        9.350593   -0.835674   -1.440180
     37          6           0       -0.897489    6.513484    0.547571
     38          6           0       -5.017436   -2.218718   -1.315454
     39          6           0       -4.466304   -3.448738   -1.077052
     40          6           0       -3.089168   -3.128511   -0.449093
     41          6           0       -6.207386   -1.882682   -2.055704
     42          6           0       -4.990393   -4.832565   -1.215846
     43          6           0       -7.123521   -2.764189   -2.612971
     44          1           0        4.474385   -2.347329    0.186752
     45          1           0        5.151589    0.426832    1.059336
     46          1           0        4.736534   -1.277366    2.093154
     47          1           0        2.834259    1.684002   -0.010636
     48          1           0        3.604707   -0.794439   -1.699916
     49          1           0       -0.311332   -0.247699    3.322135
     50          1           0       -1.245171    0.444465    2.143155
     51          1           0        0.823588    2.712661   -0.153502
     52          1           0        3.451604   -2.003949    3.033848
     53          1           0        2.035895   -1.638379    4.014817
     54          1           0        1.841856   -2.797656    2.632537
     55          1           0        6.580418   -2.581026    1.642484
     56          1           0        7.522496   -0.893415    1.641351
     57          1           0        8.108729   -2.509602    0.834908
     58          1           0       -1.126530   -2.509453    1.565624
     59          1           0       -0.520237   -2.500259    3.124674
     60          1           0       -1.834762   -0.333812   -0.402857
     61          1           0       -1.611617    4.984596   -1.536026
     62          1           0       -0.203447    4.378509   -0.977857
     63          1           0        8.197349   -0.718617   -3.177660
     64          1           0       -1.217275    4.511998    1.428886
     65          1           0       -2.529389    5.361232    0.558412
     66          1           0       -4.030717    4.250901   -2.128415
     67          1           0       -4.981238    3.359737   -1.023439
     68          1           0       -4.572209    2.835573   -2.766331
     69          1           0       -5.089248    0.432617   -1.552767
     70          1           0        9.585645   -1.177133   -0.410097
     71          1           0       10.037584   -0.759566   -2.325027
     72          1           0       -3.993272   -3.197765    3.248703
     73          1           0       -6.596954   -0.756072   -2.144245
     74          1           0       -5.304940   -5.093282   -2.324299
     75          1           0       -4.252543   -5.624275   -0.837753
     76          1           0       -6.212266   -4.924107   -0.706585
     77          1           0       -0.621680    7.936617    1.552277
     78          1           0       -7.971488   -2.315372   -3.095919
     79          1           0       -7.059718   -3.874478   -2.359784
 ---------------------------------------------------------------------

 SCF Done:  E(RB3LYP) =  -1947.81736544     A.U. after   16 cycles

 Excitation energies and oscillator strengths:

 Excited State   1:      Singlet-A      2.1490 eV  576.95 nm  f=0.3850  <S**2>=0.000
     154 ->156         0.22824
     155 ->156         0.66315
     155 <-156        -0.10109
 This state for optimization and/or second-order correction.
 Total Energy, E(TD-HF/TD-KS) =  -1947.73839208
 Copying the excited state density for this state as the 1-particle RhoCI density.

 The electronic state is 1-A.
 Alpha  occ. eigenvalues --  -19.21310 -19.14234 -19.13946 -19.12978 -19.11362
 Alpha  occ. eigenvalues --  -19.09866 -14.39322 -14.36050 -14.33334 -14.28546
 Alpha  occ. eigenvalues --  -10.33423 -10.31541 -10.28731 -10.25821 -10.24936
 Alpha  occ. eigenvalues --  -10.24837 -10.24656 -10.24231 -10.23570 -10.23293
 Alpha  occ. eigenvalues --  -10.22771 -10.22547 -10.22350 -10.21728 -10.21500
 Alpha  occ. eigenvalues --  -10.21497 -10.21410 -10.21057 -10.20805 -10.20541
 Alpha  occ. eigenvalues --  -10.20447 -10.20420 -10.20280 -10.20062 -10.20057
 Alpha  occ. eigenvalues --  -10.19915 -10.19858 -10.19750 -10.19254 -10.19130
 Alpha  occ. eigenvalues --  -10.19060 -10.18128 -10.18058  -1.12940  -1.04931
 Alpha  occ. eigenvalues --   -1.04663  -1.03311  -1.02406  -0.98556  -0.97732
 Alpha  occ. eigenvalues --   -0.96774  -0.93372  -0.91191  -0.83625  -0.82853
 Alpha  occ. eigenvalues --   -0.82229  -0.81674  -0.79644  -0.79507  -0.78496
 Alpha  occ. eigenvalues --   -0.77701  -0.76493  -0.75237  -0.73491  -0.72792
 Alpha  occ. eigenvalues --   -0.71979  -0.71584  -0.69651  -0.69396  -0.68273
 Alpha  occ. eigenvalues --   -0.67443  -0.65837  -0.63483  -0.60849  -0.59903
 Alpha  occ. eigenvalues --   -0.59527  -0.58835  -0.58252  -0.57436  -0.56301
 Alpha  occ. eigenvalues --   -0.56077  -0.55482  -0.54447  -0.53238  -0.52411
 Alpha  occ. eigenvalues --   -0.51977  -0.51472  -0.51408  -0.51138  -0.50730
 Alpha  occ. eigenvalues --   -0.50227  -0.49301  -0.48597  -0.48000  -0.47351
 Alpha  occ. eigenvalues --   -0.46909  -0.46760  -0.46396  -0.46172  -0.45580
 Alpha  occ. eigenvalues --   -0.45388  -0.45046  -0.44667  -0.43946  -0.43840
 Alpha  occ. eigenvalues --   -0.43383  -0.43148  -0.42901  -0.42620  -0.42557
 Alpha  occ. eigenvalues --   -0.42097  -0.41951  -0.41758  -0.41626  -0.41446
 Alpha  occ. eigenvalues --   -0.41202  -0.40750  -0.40484  -0.40212  -0.39968
 Alpha  occ. eigenvalues --   -0.39812  -0.39312  -0.39267  -0.38786  -0.38559
 Alpha  occ. eigenvalues --   -0.38207  -0.38135  -0.37793  -0.37618  -0.37068
 Alpha  occ. eigenvalues --   -0.36553  -0.36441  -0.35468  -0.35030  -0.34573
 Alpha  occ. eigenvalues --   -0.34303  -0.34270  -0.33915  -0.32211  -0.31945
 Alpha  occ. eigenvalues --   -0.30450  -0.29632  -0.29596  -0.28352  -0.28042
 Alpha  occ. eigenvalues --   -0.27169  -0.26396  -0.26226  -0.25769  -0.25217
 Alpha  occ. eigenvalues --   -0.24275  -0.23457  -0.23257  -0.21596  -0.19525
 Alpha virt. eigenvalues --   -0.11001  -0.05870  -0.05523  -0.00689  -0.00614
 Alpha virt. eigenvalues --    0.00301   0.00410   0.00848   0.01642   0.02150
 Alpha virt. eigenvalues --    0.03032   0.03445   0.04283   0.04666   0.04952

 Mulliken charges:
               1
     1  O   -0.155671
     2  O   -0.289635
     3  O   -0.206960
     4  O   -0.150032
     5  O   -0.241904
     6  O   -0.154295
     7  N   -0.124170
     8  N   -0.233789
     9  N   -0.069381
    10  N   -0.335196
    11  C    0.115150
    12  C    0.149671
    13  C   -0.047192
    14  C   -0.138807
    15  C   -0.106025
    16  C    0.050208
    17  C   -0.154374
    18  C    0.237548
    19  C   -0.025701
    20  C   -0.073342
    21  C    0.143671
    22  C    0.145049
    23  C   -0.119783
    24  C    0.108653
    25  C    0.017834
    26  C   -0.110184
    27  C   -0.051624
    28  C    0.081519
    29  C    0.228103
    30  C   -0.074507
    31  C    0.015836
    32  C    0.078377
    33  C   -0.077427
    34  C    0.169893
    35  C    0.116945
    36  C   -0.039030
    37  C    0.106475
    38  C    0.090627
    39  C   -0.160634
    40  C    0.152721
    41  C   -0.104444
    42  C   -0.043637
    43  C   -0.032703
    44  H    0.018457
    45  H   -0.043324
    46  H    0.046892
    47  H    0.158486
    48  H    0.063216
    49  H   -0.097968
    50  H    0.038155
    51  H   -0.026421
    52  H   -0.016225
    53  H    0.025223
    54  H    0.047815
    55  H    0.026191
    56  H    0.066105
    57  H    0.046725
    58  H    0.073638
    59  H    0.033095
    60  H    0.156836
    61  H   -0.042464
    62  H   -0.000142
    63  H    0.048125
    64  H    0.065662
    65  H   -0.018206
    66  H   -0.010063
    67  H    0.031698
    68  H    0.034696
    69  H   -0.059761
    70  H    0.027013
    71  H    0.039261
    72  H    0.162411
    73  H    0.025485
    74  H    0.050461
    75  H    0.057731
    76  H    0.049777
    77  H    0.193890
    78  H    0.016075
    79  H    0.023622
 Sum of Mulliken charges =   0.00000

 Dipole moment (field-independent basis, Debye):
    X=              2.2001    Y=              5.1145    Z=              3.1568  Tot=              6.4003
 Quadrupole moment (field-independent basis, Debye-Ang):
   XX=           -229.9436   YY=           -241.1602   ZZ=           -265.9134
   XY=            -15.7000   XZ=             33.6725   YZ=              1.2243

 Normal termination of Gaussian 09 at Mon Jul  8 10:15:00 2019.
