 Gaussian 09, Revision D.01,
 Gaussian 09:  ES64L-G09RevD.01 24-Apr-2013

 --------------------------
 # td=(NStates=1) B3LYP/SVP
 --------------------------

 --
 TD
 --
 Symbolic Z-matrix:
 Charge =  0 Multiplicity = 1

                         Standard orientation:
 ---------------------------------------------------------------------
 Center     Atomic      Atomic             Coordinates (Angstroms)
 Number     Number       Type             X           Y           Z
 ---------------------------------------------------------------------
      1          8           0        5.462553   -0.254438   -3.370392
      2          8           0       -2.775613   -2.915114    3.474473
      3          8           0       -3.227042   -0.685161    3.308428
      4          8           0       -2.013048    7.124135    1.399547
      5          8           0       -0.821053    6.872282   -0.553895
      6          8           0       -1.947274   -3.969369    0.112971
      7          7           0        2.354034    1.051090    0.503239
      8          7           0        4.503131   -0.583917   -1.231345
      9          7           0       -1.862594    0.561410   -0.454702
     10          7           0       -2.673325   -1.983853   -0.595473
     11          6           0        4.952875   -1.161266    0.041081
     12          6           0        4.527891   -0.162822    1.124183
     13          6           0        3.085400    0.137733    1.327026
     14          6           0        2.128880   -0.560234    2.159207
     15          6           0        0.792737    0.100180    1.830578
     16          6           0        1.098798    1.067497    0.785530
     17          6           0        6.372179   -1.292877   -0.204956
     18          6           0       -0.437184   -0.056928    2.658912
     19          6           0        6.829677   -0.820699   -1.387817
     20          6           0        0.164059    1.921081    0.047554
     21          6           0       -1.165807    1.803530   -0.326515
     22          6           0        5.540372   -0.478253   -2.160979
     23          6           0       -2.019890    2.838622   -0.941615
     24          6           0        2.330025   -1.585972    3.163479
     25          6           0        7.287476   -1.685603    0.937945
     26          6           0       -3.277237    2.338453   -1.287896
     27          6           0       -0.959686   -1.531227    2.768661
     28          6           0       -3.075272    0.816524   -1.065407
     29          6           0       -1.644096    4.290206   -1.008918
     30          6           0        8.078103   -0.820353   -1.969128
     31          6           0       -1.963714    4.961719    0.375747
     32          6           0       -4.375844    2.899409   -2.062870
     33          6           0       -4.058309   -0.130082   -1.347183
     34          6           0       -2.437006   -1.625065    3.217495
     35          6           0       -3.819680   -1.614561   -1.126710
     36          6           0        9.311972   -0.893690   -1.610397
     37          6           0       -1.458135    6.450746    0.328642
     38          6           0       -4.646603   -2.695783   -1.453955
     39          6           0       -4.067462   -3.829200   -0.999874
     40          6           0       -2.765233   -3.346058   -0.388829
     41          6           0       -6.042691   -2.497353   -1.995098
     42          6           0       -4.598389   -5.258964   -1.077947
     43          6           0       -6.615100   -3.465633   -2.738246
     44          1           0        4.509098   -2.133525    0.240905
     45          1           0        5.009211    0.806474    1.009748
     46          1           0        4.990522   -0.427521    2.097046
     47          1           0        2.698219    1.771243   -0.258529
     48          1           0        3.623129   -0.483306   -1.736287
     49          1           0       -0.314124    0.390054    3.714794
     50          1           0       -1.349173    0.517226    2.253959
     51          1           0        0.484795    2.911298   -0.276459
     52          1           0        3.519348   -1.488587    3.491213
     53          1           0        1.887020   -1.407768    4.010204
     54          1           0        2.191970   -2.719689    2.873910
     55          1           0        7.032268   -2.503700    1.700533
     56          1           0        7.329997   -0.732216    1.606323
     57          1           0        8.268159   -2.206272    0.532563
     58          1           0       -1.122580   -2.136373    1.713147
     59          1           0       -0.310148   -1.933490    3.413433
     60          1           0       -1.948141   -0.416191   -0.323640
     61          1           0       -2.062764    4.996390   -1.708393
     62          1           0       -0.540810    4.507021   -1.144702
     63          1           0        8.008579   -0.462619   -3.146586
     64          1           0       -1.354709    4.399894    1.164848
     65          1           0       -3.098795    4.774030    0.677585
     66          1           0       -4.220714    4.039716   -2.010112
     67          1           0       -5.237472    2.764085   -1.484340
     68          1           0       -4.533552    2.496834   -3.091403
     69          1           0       -5.002867    0.261379   -1.843144
     70          1           0        9.545663   -1.165590   -0.628166
     71          1           0       10.169025   -0.612414   -2.436968
     72          1           0       -3.855725   -3.025080    3.267680
     73          1           0       -6.425588   -1.525346   -1.981617
     74          1           0       -3.974434   -5.751482   -1.983547
     75          1           0       -4.422986   -5.998104   -0.121034
     76          1           0       -5.782414   -5.360717   -1.134011
     77          1           0       -1.669686    8.225395    1.379640
     78          1           0       -7.845474   -3.239053   -2.921045
     79          1           0       -6.310378   -4.502246   -3.108827
 ---------------------------------------------------------------------

 SCF Done:  E(RB3LYP) =  -1947.79710129     A.U. after   16 cycles

 Excitation energies and oscillator strengths:

 Excited State   1:      Singlet-A      2.0367 eV  608.76 nm  f=0.3824  <S**2>=0.000
     155 ->156         0.70262
 This state for optimization and/or second-order correction.
 Total Energy, E(TD-HF/TD-KS) =  -1947.72225555
 Copying the excited state density for this state as the 1-particle RhoCI density.

 The electronic state is 1-A.
 Alpha  occ. eigenvalues --  -19.19660 -19.17354 -19.14763 -19.11359 -19.11278
 Alpha  occ. eigenvalues --  -19.10109 -14.39244 -14.35403 -14.35104 -14.28984
 Alpha  occ. eigenvalues --  -10.33078 -10.30777 -10.28346 -10.26800 -10.25486
 Alpha  occ. eigenvalues --  -10.25085 -10.24415 -10.23824 -10.23354 -10.23120
 Alpha  occ. eigenvalues --  -10.22478 -10.22323 -10.22267 -10.22009 -10.21747
 Alpha  occ. eigenvalues --  -10.21707 -10.21575 -10.21462 -10.21396 -10.20924
 Alpha  occ. eigenvalues --  -10.20792 -10.20531 -10.20514 -10.20022 -10.19980
 Alpha  occ. eigenvalues --  -10.19975 -10.19938 -10.19844 -10.19458 -10.19363
 Alpha  occ. eigenvalues --  -10.19260 -10.19198 -10.19148  -1.10004  -1.06570
 Alpha  occ. eigenvalues --   -1.06181  -1.01489  -1.01394  -0.98746  -0.97545
 Alpha  occ. eigenvalues --   -0.96727  -0.94240  -0.94011  -0.82861  -0.82703
 Alpha  occ. eigenvalues --   -0.81121  -0.80750  -0.80035  -0.79241  -0.77481
 Alpha  occ. eigenvalues --   -0.76847  -0.75465  -0.75257  -0.73854  -0.72196
 Alpha  occ. eigenvalues --   -0.70915  -0.70822  -0.69803  -0.69335  -0.66751
 Alpha  occ. eigenvalues --   -0.66106  -0.65154  -0.63835  -0.60919  -0.59959
 Alpha  occ. eigenvalues --   -0.58867  -0.57785  -0.57125  -0.56859  -0.56288
 Alpha  occ. eigenvalues --   -0.56022  -0.55328  -0.53993  -0.53830  -0.53580
 Alpha  occ. eigenvalues --   -0.52812  -0.51894  -0.50937  -0.50140  -0.49492
 Alpha  occ. eigenvalues --   -0.49073  -0.48650  -0.48004  -0.47376  -0.47000
 Alpha  occ. eigenvalues --   -0.46573  -0.46291  -0.46154  -0.45737  -0.45576
 Alpha  occ. eigenvalues --   -0.45088  -0.44983  -0.44393  -0.44099  -0.43717
 Alpha  occ. eigenvalues --   -0.43494  -0.43208  -0.42999  -0.42653  -0.42586
 Alpha  occ. eigenvalues --   -0.42301  -0.41953  -0.41834  -0.41396  -0.41228
 Alpha  occ. eigenvalues --   -0.41002  -0.40760  -0.40042  -0.39922  -0.39424
 Alpha  occ. eigenvalues --   -0.39259  -0.39096  -0.38715  -0.38573  -0.38415
 Alpha  occ. eigenvalues --   -0.37742  -0.37059  -0.37010  -0.36373  -0.36098
 Alpha  occ. eigenvalues --   -0.35982  -0.35559  -0.35296  -0.34358  -0.34307
 Alpha  occ. eigenvalues --   -0.34134  -0.33569  -0.33327  -0.31465  -0.30878
 Alpha  occ. eigenvalues --   -0.30648  -0.30472  -0.29923  -0.28768  -0.28372
 Alpha  occ. eigenvalues --   -0.26358  -0.26328  -0.25612  -0.25240  -0.24953
 Alpha  occ. eigenvalues --   -0.24334  -0.23814  -0.23445  -0.22550  -0.18770
 Alpha virt. eigenvalues --   -0.10613  -0.06533  -0.05607  -0.01438  -0.00884
 Alpha virt. eigenvalues --   -0.00025   0.00408   0.01232   0.01942   0.02119
 Alpha virt. eigenvalues --    0.03021   0.03387   0.03683   0.03813   0.04841

 Mulliken charges:
               1
     1  O   -0.236469
     2  O   -0.258327
     3  O   -0.246782
     4  O   -0.287806
     5  O   -0.169829
     6  O   -0.095590
     7  N   -0.064766
     8  N   -0.237471
     9  N   -0.051142
    10  N   -0.262710
    11  C    0.244819
    12  C    0.173554
    13  C   -0.075682
    14  C   -0.116117
    15  C   -0.086780
    16  C    0.062592
    17  C   -0.198150
    18  C    0.016206
    19  C    0.035487
    20  C   -0.060556
    21  C    0.106583
    22  C    0.135202
    23  C   -0.030006
    24  C    0.087835
    25  C   -0.026000
    26  C   -0.139898
    27  C   -0.026300
    28  C    0.018800
    29  C    0.052290
    30  C   -0.058519
    31  C   -0.105669
    32  C    0.125871
    33  C   -0.094748
    34  C    0.150440
    35  C    0.060191
    36  C   -0.060028
    37  C    0.180140
    38  C    0.016339
    39  C   -0.182972
    40  C    0.094969
    41  C    0.036797
    42  C   -0.049804
    43  C   -0.090575
    44  H    0.020385
    45  H   -0.022279
    46  H   -0.009734
    47  H    0.159715
    48  H    0.128024
    49  H    0.026344
    50  H    0.026390
    51  H   -0.030263
    52  H    0.001256
    53  H   -0.017062
    54  H    0.058915
    55  H    0.024800
    56  H    0.062395
    57  H    0.059272
    58  H    0.110568
    59  H   -0.011409
    60  H    0.099645
    61  H    0.012621
    62  H    0.023133
    63  H    0.034045
    64  H    0.052701
    65  H    0.061429
    66  H    0.017450
    67  H    0.007755
    68  H    0.056758
    69  H   -0.011735
    70  H   -0.017682
    71  H    0.054652
    72  H    0.237550
    73  H   -0.009222
    74  H    0.066586
    75  H    0.046899
    76  H    0.054631
    77  H    0.242958
    78  H    0.033663
    79  H    0.063426
 Sum of Mulliken charges =   0.00000

 Dipole moment (field-independent basis, Debye):
    X=             -1.1822    Y=              2.4322    Z=              2.2454  Tot=              3.5150
 Quadrupole moment (field-independent basis, Debye-Ang):
   XX=           -226.6619   YY=           -229.4189   ZZ=           -270.3274
   XY=             -1.9699   XZ=             37.8576   YZ=              3.6409

 Normal termination of Gaussian 09 at Sun Jul  7 13:47:34 2019.
