 Gaussian 09, Revision D.01,
 Gaussian 09:  ES64L-G09RevD.01 24-Apr-2013

 --------------------------
 # td=(NStates=1) B3LYP/SVP
 --------------------------

 --
 TD
 --
 Symbolic Z-matrix:
 Charge =  0 Multiplicity = 1

                         Standard orientation:
 ---------------------------------------------------------------------
 Center     Atomic      Atomic             Coordinates (Angstroms)
 Number     Number       Type             X           Y           Z
 ---------------------------------------------------------------------
      1          8           0        5.321195   -0.194956   -3.345379
      2          8           0       -3.008716   -2.983798    3.035721
      3          8           0       -3.176823   -0.788672    3.263398
      4          8           0       -1.335583    7.247772    1.490728
      5          8           0       -0.476294    6.954444   -0.582979
      6          8           0       -1.863426   -4.003820   -0.048990
      7          7           0        2.244933    0.891221    0.637144
      8          7           0        4.326490   -0.710783   -1.348088
      9          7           0       -1.877870    0.673000   -0.389045
     10          7           0       -2.602857   -1.801772   -0.507602
     11          6           0        4.825012   -1.228701   -0.025879
     12          6           0        4.402940   -0.336379    1.122705
     13          6           0        2.933655   -0.052442    1.292793
     14          6           0        1.987916   -0.768785    2.032225
     15          6           0        0.783982   -0.091143    1.857065
     16          6           0        0.959523    0.976902    0.921425
     17          6           0        6.266921   -1.301233   -0.188314
     18          6           0       -0.484762   -0.349674    2.550211
     19          6           0        6.700173   -0.859709   -1.404657
     20          6           0        0.101063    1.928355    0.183092
     21          6           0       -1.144484    1.904464   -0.284525
     22          6           0        5.418031   -0.541503   -2.202419
     23          6           0       -2.008201    2.920300   -0.848634
     24          6           0        2.392315   -1.904026    3.001285
     25          6           0        7.119007   -1.829243    1.020494
     26          6           0       -3.174165    2.312932   -1.204415
     27          6           0       -1.004664   -1.722428    2.674168
     28          6           0       -3.077560    0.879586   -0.882759
     29          6           0       -1.621853    4.391443   -0.909104
     30          6           0        7.969514   -0.823279   -2.141815
     31          6           0       -1.660816    5.176558    0.509574
     32          6           0       -4.424386    3.051333   -1.774633
     33          6           0       -4.076475   -0.056655   -1.389873
     34          6           0       -2.526174   -1.761452    3.020142
     35          6           0       -3.743524   -1.367764   -1.112369
     36          6           0        9.210237   -0.918818   -1.506504
     37          6           0       -1.098822    6.552978    0.404900
     38          6           0       -4.578399   -2.531591   -1.455184
     39          6           0       -4.032444   -3.698549   -0.984008
     40          6           0       -2.708105   -3.216094   -0.440986
     41          6           0       -6.038249   -2.369386   -2.055635
     42          6           0       -4.420689   -5.033270   -1.170038
     43          6           0       -6.894619   -3.253786   -2.568308
     44          1           0        4.245458   -2.227731    0.221117
     45          1           0        4.795330    0.551051    0.940383
     46          1           0        4.838129   -0.813490    2.094909
     47          1           0        2.595441    1.630335   -0.037892
     48          1           0        3.345012   -0.737073   -1.544686
     49          1           0       -0.344139    0.229596    3.654237
     50          1           0       -1.217090    0.292957    1.831712
     51          1           0        0.791813    2.787661    0.041274
     52          1           0        3.437040   -1.899737    3.257656
     53          1           0        1.756990   -1.449277    3.889091
     54          1           0        2.222685   -2.801065    2.595668
     55          1           0        6.723557   -2.354895    1.891753
     56          1           0        7.560916   -0.875388    1.589927
     57          1           0        7.920479   -2.274190    0.497404
     58          1           0       -1.056528   -2.189616    1.502717
     59          1           0       -0.564470   -2.415142    3.501147
     60          1           0       -1.503978   -0.344129   -0.503419
     61          1           0       -2.127568    4.881306   -1.668536
     62          1           0       -0.539854    4.449058   -1.163786
     63          1           0        7.857377   -0.658810   -3.152934
     64          1           0       -0.918678    4.635421    1.163259
     65          1           0       -2.813626    5.106129    0.733572
     66          1           0       -4.279973    4.128062   -1.954327
     67          1           0       -5.312659    3.027875   -1.063742
     68          1           0       -4.799527    2.525463   -2.672332
     69          1           0       -4.957052    0.110865   -1.957866
     70          1           0        9.350141   -0.756782   -0.426357
     71          1           0        9.947387   -0.772714   -2.139222
     72          1           0       -3.873187   -2.950369    3.554240
     73          1           0       -6.279622   -1.295653   -2.093890
     74          1           0       -4.476990   -5.177044   -2.173032
     75          1           0       -3.849810   -5.859214   -0.685990
     76          1           0       -5.425965   -5.038593   -0.798349
     77          1           0       -0.893565    8.071566    1.152139
     78          1           0       -7.824999   -2.908450   -3.002481
     79          1           0       -6.757552   -4.311046   -2.560341
 ---------------------------------------------------------------------

 SCF Done:  E(RB3LYP) =  -1947.88162240     A.U. after   16 cycles

 Excitation energies and oscillator strengths:

 Excited State   1:      Singlet-A      2.2631 eV  547.84 nm  f=0.3721  <S**2>=0.000
     153 ->156        -0.10760
     154 ->156         0.17098
     155 ->156         0.67366
 This state for optimization and/or second-order correction.
 Total Energy, E(TD-HF/TD-KS) =  -1947.79845340
 Copying the excited state density for this state as the 1-particle RhoCI density.

 The electronic state is 1-A.
 Alpha  occ. eigenvalues --  -19.20988 -19.16886 -19.13856 -19.10066 -19.09887
 Alpha  occ. eigenvalues --  -19.09683 -14.39183 -14.37146 -14.34788 -14.28633
 Alpha  occ. eigenvalues --  -10.33360 -10.29474 -10.28528 -10.25783 -10.25520
 Alpha  occ. eigenvalues --  -10.24946 -10.24657 -10.23082 -10.22886 -10.22680
 Alpha  occ. eigenvalues --  -10.22586 -10.22498 -10.22492 -10.21709 -10.21459
 Alpha  occ. eigenvalues --  -10.21282 -10.21176 -10.21142 -10.20939 -10.20903
 Alpha  occ. eigenvalues --  -10.20817 -10.20424 -10.19786 -10.19608 -10.19519
 Alpha  occ. eigenvalues --  -10.19434 -10.19343 -10.19110 -10.18743 -10.18737
 Alpha  occ. eigenvalues --  -10.18409 -10.18346 -10.17283  -1.13147  -1.08813
 Alpha  occ. eigenvalues --   -1.03031  -1.01512  -1.01004  -1.00573  -0.98983
 Alpha  occ. eigenvalues --   -0.98949  -0.93187  -0.90848  -0.82944  -0.82030
 Alpha  occ. eigenvalues --   -0.81769  -0.81106  -0.80174  -0.79683  -0.77838
 Alpha  occ. eigenvalues --   -0.77244  -0.76297  -0.75279  -0.74960  -0.72529
 Alpha  occ. eigenvalues --   -0.71473  -0.71328  -0.70256  -0.69708  -0.68727
 Alpha  occ. eigenvalues --   -0.66235  -0.65886  -0.63902  -0.61959  -0.60306
 Alpha  occ. eigenvalues --   -0.59837  -0.58664  -0.58270  -0.57851  -0.57318
 Alpha  occ. eigenvalues --   -0.56538  -0.55804  -0.54819  -0.53523  -0.53076
 Alpha  occ. eigenvalues --   -0.52042  -0.51287  -0.51001  -0.50595  -0.50129
 Alpha  occ. eigenvalues --   -0.49916  -0.49408  -0.48934  -0.48080  -0.47388
 Alpha  occ. eigenvalues --   -0.47126  -0.46653  -0.46119  -0.45843  -0.45699
 Alpha  occ. eigenvalues --   -0.45608  -0.45228  -0.44646  -0.44603  -0.44430
 Alpha  occ. eigenvalues --   -0.43950  -0.43744  -0.43555  -0.42782  -0.42733
 Alpha  occ. eigenvalues --   -0.42399  -0.42106  -0.41733  -0.41324  -0.40986
 Alpha  occ. eigenvalues --   -0.40606  -0.40440  -0.40207  -0.40041  -0.39800
 Alpha  occ. eigenvalues --   -0.39622  -0.39427  -0.39281  -0.39031  -0.38823
 Alpha  occ. eigenvalues --   -0.38417  -0.38125  -0.37722  -0.37504  -0.36709
 Alpha  occ. eigenvalues --   -0.36450  -0.36163  -0.35976  -0.35104  -0.34047
 Alpha  occ. eigenvalues --   -0.33742  -0.33518  -0.32310  -0.31853  -0.31252
 Alpha  occ. eigenvalues --   -0.30897  -0.30641  -0.29445  -0.28603  -0.27019
 Alpha  occ. eigenvalues --   -0.26412  -0.26036  -0.25511  -0.25452  -0.24443
 Alpha  occ. eigenvalues --   -0.24153  -0.23529  -0.22863  -0.21903  -0.19610
 Alpha virt. eigenvalues --   -0.10372  -0.06515  -0.05606  -0.01142   0.00098
 Alpha virt. eigenvalues --    0.00619   0.01321   0.02638   0.02728   0.03303
 Alpha virt. eigenvalues --    0.03687   0.04351   0.04494   0.04924   0.05505

 Mulliken charges:
               1
     1  O   -0.201443
     2  O   -0.171174
     3  O   -0.223699
     4  O   -0.133626
     5  O   -0.261799
     6  O   -0.208745
     7  N   -0.001182
     8  N   -0.224532
     9  N   -0.103897
    10  N   -0.346077
    11  C    0.057177
    12  C    0.268324
    13  C   -0.133436
    14  C   -0.143326
    15  C   -0.138244
    16  C   -0.023057
    17  C   -0.140053
    18  C    0.008137
    19  C   -0.066107
    20  C   -0.098889
    21  C    0.157355
    22  C    0.150974
    23  C   -0.036774
    24  C    0.152269
    25  C    0.056862
    26  C   -0.168806
    27  C   -0.078401
    28  C    0.142397
    29  C    0.111218
    30  C   -0.000766
    31  C   -0.031598
    32  C    0.079608
    33  C   -0.119743
    34  C    0.101716
    35  C    0.120569
    36  C    0.040151
    37  C    0.132675
    38  C   -0.021831
    39  C   -0.187192
    40  C    0.155996
    41  C    0.001117
    42  C    0.149873
    43  C   -0.019754
    44  H    0.032088
    45  H   -0.079942
    46  H    0.017273
    47  H    0.123485
    48  H    0.121386
    49  H    0.028176
    50  H    0.042531
    51  H   -0.004980
    52  H   -0.017054
    53  H    0.050082
    54  H    0.006376
    55  H    0.029041
    56  H    0.041554
    57  H    0.032994
    58  H    0.108643
    59  H    0.043093
    60  H    0.191937
    61  H   -0.004427
    62  H    0.008599
    63  H   -0.010109
    64  H    0.057867
    65  H    0.073038
    66  H    0.016587
    67  H    0.033419
    68  H    0.032228
    69  H   -0.032010
    70  H    0.033575
    71  H   -0.012472
    72  H    0.191890
    73  H   -0.014835
    74  H    0.010708
    75  H    0.030669
    76  H    0.013854
    77  H    0.178937
    78  H    0.018441
    79  H    0.005092
 Sum of Mulliken charges =   0.00000

 Dipole moment (field-independent basis, Debye):
    X=              0.5988    Y=              3.1431    Z=              3.1203  Tot=              4.4692
 Quadrupole moment (field-independent basis, Debye-Ang):
   XX=           -219.9326   YY=           -241.5829   ZZ=           -264.0396
   XY=             -5.7989   XZ=             32.3952   YZ=              0.7608

 Normal termination of Gaussian 09 at Wed Jul 10 21:15:10 2019.
