 Gaussian 09, Revision D.01,
 Gaussian 09:  ES64L-G09RevD.01 24-Apr-2013

 --------------------------
 # td=(NStates=1) B3LYP/SVP
 --------------------------

 --
 TD
 --
 Symbolic Z-matrix:
 Charge =  0 Multiplicity = 1

                         Standard orientation:
 ---------------------------------------------------------------------
 Center     Atomic      Atomic             Coordinates (Angstroms)
 Number     Number       Type             X           Y           Z
 ---------------------------------------------------------------------
      1          8           0        5.443803   -0.147222   -3.255309
      2          8           0       -2.923243   -3.087697    3.043150
      3          8           0       -3.130542   -0.775523    3.359217
      4          8           0       -1.567837    7.140389    1.541147
      5          8           0       -0.225196    6.961976   -0.348636
      6          8           0       -2.081257   -3.967924   -0.133802
      7          7           0        2.429173    0.802917    0.515321
      8          7           0        4.448738   -0.613291   -1.267886
      9          7           0       -1.850968    0.633154   -0.380124
     10          7           0       -2.698716   -1.793586   -0.603937
     11          6           0        4.802821   -1.349483   -0.029771
     12          6           0        4.418854   -0.529267    1.265185
     13          6           0        2.968665   -0.172636    1.320517
     14          6           0        1.982421   -0.674642    2.071683
     15          6           0        0.807464   -0.101796    1.752565
     16          6           0        1.000211    0.878147    0.684111
     17          6           0        6.260505   -1.472822   -0.217352
     18          6           0       -0.477612   -0.292468    2.467926
     19          6           0        6.740252   -0.938591   -1.349047
     20          6           0        0.279578    1.831186    0.086528
     21          6           0       -1.042612    1.745148   -0.321341
     22          6           0        5.470302   -0.501325   -2.176788
     23          6           0       -1.763309    2.894506   -0.858434
     24          6           0        2.131345   -1.625159    3.141749
     25          6           0        7.124828   -2.073645    0.943972
     26          6           0       -2.996474    2.413822   -1.123700
     27          6           0       -1.072068   -1.768517    2.470519
     28          6           0       -3.046449    0.936132   -0.886924
     29          6           0       -1.235773    4.317276   -0.914293
     30          6           0        7.993253   -0.735952   -2.063284
     31          6           0       -1.647622    5.067722    0.396637
     32          6           0       -4.211845    3.100467   -1.665684
     33          6           0       -4.100183    0.125689   -1.191054
     34          6           0       -2.525533   -1.819554    2.953656
     35          6           0       -3.874544   -1.356668   -1.082166
     36          6           0        9.184741   -0.839593   -1.509044
     37          6           0       -0.991190    6.437198    0.418118
     38          6           0       -4.875364   -2.434581   -1.429928
     39          6           0       -4.178455   -3.469080   -1.074287
     40          6           0       -2.882348   -3.196600   -0.516723
     41          6           0       -6.221501   -2.112357   -1.913049
     42          6           0       -4.753455   -4.877138   -1.304302
     43          6           0       -7.060550   -2.971811   -2.603914
     44          1           0        4.380190   -2.495789    0.120718
     45          1           0        5.202322    0.221591    1.296149
     46          1           0        4.694529   -1.271162    1.945979
     47          1           0        2.854896    1.231395   -0.362891
     48          1           0        3.579031   -0.630513   -1.690627
     49          1           0       -0.197789   -0.034534    3.478986
     50          1           0       -1.229472    0.655671    2.249572
     51          1           0        0.646157    2.877475    0.128065
     52          1           0        3.195082   -1.718341    3.464763
     53          1           0        1.292427   -1.404113    3.932294
     54          1           0        1.908580   -2.707852    2.802960
     55          1           0        6.514573   -2.840397    1.627723
     56          1           0        7.713908   -1.349744    1.704654
     57          1           0        7.977619   -2.538222    0.553172
     58          1           0       -1.338684   -2.066738    1.428065
     59          1           0       -0.501022   -2.416175    2.941226
     60          1           0       -1.731235   -0.421792   -0.181595
     61          1           0       -1.983770    4.545955   -1.722797
     62          1           0       -0.351241    4.699190   -1.301059
     63          1           0        7.792699   -0.421242   -3.171368
     64          1           0       -1.234314    4.622544    1.215491
     65          1           0       -2.694687    4.888180    0.507933
     66          1           0       -4.170469    4.231531   -1.964380
     67          1           0       -5.141281    2.971334   -1.145921
     68          1           0       -4.498212    2.609042   -2.713562
     69          1           0       -5.032443    0.623823   -1.652789
     70          1           0        9.397752   -1.220591   -0.416637
     71          1           0       10.274454   -0.985856   -2.204255
     72          1           0       -3.971209   -2.947308    3.237803
     73          1           0       -6.463754   -0.916637   -1.967471
     74          1           0       -4.673082   -5.176889   -2.276377
     75          1           0       -4.257640   -5.613555   -0.558245
     76          1           0       -5.770304   -5.024521   -0.888770
     77          1           0       -1.101017    8.086606    1.460546
     78          1           0       -8.060492   -2.613275   -3.308881
     79          1           0       -6.695625   -4.247116   -2.510694
 ---------------------------------------------------------------------

 SCF Done:  E(RB3LYP) =  -1947.78477974     A.U. after   16 cycles

 Excitation energies and oscillator strengths:

 Excited State   1:      Singlet-A      2.0485 eV  605.25 nm  f=0.4536  <S**2>=0.000
     155 ->156         0.70372
     155 <-156        -0.10425
 This state for optimization and/or second-order correction.
 Total Energy, E(TD-HF/TD-KS) =  -1947.70949970
 Copying the excited state density for this state as the 1-particle RhoCI density.

 The electronic state is 1-A.
 Alpha  occ. eigenvalues --  -19.19589 -19.17976 -19.15338 -19.11828 -19.11395
 Alpha  occ. eigenvalues --  -19.11231 -14.37744 -14.35915 -14.35121 -14.29860
 Alpha  occ. eigenvalues --  -10.33553 -10.31436 -10.28432 -10.26737 -10.26252
 Alpha  occ. eigenvalues --  -10.24602 -10.24077 -10.23802 -10.23378 -10.22901
 Alpha  occ. eigenvalues --  -10.22520 -10.22143 -10.22088 -10.21849 -10.21730
 Alpha  occ. eigenvalues --  -10.21240 -10.21176 -10.20969 -10.20928 -10.20833
 Alpha  occ. eigenvalues --  -10.20672 -10.20616 -10.20558 -10.20384 -10.20095
 Alpha  occ. eigenvalues --  -10.19975 -10.19752 -10.19562 -10.19144 -10.18725
 Alpha  occ. eigenvalues --  -10.18653 -10.18544 -10.17178  -1.08316  -1.08222
 Alpha  occ. eigenvalues --   -1.08036  -1.04569  -0.99685  -0.98618  -0.97196
 Alpha  occ. eigenvalues --   -0.97143  -0.94963  -0.93373  -0.83381  -0.82512
 Alpha  occ. eigenvalues --   -0.82033  -0.81686  -0.81191  -0.79515  -0.78319
 Alpha  occ. eigenvalues --   -0.77318  -0.76058  -0.75319  -0.74508  -0.71830
 Alpha  occ. eigenvalues --   -0.70926  -0.70518  -0.69847  -0.68784  -0.68062
 Alpha  occ. eigenvalues --   -0.66907  -0.66030  -0.64027  -0.60547  -0.59994
 Alpha  occ. eigenvalues --   -0.58622  -0.57985  -0.57951  -0.57609  -0.57142
 Alpha  occ. eigenvalues --   -0.56671  -0.55359  -0.55091  -0.54333  -0.53442
 Alpha  occ. eigenvalues --   -0.51874  -0.51010  -0.50680  -0.50520  -0.49845
 Alpha  occ. eigenvalues --   -0.48942  -0.48771  -0.48209  -0.47921  -0.47333
 Alpha  occ. eigenvalues --   -0.47097  -0.46698  -0.46426  -0.45948  -0.45604
 Alpha  occ. eigenvalues --   -0.45276  -0.45136  -0.44678  -0.44518  -0.44163
 Alpha  occ. eigenvalues --   -0.43669  -0.43221  -0.43014  -0.42411  -0.42332
 Alpha  occ. eigenvalues --   -0.42067  -0.41987  -0.41790  -0.41601  -0.40915
 Alpha  occ. eigenvalues --   -0.40761  -0.40467  -0.40342  -0.39983  -0.39677
 Alpha  occ. eigenvalues --   -0.39501  -0.39240  -0.39065  -0.38821  -0.38644
 Alpha  occ. eigenvalues --   -0.38306  -0.37709  -0.37586  -0.37168  -0.36823
 Alpha  occ. eigenvalues --   -0.36641  -0.35503  -0.34919  -0.34648  -0.33753
 Alpha  occ. eigenvalues --   -0.33649  -0.33342  -0.32827  -0.32610  -0.32485
 Alpha  occ. eigenvalues --   -0.31430  -0.30640  -0.30058  -0.29317  -0.28902
 Alpha  occ. eigenvalues --   -0.28039  -0.26401  -0.26252  -0.26037  -0.25106
 Alpha  occ. eigenvalues --   -0.24693  -0.24599  -0.24274  -0.23205  -0.18456
 Alpha virt. eigenvalues --   -0.10410  -0.06348  -0.05685  -0.01802  -0.01539
 Alpha virt. eigenvalues --    0.00760   0.00820   0.01536   0.02578   0.03106
 Alpha virt. eigenvalues --    0.03316   0.03514   0.03923   0.04571   0.04997

 Mulliken charges:
               1
     1  O   -0.121653
     2  O   -0.199237
     3  O   -0.291946
     4  O   -0.293702
     5  O   -0.197071
     6  O   -0.139055
     7  N   -0.138846
     8  N   -0.178375
     9  N   -0.049835
    10  N   -0.329104
    11  C    0.021338
    12  C    0.265384
    13  C   -0.051095
    14  C   -0.075260
    15  C   -0.063339
    16  C    0.155538
    17  C   -0.171917
    18  C    0.012277
    19  C   -0.074784
    20  C   -0.183133
    21  C    0.060586
    22  C    0.085929
    23  C   -0.085975
    24  C    0.050617
    25  C    0.008382
    26  C   -0.104500
    27  C    0.085890
    28  C    0.091953
    29  C    0.067754
    30  C    0.032533
    31  C    0.085136
    32  C    0.020111
    33  C   -0.149653
    34  C    0.138788
    35  C    0.050581
    36  C   -0.126979
    37  C    0.181030
    38  C    0.090705
    39  C   -0.228412
    40  C    0.149636
    41  C   -0.027247
    42  C    0.078947
    43  C   -0.147464
    44  H    0.050242
    45  H   -0.007507
    46  H   -0.044343
    47  H    0.136605
    48  H    0.099617
    49  H    0.000106
    50  H    0.047489
    51  H    0.012604
    52  H    0.009998
    53  H    0.035153
    54  H    0.032981
    55  H    0.036842
    56  H    0.049158
    57  H    0.016206
    58  H    0.062648
    59  H   -0.017926
    60  H    0.183955
    61  H    0.017825
    62  H    0.009676
    63  H    0.050243
    64  H    0.008575
    65  H    0.034876
    66  H    0.032465
    67  H    0.022799
    68  H    0.033362
    69  H   -0.000007
    70  H    0.040754
    71  H    0.051720
    72  H    0.220188
    73  H    0.041433
    74  H    0.025108
    75  H    0.019512
    76  H    0.023480
    77  H    0.208523
    78  H    0.080875
    79  H    0.070236
 Sum of Mulliken charges =   0.00000

 Dipole moment (field-independent basis, Debye):
    X=             -0.5043    Y=              0.4796    Z=              1.3480  Tot=              1.5171
 Quadrupole moment (field-independent basis, Debye-Ang):
   XX=           -220.7754   YY=           -248.9812   ZZ=           -264.0530
   XY=             -8.8988   XZ=             31.6932   YZ=             -1.0686

 Normal termination of Gaussian 09 at Wed Jul 10 20:53:28 2019.
