 Gaussian 09, Revision D.01,
 Gaussian 09:  ES64L-G09RevD.01 24-Apr-2013

 --------------------------
 # td=(NStates=1) B3LYP/SVP
 --------------------------

 --
 TD
 --
 Symbolic Z-matrix:
 Charge =  0 Multiplicity = 1

                         Standard orientation:
 ---------------------------------------------------------------------
 Center     Atomic      Atomic             Coordinates (Angstroms)
 Number     Number       Type             X           Y           Z
 ---------------------------------------------------------------------
      1          8           0        5.157253   -0.338435   -3.286312
      2          8           0       -2.698843   -3.119500    3.245640
      3          8           0       -3.279470   -0.891549    3.066676
      4          8           0       -1.613979    7.114351    1.594911
      5          8           0       -0.663385    6.963702   -0.501104
      6          8           0       -1.721253   -3.899846    0.170716
      7          7           0        2.349086    1.113106    0.611524
      8          7           0        4.396616   -0.486630   -1.096909
      9          7           0       -1.986026    0.659073   -0.497069
     10          7           0       -2.552572   -1.837909   -0.508104
     11          6           0        4.879112   -1.028606    0.111284
     12          6           0        4.503078   -0.017950    1.195737
     13          6           0        3.005734    0.190896    1.374220
     14          6           0        2.049238   -0.632929    2.005064
     15          6           0        0.712729   -0.031175    1.865217
     16          6           0        0.984587    1.033284    0.821246
     17          6           0        6.313049   -1.176745   -0.215266
     18          6           0       -0.611001   -0.306925    2.633283
     19          6           0        6.572061   -0.895524   -1.507408
     20          6           0        0.102629    1.917587    0.173998
     21          6           0       -1.148451    1.837769   -0.314208
     22          6           0        5.380592   -0.488190   -2.128274
     23          6           0       -1.950287    2.867574   -0.869107
     24          6           0        2.445772   -1.623333    3.201650
     25          6           0        7.138713   -1.843847    0.913077
     26          6           0       -3.162017    2.348861   -1.378581
     27          6           0       -1.110451   -1.673101    2.546306
     28          6           0       -3.042735    1.016250   -1.073671
     29          6           0       -1.669983    4.391601   -0.880769
     30          6           0        7.799864   -0.830310   -2.223249
     31          6           0       -1.769561    5.071506    0.409486
     32          6           0       -4.265239    3.119514   -2.049756
     33          6           0       -4.025522   -0.121389   -1.503239
     34          6           0       -2.484542   -1.822396    3.034877
     35          6           0       -3.768791   -1.469635   -1.112139
     36          6           0        9.125115   -1.021490   -1.739106
     37          6           0       -1.376453    6.447468    0.428990
     38          6           0       -4.620893   -2.663049   -1.409966
     39          6           0       -3.977666   -3.781909   -0.958960
     40          6           0       -2.649667   -3.211837   -0.336708
     41          6           0       -5.926277   -2.478919   -2.202418
     42          6           0       -4.225569   -5.189990   -1.032204
     43          6           0       -6.842384   -3.529220   -2.481879
     44          1           0        4.499437   -2.037448    0.194480
     45          1           0        5.060406    0.987237    0.901337
     46          1           0        4.908750   -0.425741    2.232217
     47          1           0        2.685857    1.770786   -0.136507
     48          1           0        3.378197   -0.726344   -1.449030
     49          1           0       -0.469267   -0.014420    3.797052
     50          1           0       -1.399561    0.254788    2.273134
     51          1           0        0.567621    2.822644    0.082573
     52          1           0        3.531874   -1.678437    3.431446
     53          1           0        2.082564   -1.319202    4.127780
     54          1           0        1.802830   -2.437794    2.992120
     55          1           0        6.476186   -2.344383    1.688307
     56          1           0        7.969889   -1.018766    1.448731
     57          1           0        7.975065   -2.738504    0.495614
     58          1           0       -1.092248   -2.223094    1.556246
     59          1           0       -0.613350   -2.265915    3.284822
     60          1           0       -1.628606   -0.310518   -0.235758
     61          1           0       -2.346255    4.783249   -1.781534
     62          1           0       -0.691998    4.578099   -1.067684
     63          1           0        7.701836   -0.683965   -3.383127
     64          1           0       -1.110969    4.339050    0.982176
     65          1           0       -2.764793    5.010235    0.792558
     66          1           0       -4.117436    4.090093   -2.189347
     67          1           0       -5.206621    2.934586   -1.560404
     68          1           0       -4.550045    2.593506   -2.799300
     69          1           0       -4.842042    0.233395   -2.108547
     70          1           0        9.251924   -1.061647   -0.717873
     71          1           0        9.848056   -0.933054   -2.591577
     72          1           0       -3.754315   -3.131993    3.275271
     73          1           0       -6.160860   -1.475312   -2.412096
     74          1           0       -4.046338   -5.693841   -2.078638
     75          1           0       -3.409787   -5.827329   -0.486789
     76          1           0       -5.207753   -5.373835   -0.639146
     77          1           0       -1.272399    7.892832    1.700671
     78          1           0       -7.676458   -3.183864   -3.012665
     79          1           0       -6.580413   -4.571408   -2.281982
 ---------------------------------------------------------------------

 SCF Done:  E(RB3LYP) =  -1947.79114740     A.U. after   23 cycles

 Excitation energies and oscillator strengths:

 Excited State   1:      Singlet-A      1.9950 eV  621.47 nm  f=0.3322  <S**2>=0.000
     154 ->156         0.16143
     155 ->156         0.69010
     155 <-156        -0.10452
 This state for optimization and/or second-order correction.
 Total Energy, E(TD-HF/TD-KS) =  -1947.71783153
 Copying the excited state density for this state as the 1-particle RhoCI density.

 The electronic state is 1-A.
 Alpha  occ. eigenvalues --  -19.18839 -19.18107 -19.13300 -19.11136 -19.10704
 Alpha  occ. eigenvalues --  -19.08384 -14.40286 -14.36707 -14.34730 -14.28163
 Alpha  occ. eigenvalues --  -10.33862 -10.29905 -10.28061 -10.25193 -10.25124
 Alpha  occ. eigenvalues --  -10.24686 -10.24683 -10.24429 -10.24421 -10.24367
 Alpha  occ. eigenvalues --  -10.23988 -10.23020 -10.22800 -10.22533 -10.22130
 Alpha  occ. eigenvalues --  -10.21650 -10.21526 -10.21344 -10.20984 -10.20809
 Alpha  occ. eigenvalues --  -10.20747 -10.20546 -10.20414 -10.20216 -10.19822
 Alpha  occ. eigenvalues --  -10.19647 -10.19470 -10.19445 -10.19210 -10.19118
 Alpha  occ. eigenvalues --  -10.18864 -10.18594 -10.17042  -1.10879  -1.08244
 Alpha  occ. eigenvalues --   -1.04512  -1.00502  -0.99499  -0.99332  -0.99019
 Alpha  occ. eigenvalues --   -0.97496  -0.95651  -0.88789  -0.84607  -0.82901
 Alpha  occ. eigenvalues --   -0.82286  -0.81096  -0.80895  -0.79385  -0.78466
 Alpha  occ. eigenvalues --   -0.77431  -0.76250  -0.74880  -0.74449  -0.72924
 Alpha  occ. eigenvalues --   -0.72009  -0.71457  -0.70988  -0.69888  -0.68441
 Alpha  occ. eigenvalues --   -0.67213  -0.66374  -0.64030  -0.62503  -0.61572
 Alpha  occ. eigenvalues --   -0.59909  -0.58756  -0.58381  -0.57921  -0.57603
 Alpha  occ. eigenvalues --   -0.56788  -0.55822  -0.55135  -0.53989  -0.53290
 Alpha  occ. eigenvalues --   -0.53012  -0.52486  -0.51537  -0.51483  -0.50450
 Alpha  occ. eigenvalues --   -0.49486  -0.48849  -0.48653  -0.48025  -0.47978
 Alpha  occ. eigenvalues --   -0.47641  -0.47382  -0.47011  -0.46245  -0.45869
 Alpha  occ. eigenvalues --   -0.45679  -0.45407  -0.44931  -0.44098  -0.43881
 Alpha  occ. eigenvalues --   -0.43425  -0.42936  -0.42818  -0.42674  -0.42194
 Alpha  occ. eigenvalues --   -0.41956  -0.41817  -0.41505  -0.41381  -0.41072
 Alpha  occ. eigenvalues --   -0.40622  -0.40377  -0.40347  -0.40158  -0.39946
 Alpha  occ. eigenvalues --   -0.39259  -0.39204  -0.38926  -0.38646  -0.38437
 Alpha  occ. eigenvalues --   -0.38187  -0.37913  -0.37710  -0.37528  -0.36820
 Alpha  occ. eigenvalues --   -0.35690  -0.35521  -0.35394  -0.35059  -0.34841
 Alpha  occ. eigenvalues --   -0.33375  -0.33010  -0.32583  -0.32414  -0.32024
 Alpha  occ. eigenvalues --   -0.31365  -0.30924  -0.28510  -0.27549  -0.27317
 Alpha  occ. eigenvalues --   -0.26535  -0.26332  -0.26099  -0.25992  -0.25148
 Alpha  occ. eigenvalues --   -0.24280  -0.23027  -0.22613  -0.21530  -0.18997
 Alpha virt. eigenvalues --   -0.10955  -0.07466  -0.06094  -0.03643  -0.00790
 Alpha virt. eigenvalues --   -0.00342   0.00445   0.01504   0.02020   0.02403
 Alpha virt. eigenvalues --    0.02876   0.04126   0.04447   0.04525   0.05516

 Mulliken charges:
               1
     1  O   -0.182949
     2  O   -0.195395
     3  O   -0.254127
     4  O   -0.116209
     5  O   -0.283046
     6  O   -0.275289
     7  N   -0.064150
     8  N   -0.284057
     9  N   -0.014379
    10  N   -0.332475
    11  C    0.108710
    12  C    0.136302
    13  C   -0.042070
    14  C   -0.155027
    15  C   -0.065254
    16  C    0.029935
    17  C   -0.139700
    18  C    0.128777
    19  C    0.025044
    20  C   -0.098317
    21  C    0.136841
    22  C    0.125665
    23  C   -0.135827
    24  C    0.101828
    25  C   -0.076299
    26  C   -0.194198
    27  C   -0.007937
    28  C    0.024527
    29  C    0.127538
    30  C   -0.114213
    31  C    0.036901
    32  C    0.353532
    33  C   -0.108546
    34  C    0.117515
    35  C    0.135234
    36  C    0.026241
    37  C    0.168432
    38  C    0.029448
    39  C   -0.181328
    40  C    0.162674
    41  C   -0.014835
    42  C    0.025199
    43  C    0.015077
    44  H    0.026105
    45  H    0.022295
    46  H    0.019880
    47  H    0.143250
    48  H    0.159516
    49  H    0.026989
    50  H   -0.018620
    51  H   -0.045435
    52  H    0.013157
    53  H   -0.006192
    54  H    0.032086
    55  H    0.051833
    56  H    0.069670
    57  H    0.069251
    58  H    0.101949
    59  H   -0.005369
    60  H    0.179406
    61  H    0.037857
    62  H   -0.034808
    63  H    0.039465
    64  H    0.056618
    65  H    0.018541
    66  H   -0.025464
    67  H   -0.010921
    68  H   -0.055974
    69  H   -0.039125
    70  H   -0.009599
    71  H    0.048556
    72  H    0.208579
    73  H   -0.027305
    74  H    0.044332
    75  H    0.036672
    76  H    0.031125
    77  H    0.125132
    78  H    0.010505
    79  H    0.026248
 Sum of Mulliken charges =   0.00000

 Dipole moment (field-independent basis, Debye):
    X=              2.0221    Y=              3.5151    Z=              3.5515  Tot=              5.3905
 Quadrupole moment (field-independent basis, Debye-Ang):
   XX=           -218.6168   YY=           -249.5489   ZZ=           -261.5649
   XY=            -11.1162   XZ=             29.4958   YZ=              5.3729

 Normal termination of Gaussian 09 at Wed Jul 10 18:42:20 2019.
