 Gaussian 09, Revision D.01,
 Gaussian 09:  ES64L-G09RevD.01 24-Apr-2013

 --------------------------
 # td=(NStates=1) B3LYP/SVP
 --------------------------

 --
 TD
 --
 Symbolic Z-matrix:
 Charge =  0 Multiplicity = 1

                         Standard orientation:
 ---------------------------------------------------------------------
 Center     Atomic      Atomic             Coordinates (Angstroms)
 Number     Number       Type             X           Y           Z
 ---------------------------------------------------------------------
      1          8           0        5.226199   -0.381102   -3.366519
      2          8           0       -2.983187   -2.905466    3.298543
      3          8           0       -3.106338   -0.713602    3.240361
      4          8           0       -1.414657    7.264064    1.222329
      5          8           0       -0.267075    6.673076   -0.694192
      6          8           0       -1.882476   -4.050745   -0.127109
      7          7           0        2.338232    1.021829    0.577384
      8          7           0        4.348396   -0.680609   -1.222304
      9          7           0       -1.971014    0.663202   -0.328972
     10          7           0       -2.661163   -1.933697   -0.425343
     11          6           0        4.856487   -1.143279    0.084265
     12          6           0        4.544414   -0.011066    1.135665
     13          6           0        3.002180    0.126928    1.322371
     14          6           0        2.100390   -0.492702    2.229585
     15          6           0        0.752903    0.057893    1.889102
     16          6           0        0.907089    0.999486    0.901489
     17          6           0        6.376100   -1.352636   -0.160594
     18          6           0       -0.486095   -0.300696    2.678192
     19          6           0        6.607512   -1.002120   -1.461079
     20          6           0        0.177101    1.990519    0.208296
     21          6           0       -1.174598    1.783845   -0.248328
     22          6           0        5.315959   -0.711667   -2.178456
     23          6           0       -1.980820    2.857746   -0.829489
     24          6           0        2.380894   -1.613422    3.220644
     25          6           0        7.241472   -1.842382    0.931353
     26          6           0       -3.184804    2.382045   -1.129571
     27          6           0       -1.036315   -1.695070    2.640215
     28          6           0       -3.150432    0.887156   -0.919971
     29          6           0       -1.441355    4.383723   -1.058010
     30          6           0        7.867795   -1.061649   -2.254714
     31          6           0       -1.895577    5.071677    0.239818
     32          6           0       -4.371834    3.075021   -1.667430
     33          6           0       -4.076359   -0.045340   -1.223888
     34          6           0       -2.458151   -1.697342    3.104615
     35          6           0       -3.768327   -1.455420   -0.936677
     36          6           0        9.112355   -0.895195   -1.628646
     37          6           0       -1.129577    6.429620    0.205896
     38          6           0       -4.724898   -2.548255   -1.283276
     39          6           0       -4.021307   -3.664376   -1.119694
     40          6           0       -2.715441   -3.254423   -0.445725
     41          6           0       -6.038417   -2.366486   -1.916036
     42          6           0       -4.433286   -5.219574   -1.383127
     43          6           0       -6.838782   -3.245415   -2.670388
     44          1           0        4.518406   -2.047577    0.333020
     45          1           0        4.917933    0.977236    0.799026
     46          1           0        4.779287   -0.434304    2.250375
     47          1           0        2.757928    1.493754   -0.251525
     48          1           0        3.364202   -0.596871   -1.419423
     49          1           0       -0.294288    0.098103    3.686851
     50          1           0       -1.460307    0.212594    2.352722
     51          1           0        0.459632    3.003931   -0.216597
     52          1           0        3.405617   -1.706842    3.544239
     53          1           0        1.896128   -1.317189    4.186206
     54          1           0        2.079504   -2.621850    2.900579
     55          1           0        6.652977   -2.361253    1.776397
     56          1           0        7.570412   -0.828972    1.475068
     57          1           0        8.066244   -2.280517    0.499775
     58          1           0       -1.105401   -2.263994    1.655125
     59          1           0       -0.139890   -2.316500    3.177217
     60          1           0       -1.382249   -0.267419   -0.301742
     61          1           0       -2.118215    4.763904   -1.827801
     62          1           0       -0.325813    4.327819   -1.351700
     63          1           0        7.720970   -1.214515   -3.344205
     64          1           0       -1.627214    4.678229    1.143524
     65          1           0       -2.917208    5.378400    0.361735
     66          1           0       -4.402291    4.148096   -1.613509
     67          1           0       -5.285813    2.865816   -1.059614
     68          1           0       -4.603847    3.067498   -2.841526
     69          1           0       -5.153518    0.090673   -1.652985
     70          1           0        9.125353   -0.889758   -0.587293
     71          1           0       10.168795   -1.014415   -2.189045
     72          1           0       -3.812193   -2.822469    3.591662
     73          1           0       -6.583041   -1.424158   -2.039823
     74          1           0       -4.189243   -5.349415   -2.414366
     75          1           0       -3.761211   -5.991956   -0.557334
     76          1           0       -5.621119   -5.332316   -1.258795
     77          1           0       -1.066945    8.209918    0.912798
     78          1           0       -7.721624   -3.071428   -3.174794
     79          1           0       -6.770500   -4.309994   -2.995330
 ---------------------------------------------------------------------

 SCF Done:  E(RB3LYP) =  -1947.84419306     A.U. after   17 cycles

 Excitation energies and oscillator strengths:

 Excited State   1:      Singlet-A      2.2254 eV  557.14 nm  f=0.4952  <S**2>=0.000
     155 ->156         0.70060
     155 <-156        -0.10281
 This state for optimization and/or second-order correction.
 Total Energy, E(TD-HF/TD-KS) =  -1947.76241186
 Copying the excited state density for this state as the 1-particle RhoCI density.

 The electronic state is 1-A.
 Alpha  occ. eigenvalues --  -19.20563 -19.16402 -19.13186 -19.11501 -19.10087
 Alpha  occ. eigenvalues --  -19.09442 -14.37963 -14.37114 -14.35830 -14.28812
 Alpha  occ. eigenvalues --  -10.33138 -10.30777 -10.28316 -10.25809 -10.24873
 Alpha  occ. eigenvalues --  -10.24712 -10.24102 -10.23968 -10.23791 -10.23541
 Alpha  occ. eigenvalues --  -10.23189 -10.22523 -10.22360 -10.22263 -10.22116
 Alpha  occ. eigenvalues --  -10.21483 -10.21482 -10.21231 -10.20978 -10.20724
 Alpha  occ. eigenvalues --  -10.20606 -10.20418 -10.20400 -10.20244 -10.20212
 Alpha  occ. eigenvalues --  -10.20080 -10.19757 -10.19722 -10.19700 -10.19693
 Alpha  occ. eigenvalues --  -10.19648 -10.19343 -10.18675  -1.10919  -1.09228
 Alpha  occ. eigenvalues --   -1.02800  -1.01338  -1.01277  -0.99011  -0.98918
 Alpha  occ. eigenvalues --   -0.97286  -0.94109  -0.93847  -0.82402  -0.82267
 Alpha  occ. eigenvalues --   -0.81505  -0.80335  -0.79711  -0.78954  -0.78218
 Alpha  occ. eigenvalues --   -0.76701  -0.76515  -0.74634  -0.73508  -0.72433
 Alpha  occ. eigenvalues --   -0.71623  -0.71072  -0.69257  -0.68139  -0.67666
 Alpha  occ. eigenvalues --   -0.67482  -0.65650  -0.63724  -0.61194  -0.60792
 Alpha  occ. eigenvalues --   -0.60520  -0.59785  -0.59065  -0.58353  -0.57114
 Alpha  occ. eigenvalues --   -0.56060  -0.55439  -0.54829  -0.53763  -0.53498
 Alpha  occ. eigenvalues --   -0.52782  -0.52347  -0.51060  -0.50309  -0.49876
 Alpha  occ. eigenvalues --   -0.49513  -0.48800  -0.48457  -0.47633  -0.47326
 Alpha  occ. eigenvalues --   -0.46880  -0.46743  -0.46459  -0.45676  -0.45433
 Alpha  occ. eigenvalues --   -0.45115  -0.44788  -0.44027  -0.43782  -0.43568
 Alpha  occ. eigenvalues --   -0.43537  -0.43045  -0.42732  -0.42529  -0.41925
 Alpha  occ. eigenvalues --   -0.41787  -0.41726  -0.41504  -0.41413  -0.41269
 Alpha  occ. eigenvalues --   -0.40917  -0.40609  -0.40354  -0.39857  -0.39627
 Alpha  occ. eigenvalues --   -0.39411  -0.39313  -0.39136  -0.39020  -0.38828
 Alpha  occ. eigenvalues --   -0.38176  -0.37840  -0.37423  -0.36632  -0.36526
 Alpha  occ. eigenvalues --   -0.35795  -0.35236  -0.34983  -0.34429  -0.33747
 Alpha  occ. eigenvalues --   -0.33709  -0.33271  -0.32444  -0.31930  -0.30894
 Alpha  occ. eigenvalues --   -0.30538  -0.30207  -0.28772  -0.28441  -0.27379
 Alpha  occ. eigenvalues --   -0.27098  -0.26634  -0.26256  -0.25428  -0.25128
 Alpha  occ. eigenvalues --   -0.23804  -0.23735  -0.23491  -0.22703  -0.18911
 Alpha virt. eigenvalues --   -0.10274  -0.05868  -0.05470  -0.01583  -0.01461
 Alpha virt. eigenvalues --    0.00340   0.01091   0.01787   0.01930   0.02661
 Alpha virt. eigenvalues --    0.03501   0.03916   0.04380   0.05481   0.05680

 Mulliken charges:
               1
     1  O   -0.246615
     2  O   -0.106659
     3  O   -0.214944
     4  O   -0.210620
     5  O   -0.287992
     6  O   -0.180342
     7  N   -0.130608
     8  N   -0.203747
     9  N   -0.075776
    10  N   -0.181656
    11  C    0.173530
    12  C    0.147716
    13  C   -0.099283
    14  C   -0.153718
    15  C   -0.070179
    16  C    0.160513
    17  C   -0.199785
    18  C    0.023963
    19  C   -0.074660
    20  C   -0.096704
    21  C   -0.009802
    22  C    0.159140
    23  C   -0.139458
    24  C    0.092255
    25  C    0.101803
    26  C   -0.081678
    27  C   -0.086911
    28  C    0.182301
    29  C    0.118047
    30  C   -0.011287
    31  C    0.067006
    32  C    0.052619
    33  C   -0.167371
    34  C    0.132888
    35  C    0.013472
    36  C   -0.045528
    37  C    0.135181
    38  C    0.089028
    39  C   -0.205650
    40  C    0.089657
    41  C   -0.013493
    42  C   -0.002420
    43  C   -0.079949
    44  H   -0.021370
    45  H    0.011631
    46  H    0.036817
    47  H    0.130509
    48  H    0.124558
    49  H    0.020189
    50  H    0.038441
    51  H    0.003925
    52  H   -0.019029
    53  H    0.021617
    54  H    0.052273
    55  H    0.035659
    56  H    0.054649
    57  H    0.027861
    58  H    0.077942
    59  H    0.037543
    60  H    0.196901
    61  H    0.011817
    62  H    0.076731
    63  H    0.028915
    64  H    0.018249
    65  H    0.031830
    66  H   -0.019121
    67  H    0.028690
    68  H    0.042594
    69  H    0.018411
    70  H   -0.006637
    71  H    0.055390
    72  H    0.125456
    73  H    0.004644
    74  H    0.034959
    75  H    0.075218
    76  H    0.051736
    77  H    0.226804
    78  H   -0.004450
    79  H    0.006366
 Sum of Mulliken charges =   0.00000

 Dipole moment (field-independent basis, Debye):
    X=             -0.5844    Y=              3.5458    Z=              3.3594  Tot=              4.9193
 Quadrupole moment (field-independent basis, Debye-Ang):
   XX=           -222.4457   YY=           -238.9981   ZZ=           -264.1443
   XY=            -18.0922   XZ=             35.5989   YZ=              0.0726

 Normal termination of Gaussian 09 at Mon Jul  8 10:40:39 2019.
