 Gaussian 09, Revision D.01,
 Gaussian 09:  ES64L-G09RevD.01 24-Apr-2013

 --------------------------
 # td=(NStates=1) B3LYP/SVP
 --------------------------

 --
 TD
 --
 Symbolic Z-matrix:
 Charge =  0 Multiplicity = 1

                         Standard orientation:
 ---------------------------------------------------------------------
 Center     Atomic      Atomic             Coordinates (Angstroms)
 Number     Number       Type             X           Y           Z
 ---------------------------------------------------------------------
      1          8           0        5.539234   -0.080870   -3.281844
      2          8           0       -2.843260   -3.238524    3.046615
      3          8           0       -3.159893   -0.958497    3.248346
      4          8           0       -1.755860    7.119664    1.511359
      5          8           0       -0.628800    6.960683   -0.448165
      6          8           0       -2.043101   -3.961646    0.006640
      7          7           0        2.355266    0.793152    0.484892
      8          7           0        4.471707   -0.770361   -1.370492
      9          7           0       -1.964622    0.649043   -0.217526
     10          7           0       -2.761891   -1.775409   -0.427557
     11          6           0        4.859977   -1.231968   -0.123138
     12          6           0        4.434070   -0.357501    1.087198
     13          6           0        2.992818   -0.065407    1.303217
     14          6           0        1.977746   -0.704941    2.148825
     15          6           0        0.707316   -0.181435    1.728863
     16          6           0        1.034245    0.876535    0.745167
     17          6           0        6.432414   -1.310832   -0.175538
     18          6           0       -0.479842   -0.324959    2.547372
     19          6           0        6.857846   -0.828411   -1.396584
     20          6           0        0.194586    1.880098    0.045473
     21          6           0       -1.145735    1.895223   -0.297412
     22          6           0        5.560499   -0.423091   -2.107243
     23          6           0       -1.960635    2.941299   -0.737420
     24          6           0        2.251749   -1.685296    3.183809
     25          6           0        7.198146   -1.738724    1.028956
     26          6           0       -3.096869    2.388567   -1.186595
     27          6           0       -1.052589   -1.846644    2.557978
     28          6           0       -3.132136    0.912728   -0.920386
     29          6           0       -1.442028    4.440745   -0.817535
     30          6           0        7.979315   -0.712687   -2.010055
     31          6           0       -1.785272    5.104537    0.549783
     32          6           0       -4.205540    3.086628   -1.752174
     33          6           0       -4.010626   -0.046759   -1.257697
     34          6           0       -2.409355   -1.939072    3.087079
     35          6           0       -3.820090   -1.356839   -1.033149
     36          6           0        9.292090   -0.637540   -1.550004
     37          6           0       -1.254804    6.423855    0.443940
     38          6           0       -4.825079   -2.501839   -1.510121
     39          6           0       -4.115888   -3.642929   -1.171513
     40          6           0       -2.869682   -3.202960   -0.460336
     41          6           0       -6.190573   -2.316162   -1.926656
     42          6           0       -4.428838   -5.011366   -1.321398
     43          6           0       -6.828982   -3.032824   -2.894414
     44          1           0        4.652993   -2.481819    0.049774
     45          1           0        4.973598    0.504806    1.172486
     46          1           0        4.616521   -1.016464    1.929427
     47          1           0        2.769321    1.439295   -0.132557
     48          1           0        3.537167   -0.654892   -1.610944
     49          1           0       -0.453629    0.029592    3.481701
     50          1           0       -1.536044    0.188573    2.173722
     51          1           0        0.738412    2.911581   -0.247188
     52          1           0        3.304173   -1.941773    3.202932
     53          1           0        1.782719   -1.693151    4.073381
     54          1           0        2.101214   -2.722829    2.700363
     55          1           0        6.608090   -2.315145    1.823162
     56          1           0        7.539717   -0.925524    1.518130
     57          1           0        8.017689   -2.391404    0.648534
     58          1           0       -1.172043   -2.354851    1.423888
     59          1           0       -0.395194   -2.563931    3.069660
     60          1           0       -1.673779   -0.213347   -0.266319
     61          1           0       -1.867483    4.972498   -1.548403
     62          1           0       -0.401597    4.623670   -1.074870
     63          1           0        7.966154   -0.567925   -3.125466
     64          1           0       -1.277761    4.518010    1.378877
     65          1           0       -2.857867    4.892972    0.636090
     66          1           0       -4.260462    4.123214   -1.793628
     67          1           0       -5.296423    2.897357   -1.135760
     68          1           0       -4.491390    2.923100   -2.906273
     69          1           0       -4.887560    0.222897   -1.913837
     70          1           0        9.564546   -0.714307   -0.463577
     71          1           0       10.082740   -0.669958   -2.237710
     72          1           0       -3.856316   -3.151985    3.057847
     73          1           0       -6.709646   -1.488320   -1.182163
     74          1           0       -3.910613   -5.318245   -2.373880
     75          1           0       -3.879954   -5.534978   -0.447748
     76          1           0       -5.692495   -5.034409   -1.475165
     77          1           0       -1.297308    8.131944    1.654201
     78          1           0       -7.825220   -2.793212   -3.164470
     79          1           0       -6.391598   -3.932663   -3.692786
 ---------------------------------------------------------------------

 SCF Done:  E(RB3LYP) =  -1947.77457791     A.U. after   17 cycles

 Excitation energies and oscillator strengths:

 Excited State   1:      Singlet-A      2.2412 eV  553.20 nm  f=0.4720  <S**2>=0.000
     155 ->156         0.70027
 This state for optimization and/or second-order correction.
 Total Energy, E(TD-HF/TD-KS) =  -1947.69221518
 Copying the excited state density for this state as the 1-particle RhoCI density.

 The electronic state is 1-A.
 Alpha  occ. eigenvalues --  -19.18654 -19.16678 -19.13980 -19.11082 -19.10860
 Alpha  occ. eigenvalues --  -19.09604 -14.39220 -14.36053 -14.34990 -14.29024
 Alpha  occ. eigenvalues --  -10.32784 -10.30065 -10.28462 -10.26790 -10.26333
 Alpha  occ. eigenvalues --  -10.24324 -10.24164 -10.23741 -10.23233 -10.23068
 Alpha  occ. eigenvalues --  -10.22685 -10.22552 -10.22363 -10.21624 -10.21603
 Alpha  occ. eigenvalues --  -10.21310 -10.21184 -10.21170 -10.21071 -10.20869
 Alpha  occ. eigenvalues --  -10.20772 -10.20580 -10.20352 -10.19767 -10.19747
 Alpha  occ. eigenvalues --  -10.19629 -10.19473 -10.19430 -10.19076 -10.18969
 Alpha  occ. eigenvalues --  -10.18951 -10.18239 -10.17665  -1.08591  -1.06278
 Alpha  occ. eigenvalues --   -1.02763  -1.02205  -1.00141  -1.00003  -0.97309
 Alpha  occ. eigenvalues --   -0.96962  -0.95596  -0.92449  -0.83968  -0.83820
 Alpha  occ. eigenvalues --   -0.81605  -0.81268  -0.80935  -0.80100  -0.79483
 Alpha  occ. eigenvalues --   -0.77448  -0.76305  -0.75414  -0.74931  -0.72908
 Alpha  occ. eigenvalues --   -0.72018  -0.71916  -0.69375  -0.68963  -0.68531
 Alpha  occ. eigenvalues --   -0.67326  -0.66039  -0.64342  -0.63787  -0.60475
 Alpha  occ. eigenvalues --   -0.59120  -0.58850  -0.58707  -0.58062  -0.57511
 Alpha  occ. eigenvalues --   -0.56778  -0.55687  -0.54600  -0.54052  -0.53013
 Alpha  occ. eigenvalues --   -0.52495  -0.51868  -0.51306  -0.50893  -0.50278
 Alpha  occ. eigenvalues --   -0.49287  -0.48577  -0.48279  -0.48207  -0.47553
 Alpha  occ. eigenvalues --   -0.47148  -0.46478  -0.46337  -0.46045  -0.45598
 Alpha  occ. eigenvalues --   -0.45353  -0.45134  -0.44795  -0.44566  -0.44070
 Alpha  occ. eigenvalues --   -0.43751  -0.43305  -0.42942  -0.42842  -0.42506
 Alpha  occ. eigenvalues --   -0.42214  -0.42136  -0.41674  -0.41271  -0.40936
 Alpha  occ. eigenvalues --   -0.40696  -0.40183  -0.39995  -0.39562  -0.39269
 Alpha  occ. eigenvalues --   -0.39026  -0.38969  -0.38694  -0.38189  -0.38080
 Alpha  occ. eigenvalues --   -0.37866  -0.37106  -0.36947  -0.36634  -0.36254
 Alpha  occ. eigenvalues --   -0.36102  -0.35539  -0.35462  -0.34643  -0.34351
 Alpha  occ. eigenvalues --   -0.33852  -0.33420  -0.32742  -0.32518  -0.30666
 Alpha  occ. eigenvalues --   -0.30497  -0.30142  -0.29605  -0.28929  -0.27901
 Alpha  occ. eigenvalues --   -0.26753  -0.26474  -0.26057  -0.25338  -0.24675
 Alpha  occ. eigenvalues --   -0.24177  -0.23645  -0.22906  -0.22545  -0.18926
 Alpha virt. eigenvalues --   -0.09989  -0.06651  -0.06138  -0.01989  -0.01574
 Alpha virt. eigenvalues --    0.00325   0.00575   0.00647   0.01101   0.02309
 Alpha virt. eigenvalues --    0.03226   0.03371   0.03622   0.04073   0.04399

 Mulliken charges:
               1
     1  O   -0.230772
     2  O   -0.216218
     3  O   -0.274734
     4  O   -0.280179
     5  O   -0.221568
     6  O   -0.195020
     7  N    0.009029
     8  N   -0.083684
     9  N   -0.054660
    10  N   -0.255986
    11  C   -0.009390
    12  C    0.270381
    13  C   -0.118108
    14  C   -0.153173
    15  C   -0.018642
    16  C    0.023335
    17  C   -0.196540
    18  C    0.019386
    19  C    0.095332
    20  C   -0.095021
    21  C    0.063048
    22  C    0.119992
    23  C   -0.047860
    24  C    0.181176
    25  C    0.119952
    26  C   -0.043333
    27  C   -0.098863
    28  C    0.135635
    29  C    0.144234
    30  C   -0.149066
    31  C   -0.025258
    32  C   -0.015509
    33  C   -0.142538
    34  C    0.170240
    35  C    0.055269
    36  C   -0.028929
    37  C    0.181903
    38  C    0.019851
    39  C   -0.152839
    40  C    0.154394
    41  C   -0.068919
    42  C   -0.028158
    43  C   -0.072078
    44  H    0.044281
    45  H   -0.030859
    46  H   -0.023371
    47  H    0.098727
    48  H    0.107287
    49  H   -0.021436
    50  H    0.061311
    51  H    0.014599
    52  H   -0.034742
    53  H    0.006811
    54  H    0.018916
    55  H    0.021156
    56  H    0.011275
    57  H    0.045673
    58  H    0.122104
    59  H    0.016529
    60  H    0.080380
    61  H   -0.030965
    62  H    0.015091
    63  H    0.022689
    64  H    0.064306
    65  H    0.059797
    66  H   -0.012248
    67  H    0.038423
    68  H    0.040821
    69  H   -0.017446
    70  H    0.015215
    71  H    0.015937
    72  H    0.194645
    73  H    0.061725
    74  H    0.060176
    75  H    0.061696
    76  H    0.053096
    77  H    0.240017
    78  H    0.021054
    79  H    0.071218
 Sum of Mulliken charges =   0.00000

 Dipole moment (field-independent basis, Debye):
    X=              0.5554    Y=              2.6958    Z=              2.4515  Tot=              3.6859
 Quadrupole moment (field-independent basis, Debye-Ang):
   XX=           -225.0942   YY=           -243.9612   ZZ=           -264.4488
   XY=             -9.8584   XZ=             38.3812   YZ=              8.6181

 Normal termination of Gaussian 09 at Mon Jul  8 11:02:36 2019.
