 Gaussian 09, Revision D.01,
 Gaussian 09:  ES64L-G09RevD.01 24-Apr-2013

 --------------------------
 # td=(NStates=1) B3LYP/SVP
 --------------------------

 --
 TD
 --
 Symbolic Z-matrix:
 Charge =  0 Multiplicity = 1

                         Standard orientation:
 ---------------------------------------------------------------------
 Center     Atomic      Atomic             Coordinates (Angstroms)
 Number     Number       Type             X           Y           Z
 ---------------------------------------------------------------------
      1          8           0        5.467065   -0.000301   -3.292779
      2          8           0       -2.836280   -3.110155    3.340062
      3          8           0       -3.269516   -0.908956    2.936632
      4          8           0       -1.849253    7.115236    1.523153
      5          8           0       -0.587351    6.964099   -0.259788
      6          8           0       -1.768364   -3.960957   -0.042581
      7          7           0        2.377590    0.791610    0.466204
      8          7           0        4.464746   -0.549585   -1.236470
      9          7           0       -1.858794    0.652094   -0.316549
     10          7           0       -2.662866   -1.808314   -0.417191
     11          6           0        4.899043   -1.053585    0.020195
     12          6           0        4.473349   -0.326176    1.199493
     13          6           0        2.939236   -0.087127    1.372381
     14          6           0        1.993178   -0.632785    2.126256
     15          6           0        0.777836    0.050785    1.733108
     16          6           0        0.971150    0.877053    0.641440
     17          6           0        6.358242   -1.341671   -0.222871
     18          6           0       -0.542174   -0.259645    2.471224
     19          6           0        6.710340   -0.842861   -1.408091
     20          6           0        0.178202    1.881289    0.005500
     21          6           0       -1.146651    1.863498   -0.337898
     22          6           0        5.518923   -0.412197   -2.181434
     23          6           0       -2.000538    2.904746   -0.836593
     24          6           0        2.168870   -1.545465    3.261752
     25          6           0        7.188360   -1.937733    0.851026
     26          6           0       -3.195015    2.248319   -1.331136
     27          6           0       -1.004971   -1.769017    2.576670
     28          6           0       -3.037590    0.833036   -0.973723
     29          6           0       -1.535934    4.287850   -0.849886
     30          6           0        8.105508   -0.718800   -2.034506
     31          6           0       -2.042673    5.095993    0.365506
     32          6           0       -4.368397    3.026492   -1.874926
     33          6           0       -4.021663   -0.036185   -1.259141
     34          6           0       -2.481696   -1.862390    2.968646
     35          6           0       -3.754289   -1.357323   -1.040317
     36          6           0        9.270103   -0.616673   -1.341667
     37          6           0       -1.381438    6.414156    0.485833
     38          6           0       -4.656554   -2.551980   -1.397476
     39          6           0       -3.977271   -3.712861   -1.029727
     40          6           0       -2.747587   -3.267222   -0.455026
     41          6           0       -5.926393   -2.434059   -1.956602
     42          6           0       -4.420412   -5.078729   -1.202007
     43          6           0       -6.679640   -3.282147   -2.835120
     44          1           0        4.358036   -2.088474    0.231921
     45          1           0        5.071268    0.590911    1.280790
     46          1           0        4.627458   -0.886793    2.203488
     47          1           0        2.756268    1.368776   -0.234529
     48          1           0        3.523727   -0.554354   -1.568330
     49          1           0       -0.724204    0.034866    3.585646
     50          1           0       -1.537888    0.079836    2.002447
     51          1           0        0.832374    2.838646   -0.380824
     52          1           0        3.226906   -1.541851    3.663661
     53          1           0        1.288243   -1.272194    3.926092
     54          1           0        1.917962   -2.628981    2.763959
     55          1           0        6.608772   -2.947948    1.462814
     56          1           0        7.145832   -1.030278    1.597247
     57          1           0        8.319047   -2.121374    0.488759
     58          1           0       -1.034261   -2.171372    1.556208
     59          1           0       -0.496230   -2.436873    3.241604
     60          1           0       -1.652764   -0.232833   -0.274530
     61          1           0       -1.959691    4.704556   -1.583583
     62          1           0       -0.413005    4.479830   -1.092415
     63          1           0        8.211273   -0.645465   -3.053418
     64          1           0       -1.452352    4.570640    1.188461
     65          1           0       -3.166532    5.071408    0.615171
     66          1           0       -4.046921    4.073606   -2.295766
     67          1           0       -5.125088    3.053919   -1.236039
     68          1           0       -4.563690    2.365647   -2.974496
     69          1           0       -4.863983    0.283876   -1.764099
     70          1           0        9.330347   -0.622092   -0.215340
     71          1           0        9.933760   -0.485299   -2.182778
     72          1           0       -3.876820   -3.296432    3.426036
     73          1           0       -6.388803   -1.493366   -1.772642
     74          1           0       -3.853503   -5.441646   -2.166246
     75          1           0       -4.122195   -5.825690   -0.126655
     76          1           0       -5.697944   -5.200994   -1.538024
     77          1           0       -1.436961    8.114259    1.466950
     78          1           0       -7.709257   -3.062911   -3.224789
     79          1           0       -6.313049   -4.175408   -3.191590
 ---------------------------------------------------------------------

 SCF Done:  E(RB3LYP) =  -1947.77280162     A.U. after   17 cycles

 Excitation energies and oscillator strengths:

 Excited State   1:      Singlet-A      2.0338 eV  609.61 nm  f=0.3734  <S**2>=0.000
     154 ->156         0.15289
     155 ->156         0.68328
     155 <-156        -0.10178
 This state for optimization and/or second-order correction.
 Total Energy, E(TD-HF/TD-KS) =  -1947.69805948
 Copying the excited state density for this state as the 1-particle RhoCI density.

 The electronic state is 1-A.
 Alpha  occ. eigenvalues --  -19.18590 -19.17282 -19.12581 -19.10711 -19.10554
 Alpha  occ. eigenvalues --  -19.10363 -14.37112 -14.35731 -14.34502 -14.29147
 Alpha  occ. eigenvalues --  -10.32359 -10.30428 -10.28466 -10.26745 -10.24727
 Alpha  occ. eigenvalues --  -10.24415 -10.24290 -10.23988 -10.23178 -10.23027
 Alpha  occ. eigenvalues --  -10.22980 -10.22942 -10.22868 -10.22760 -10.22463
 Alpha  occ. eigenvalues --  -10.22068 -10.21952 -10.21815 -10.21661 -10.20997
 Alpha  occ. eigenvalues --  -10.20972 -10.20899 -10.20615 -10.20237 -10.20014
 Alpha  occ. eigenvalues --  -10.19968 -10.19816 -10.19775 -10.19747 -10.19347
 Alpha  occ. eigenvalues --  -10.18485 -10.18067 -10.17955  -1.09537  -1.06219
 Alpha  occ. eigenvalues --   -1.04048  -0.99305  -0.99236  -0.98727  -0.97932
 Alpha  occ. eigenvalues --   -0.97310  -0.94748  -0.91143  -0.84197  -0.82315
 Alpha  occ. eigenvalues --   -0.82063  -0.81362  -0.80763  -0.80037  -0.78859
 Alpha  occ. eigenvalues --   -0.77667  -0.76359  -0.75714  -0.74910  -0.73297
 Alpha  occ. eigenvalues --   -0.71573  -0.71022  -0.70116  -0.69386  -0.68616
 Alpha  occ. eigenvalues --   -0.65970  -0.65377  -0.63802  -0.61667  -0.59987
 Alpha  occ. eigenvalues --   -0.59848  -0.58998  -0.57884  -0.57522  -0.57218
 Alpha  occ. eigenvalues --   -0.56723  -0.56230  -0.55402  -0.54104  -0.53663
 Alpha  occ. eigenvalues --   -0.52164  -0.51864  -0.51301  -0.50943  -0.50185
 Alpha  occ. eigenvalues --   -0.49094  -0.48239  -0.47928  -0.47897  -0.47624
 Alpha  occ. eigenvalues --   -0.46666  -0.46459  -0.46426  -0.46115  -0.45745
 Alpha  occ. eigenvalues --   -0.45500  -0.44923  -0.44402  -0.44259  -0.43628
 Alpha  occ. eigenvalues --   -0.43414  -0.43082  -0.42770  -0.42554  -0.42429
 Alpha  occ. eigenvalues --   -0.42029  -0.41552  -0.41342  -0.40956  -0.40788
 Alpha  occ. eigenvalues --   -0.40329  -0.40207  -0.39962  -0.39817  -0.39446
 Alpha  occ. eigenvalues --   -0.39177  -0.39020  -0.38903  -0.38478  -0.38237
 Alpha  occ. eigenvalues --   -0.38030  -0.37695  -0.37431  -0.36689  -0.36293
 Alpha  occ. eigenvalues --   -0.35901  -0.35370  -0.34545  -0.34446  -0.33981
 Alpha  occ. eigenvalues --   -0.33650  -0.33082  -0.32137  -0.32073  -0.31252
 Alpha  occ. eigenvalues --   -0.30889  -0.30232  -0.28649  -0.28278  -0.27112
 Alpha  occ. eigenvalues --   -0.26252  -0.26072  -0.25914  -0.25859  -0.24595
 Alpha  occ. eigenvalues --   -0.24418  -0.24173  -0.23939  -0.22279  -0.19356
 Alpha virt. eigenvalues --   -0.11155  -0.07591  -0.05207  -0.01716  -0.00422
 Alpha virt. eigenvalues --    0.00527   0.00971   0.02043   0.02333   0.02537
 Alpha virt. eigenvalues --    0.02981   0.03250   0.03972   0.04372   0.04652

 Mulliken charges:
               1
     1  O   -0.173832
     2  O   -0.236705
     3  O   -0.263386
     4  O   -0.237714
     5  O   -0.244712
     6  O   -0.242134
     7  N   -0.096075
     8  N   -0.221473
     9  N    0.032333
    10  N   -0.317264
    11  C    0.102969
    12  C    0.177532
    13  C   -0.078628
    14  C   -0.119921
    15  C   -0.013098
    16  C    0.046898
    17  C   -0.115805
    18  C   -0.066906
    19  C   -0.074077
    20  C   -0.114203
    21  C    0.111687
    22  C    0.153643
    23  C   -0.085773
    24  C    0.039759
    25  C   -0.052814
    26  C   -0.153851
    27  C   -0.002064
    28  C    0.130816
    29  C    0.196209
    30  C   -0.010235
    31  C   -0.022564
    32  C    0.054185
    33  C   -0.124643
    34  C    0.141482
    35  C    0.140929
    36  C   -0.015477
    37  C    0.120707
    38  C    0.080937
    39  C   -0.084294
    40  C    0.161538
    41  C   -0.083862
    42  C   -0.098225
    43  C   -0.020607
    44  H    0.012396
    45  H   -0.008673
    46  H   -0.002567
    47  H    0.093681
    48  H    0.115953
    49  H    0.022646
    50  H    0.052871
    51  H    0.030271
    52  H    0.034737
    53  H    0.046999
    54  H    0.059347
    55  H    0.063969
    56  H    0.057588
    57  H    0.070735
    58  H    0.070325
    59  H    0.010125
    60  H    0.062836
    61  H   -0.082844
    62  H    0.045382
    63  H   -0.017004
    64  H    0.053120
    65  H    0.074549
    66  H    0.047196
    67  H    0.023805
    68  H    0.050502
    69  H   -0.066324
    70  H    0.036962
    71  H    0.029977
    72  H    0.227272
    73  H   -0.008710
    74  H    0.067402
    75  H    0.068712
    76  H    0.054159
    77  H    0.233264
    78  H    0.041341
    79  H    0.006716
 Sum of Mulliken charges =   0.00000

 Dipole moment (field-independent basis, Debye):
    X=             -1.1953    Y=              2.2691    Z=              1.7987  Tot=              3.1325
 Quadrupole moment (field-independent basis, Debye-Ang):
   XX=           -218.8591   YY=           -247.0820   ZZ=           -260.3090
   XY=             -8.6458   XZ=             31.6580   YZ=              3.3604

 Normal termination of Gaussian 09 at Tue Jul  9 16:37:32 2019.
