 Gaussian 09, Revision D.01,
 Gaussian 09:  ES64L-G09RevD.01 24-Apr-2013

 --------------------------
 # td=(NStates=1) B3LYP/SVP
 --------------------------

 --
 TD
 --
 Symbolic Z-matrix:
 Charge =  0 Multiplicity = 1

                         Standard orientation:
 ---------------------------------------------------------------------
 Center     Atomic      Atomic             Coordinates (Angstroms)
 Number     Number       Type             X           Y           Z
 ---------------------------------------------------------------------
      1          8           0        5.282736    0.014598   -3.361018
      2          8           0       -2.881062   -3.290344    3.256314
      3          8           0       -3.152392   -1.054816    3.163627
      4          8           0       -1.870957    7.287904    1.517146
      5          8           0       -0.777166    7.058344   -0.538304
      6          8           0       -1.965929   -3.997877   -0.134463
      7          7           0        2.323569    0.864278    0.558832
      8          7           0        4.474398   -0.615863   -1.364623
      9          7           0       -1.910421    0.636144   -0.370606
     10          7           0       -2.644958   -1.834635   -0.604067
     11          6           0        4.938195   -1.168725   -0.029817
     12          6           0        4.560365   -0.258705    1.237061
     13          6           0        3.104399   -0.009917    1.343673
     14          6           0        2.124438   -0.630315    2.174621
     15          6           0        0.869063   -0.177747    1.898638
     16          6           0        1.013021    0.846588    0.942252
     17          6           0        6.438398   -1.217945   -0.309427
     18          6           0       -0.435776   -0.541531    2.647592
     19          6           0        6.694403   -0.721820   -1.520960
     20          6           0        0.175679    1.816638    0.375620
     21          6           0       -1.072064    1.803580   -0.224731
     22          6           0        5.463730   -0.375838   -2.167057
     23          6           0       -1.986832    2.908992   -0.747600
     24          6           0        2.478685   -1.756705    3.126308
     25          6           0        7.251905   -1.792743    0.908396
     26          6           0       -3.185966    2.407617   -1.112677
     27          6           0       -0.989755   -1.891896    2.502006
     28          6           0       -3.149964    0.987040   -0.917883
     29          6           0       -1.512800    4.412758   -0.842803
     30          6           0        7.987962   -0.697097   -2.200247
     31          6           0       -1.742294    5.134357    0.547563
     32          6           0       -4.325370    3.029470   -1.720124
     33          6           0       -4.082445    0.059821   -1.333284
     34          6           0       -2.418796   -2.045358    3.089186
     35          6           0       -3.776517   -1.349562   -1.101389
     36          6           0        9.145420   -0.774922   -1.630601
     37          6           0       -1.390667    6.605893    0.448242
     38          6           0       -4.748798   -2.469726   -1.523053
     39          6           0       -4.080804   -3.626557   -1.216720
     40          6           0       -2.802152   -3.262912   -0.655339
     41          6           0       -6.052667   -2.359445   -1.999161
     42          6           0       -4.537521   -5.066058   -1.381828
     43          6           0       -6.807552   -3.266704   -2.657095
     44          1           0        4.264853   -1.965528   -0.018113
     45          1           0        5.335769    0.720012    1.353204
     46          1           0        4.912250   -0.801077    2.102038
     47          1           0        2.778715    1.208068   -0.111714
     48          1           0        3.411163   -0.614520   -1.470008
     49          1           0       -0.271686   -0.272374    3.841493
     50          1           0       -1.173081    0.357588    2.429081
     51          1           0        0.748354    2.655740    0.280741
     52          1           0        3.608517   -2.201857    2.949662
     53          1           0        2.286815   -1.409697    4.282213
     54          1           0        1.653080   -2.648725    3.031317
     55          1           0        6.723491   -2.469287    1.269778
     56          1           0        7.470234   -1.005806    1.658546
     57          1           0        8.173928   -2.364900    0.586262
     58          1           0       -0.880710   -2.438508    1.441380
     59          1           0       -0.396276   -2.614124    3.045050
     60          1           0       -1.707448   -0.339134   -0.301169
     61          1           0       -2.221643    4.658648   -1.593955
     62          1           0       -0.483121    4.378477   -1.033775
     63          1           0        7.780477   -0.574614   -3.208202
     64          1           0       -1.253437    4.594527    1.356618
     65          1           0       -2.838085    4.909239    0.937054
     66          1           0       -4.205508    3.997837   -1.801769
     67          1           0       -5.228701    2.783962   -1.225376
     68          1           0       -4.474148    2.829852   -2.804271
     69          1           0       -4.841405    0.492676   -1.688726
     70          1           0        9.105022   -0.701064   -0.545194
     71          1           0       10.111508   -0.585380   -2.229683
     72          1           0       -3.664421   -3.264416    3.506685
     73          1           0       -6.585632   -1.299188   -2.033757
     74          1           0       -4.922378   -5.094885   -2.419485
     75          1           0       -3.724835   -5.756201   -1.058645
     76          1           0       -5.457329   -5.124625   -0.602300
     77          1           0       -1.610720    8.297844    1.255715
     78          1           0       -7.602121   -2.861119   -2.973808
     79          1           0       -6.482998   -4.272529   -2.666239
 ---------------------------------------------------------------------

 SCF Done:  E(RB3LYP) =  -1947.76377941     A.U. after   16 cycles

 Excitation energies and oscillator strengths:

 Excited State   1:      Singlet-A      2.0656 eV  600.24 nm  f=0.4180  <S**2>=0.000
     155 ->156         0.70053
 This state for optimization and/or second-order correction.
 Total Energy, E(TD-HF/TD-KS) =  -1947.68787127
 Copying the excited state density for this state as the 1-particle RhoCI density.

 The electronic state is 1-A.
 Alpha  occ. eigenvalues --  -19.20747 -19.16957 -19.13886 -19.11245 -19.11100
 Alpha  occ. eigenvalues --  -19.07601 -14.37532 -14.35730 -14.35127 -14.29872
 Alpha  occ. eigenvalues --  -10.33492 -10.31359 -10.27184 -10.27008 -10.25146
 Alpha  occ. eigenvalues --  -10.24901 -10.24502 -10.23813 -10.23618 -10.23022
 Alpha  occ. eigenvalues --  -10.23006 -10.22439 -10.22426 -10.22247 -10.21814
 Alpha  occ. eigenvalues --  -10.20885 -10.20826 -10.20820 -10.20758 -10.20737
 Alpha  occ. eigenvalues --  -10.20411 -10.20378 -10.20247 -10.19897 -10.19856
 Alpha  occ. eigenvalues --  -10.19628 -10.19058 -10.19011 -10.18958 -10.18931
 Alpha  occ. eigenvalues --  -10.18601 -10.18410 -10.18069  -1.11394  -1.09179
 Alpha  occ. eigenvalues --   -1.01727  -1.00735  -1.00376  -0.99556  -0.99342
 Alpha  occ. eigenvalues --   -0.95983  -0.92581  -0.91953  -0.83040  -0.82821
 Alpha  occ. eigenvalues --   -0.82224  -0.82004  -0.81570  -0.79980  -0.78092
 Alpha  occ. eigenvalues --   -0.77464  -0.76906  -0.76158  -0.75505  -0.73292
 Alpha  occ. eigenvalues --   -0.72937  -0.71227  -0.70233  -0.68883  -0.68595
 Alpha  occ. eigenvalues --   -0.68127  -0.66504  -0.64846  -0.62694  -0.62079
 Alpha  occ. eigenvalues --   -0.61422  -0.59795  -0.59038  -0.58708  -0.57014
 Alpha  occ. eigenvalues --   -0.56603  -0.55532  -0.54990  -0.54095  -0.53898
 Alpha  occ. eigenvalues --   -0.52918  -0.51423  -0.50801  -0.49990  -0.49863
 Alpha  occ. eigenvalues --   -0.49442  -0.49289  -0.49111  -0.48615  -0.47995
 Alpha  occ. eigenvalues --   -0.47483  -0.47152  -0.46982  -0.46096  -0.45867
 Alpha  occ. eigenvalues --   -0.45648  -0.45281  -0.45137  -0.44763  -0.44369
 Alpha  occ. eigenvalues --   -0.43969  -0.43566  -0.43437  -0.43033  -0.42665
 Alpha  occ. eigenvalues --   -0.42417  -0.41909  -0.41606  -0.41423  -0.41065
 Alpha  occ. eigenvalues --   -0.40903  -0.40528  -0.40342  -0.40274  -0.39868
 Alpha  occ. eigenvalues --   -0.39449  -0.38891  -0.38825  -0.38697  -0.38550
 Alpha  occ. eigenvalues --   -0.37895  -0.37663  -0.37384  -0.37154  -0.36771
 Alpha  occ. eigenvalues --   -0.36282  -0.36082  -0.35860  -0.34873  -0.34452
 Alpha  occ. eigenvalues --   -0.34186  -0.33964  -0.33107  -0.32520  -0.31663
 Alpha  occ. eigenvalues --   -0.31390  -0.30394  -0.29260  -0.28899  -0.28195
 Alpha  occ. eigenvalues --   -0.26521  -0.25934  -0.25582  -0.25138  -0.24947
 Alpha  occ. eigenvalues --   -0.24852  -0.23753  -0.23612  -0.22708  -0.19234
 Alpha virt. eigenvalues --   -0.10935  -0.06934  -0.05523  -0.01823  -0.01141
 Alpha virt. eigenvalues --    0.00308   0.00378   0.01621   0.01926   0.02523
 Alpha virt. eigenvalues --    0.04130   0.04222   0.04361   0.05181   0.05684

 Mulliken charges:
               1
     1  O   -0.294029
     2  O   -0.056847
     3  O   -0.257127
     4  O   -0.220792
     5  O   -0.257227
     6  O   -0.204135
     7  N    0.007615
     8  N   -0.179728
     9  N   -0.121033
    10  N   -0.277637
    11  C    0.097787
    12  C    0.100794
    13  C   -0.115761
    14  C   -0.083657
    15  C   -0.039426
    16  C    0.081073
    17  C   -0.179088
    18  C    0.006307
    19  C   -0.048150
    20  C   -0.112329
    21  C    0.170575
    22  C    0.130248
    23  C   -0.178127
    24  C   -0.045021
    25  C    0.187935
    26  C   -0.128856
    27  C   -0.003510
    28  C    0.077620
    29  C    0.223335
    30  C    0.041445
    31  C   -0.066659
    32  C    0.213155
    33  C    0.021285
    34  C    0.123227
    35  C    0.139928
    36  C   -0.010453
    37  C    0.205095
    38  C    0.093882
    39  C   -0.216753
    40  C    0.159215
    41  C   -0.147399
    42  C    0.062184
    43  C    0.107482
    44  H   -0.002294
    45  H    0.037467
    46  H   -0.003532
    47  H    0.029215
    48  H    0.149515
    49  H    0.018170
    50  H    0.042089
    51  H   -0.041323
    52  H    0.039519
    53  H    0.040099
    54  H    0.048739
    55  H   -0.056294
    56  H    0.047570
    57  H    0.034565
    58  H    0.099765
    59  H    0.002466
    60  H    0.123362
    61  H    0.009524
    62  H    0.005531
    63  H   -0.028472
    64  H    0.038791
    65  H    0.047898
    66  H   -0.059219
    67  H    0.018871
    68  H    0.023078
    69  H   -0.159746
    70  H    0.012408
    71  H    0.045320
    72  H    0.088620
    73  H    0.011176
    74  H    0.055551
    75  H    0.045354
    76  H    0.051240
    77  H    0.225138
    78  H   -0.040098
    79  H   -0.006505
 Sum of Mulliken charges =   0.00000

 Dipole moment (field-independent basis, Debye):
    X=             -1.5483    Y=              1.7224    Z=              3.7519  Tot=              4.4092
 Quadrupole moment (field-independent basis, Debye-Ang):
   XX=           -218.9901   YY=           -239.4895   ZZ=           -267.6225
   XY=            -11.5580   XZ=             38.0416   YZ=              4.8275

 Normal termination of Gaussian 09 at Mon Jul  8 12:23:52 2019.
