 Gaussian 09, Revision D.01,
 Gaussian 09:  ES64L-G09RevD.01 24-Apr-2013

 --------------------------
 # td=(NStates=1) B3LYP/SVP
 --------------------------

 --
 TD
 --
 Symbolic Z-matrix:
 Charge =  0 Multiplicity = 1

                         Standard orientation:
 ---------------------------------------------------------------------
 Center     Atomic      Atomic             Coordinates (Angstroms)
 Number     Number       Type             X           Y           Z
 ---------------------------------------------------------------------
      1          8           0        5.364823   -0.203237   -3.250891
      2          8           0       -2.996562   -2.960031    3.271305
      3          8           0       -3.143861   -0.759508    3.386149
      4          8           0       -1.601023    7.175804    1.427665
      5          8           0       -0.449123    6.940220   -0.454980
      6          8           0       -1.930889   -4.092601    0.093306
      7          7           0        2.367871    0.935638    0.617906
      8          7           0        4.414824   -0.662277   -1.280698
      9          7           0       -1.842706    0.700751   -0.519960
     10          7           0       -2.655910   -1.913908   -0.406548
     11          6           0        4.746374   -1.100613    0.080851
     12          6           0        4.515890   -0.227301    1.244435
     13          6           0        3.002526    0.060802    1.412371
     14          6           0        1.996942   -0.497808    2.125942
     15          6           0        0.751761    0.006927    1.864116
     16          6           0        0.987145    0.963592    0.812805
     17          6           0        6.338771   -1.386281   -0.163129
     18          6           0       -0.600369   -0.182075    2.533707
     19          6           0        6.751593   -0.967041   -1.415903
     20          6           0        0.124033    1.917858    0.174151
     21          6           0       -1.100443    1.877218   -0.417849
     22          6           0        5.451011   -0.521190   -2.092820
     23          6           0       -1.929602    2.903428   -1.051092
     24          6           0        2.153083   -1.545724    3.175719
     25          6           0        7.224385   -1.826136    0.908176
     26          6           0       -3.208837    2.326001   -1.346122
     27          6           0       -1.065831   -1.649386    2.510508
     28          6           0       -3.043946    0.912140   -1.087495
     29          6           0       -1.531670    4.402918   -0.923463
     30          6           0        7.977900   -0.943478   -2.122238
     31          6           0       -1.729619    5.104796    0.338857
     32          6           0       -4.327589    3.061448   -2.057412
     33          6           0       -4.000982   -0.109703   -1.303267
     34          6           0       -2.480790   -1.719657    3.031537
     35          6           0       -3.718620   -1.505476   -1.066606
     36          6           0        9.222027   -1.081358   -1.621828
     37          6           0       -1.252350    6.525836    0.379232
     38          6           0       -4.623287   -2.652486   -1.505135
     39          6           0       -4.033260   -3.763384   -1.009317
     40          6           0       -2.713223   -3.313367   -0.362810
     41          6           0       -6.083350   -2.399120   -1.869415
     42          6           0       -4.494982   -5.154825   -1.125529
     43          6           0       -6.709391   -3.282115   -2.777237
     44          1           0        4.285269   -2.151409    0.342589
     45          1           0        4.886045    0.847027    1.098611
     46          1           0        4.840110   -0.501597    2.320314
     47          1           0        2.776777    1.754674   -0.096248
     48          1           0        3.447652   -0.685140   -1.763097
     49          1           0       -0.506630    0.260149    3.421619
     50          1           0       -1.409191    0.449334    2.119577
     51          1           0        0.652887    2.895182    0.036882
     52          1           0        3.233338   -1.945468    3.268823
     53          1           0        1.746831   -1.149304    4.031427
     54          1           0        1.719149   -2.559711    2.935783
     55          1           0        6.553205   -2.319492    1.828838
     56          1           0        7.794449   -0.868344    1.225982
     57          1           0        8.066484   -2.378281    0.548697
     58          1           0       -1.007165   -2.123263    1.555729
     59          1           0       -0.640040   -2.382391    3.258617
     60          1           0       -1.622510   -0.253038   -0.339300
     61          1           0       -1.988420    4.711144   -1.747290
     62          1           0       -0.490470    4.519366   -1.278726
     63          1           0        7.878233   -1.298706   -3.221383
     64          1           0       -1.214204    4.731009    1.246744
     65          1           0       -2.935726    5.257136    0.357753
     66          1           0       -4.169038    4.081132   -2.474444
     67          1           0       -5.158069    3.413132   -1.385131
     68          1           0       -4.990560    2.602706   -2.912383
     69          1           0       -4.871942    0.160096   -1.657967
     70          1           0        9.276498   -0.916288   -0.527689
     71          1           0       10.012723   -1.088606   -2.326160
     72          1           0       -3.973450   -3.078253    3.433946
     73          1           0       -6.530593   -1.565990   -1.646730
     74          1           0       -4.298182   -5.581932   -2.075864
     75          1           0       -3.922641   -5.890517   -0.368980
     76          1           0       -5.626673   -5.093529   -0.891615
     77          1           0       -1.092999    8.089463    1.591788
     78          1           0       -7.702003   -3.136744   -3.026489
     79          1           0       -6.526420   -4.436796   -3.182008
 ---------------------------------------------------------------------

 SCF Done:  E(RB3LYP) =  -1947.84121163     A.U. after   16 cycles

 Excitation energies and oscillator strengths:

 Excited State   1:      Singlet-A      2.1934 eV  565.27 nm  f=0.4866  <S**2>=0.000
     155 ->156         0.70028
     155 <-156        -0.11372
 This state for optimization and/or second-order correction.
 Total Energy, E(TD-HF/TD-KS) =  -1947.76060667
 Copying the excited state density for this state as the 1-particle RhoCI density.

 The electronic state is 1-A.
 Alpha  occ. eigenvalues --  -19.20508 -19.15375 -19.11799 -19.10637 -19.09963
 Alpha  occ. eigenvalues --  -19.08767 -14.39253 -14.36092 -14.35990 -14.29069
 Alpha  occ. eigenvalues --  -10.32232 -10.30084 -10.27354 -10.26890 -10.26488
 Alpha  occ. eigenvalues --  -10.24708 -10.24277 -10.23461 -10.23309 -10.22693
 Alpha  occ. eigenvalues --  -10.22656 -10.22542 -10.22401 -10.22394 -10.22266
 Alpha  occ. eigenvalues --  -10.22083 -10.22075 -10.21703 -10.20957 -10.20756
 Alpha  occ. eigenvalues --  -10.20181 -10.19838 -10.19734 -10.19710 -10.19546
 Alpha  occ. eigenvalues --  -10.19058 -10.19030 -10.19030 -10.18734 -10.18670
 Alpha  occ. eigenvalues --  -10.18408 -10.17882 -10.17741  -1.11645  -1.06194
 Alpha  occ. eigenvalues --   -1.02895  -1.02657  -0.99988  -0.98934  -0.98524
 Alpha  occ. eigenvalues --   -0.96984  -0.93593  -0.92202  -0.82918  -0.82367
 Alpha  occ. eigenvalues --   -0.81714  -0.81151  -0.79894  -0.79682  -0.78493
 Alpha  occ. eigenvalues --   -0.77239  -0.76274  -0.75682  -0.74369  -0.72398
 Alpha  occ. eigenvalues --   -0.71163  -0.71017  -0.69661  -0.69380  -0.68374
 Alpha  occ. eigenvalues --   -0.67288  -0.65955  -0.63638  -0.62072  -0.61044
 Alpha  occ. eigenvalues --   -0.60638  -0.59321  -0.58844  -0.57331  -0.56587
 Alpha  occ. eigenvalues --   -0.56301  -0.56105  -0.55068  -0.54233  -0.53401
 Alpha  occ. eigenvalues --   -0.52446  -0.51228  -0.50688  -0.50628  -0.50228
 Alpha  occ. eigenvalues --   -0.49442  -0.48598  -0.48290  -0.47832  -0.47657
 Alpha  occ. eigenvalues --   -0.47500  -0.46874  -0.46637  -0.46074  -0.45467
 Alpha  occ. eigenvalues --   -0.44861  -0.44456  -0.44182  -0.44120  -0.43641
 Alpha  occ. eigenvalues --   -0.43475  -0.43229  -0.42751  -0.42326  -0.42203
 Alpha  occ. eigenvalues --   -0.42014  -0.41842  -0.41642  -0.41535  -0.41425
 Alpha  occ. eigenvalues --   -0.40704  -0.40522  -0.40211  -0.39912  -0.39581
 Alpha  occ. eigenvalues --   -0.39526  -0.39246  -0.38568  -0.38475  -0.38133
 Alpha  occ. eigenvalues --   -0.37950  -0.37132  -0.36939  -0.36649  -0.36465
 Alpha  occ. eigenvalues --   -0.36107  -0.35275  -0.34577  -0.34444  -0.34290
 Alpha  occ. eigenvalues --   -0.34213  -0.33722  -0.32703  -0.32487  -0.30567
 Alpha  occ. eigenvalues --   -0.30382  -0.29749  -0.28679  -0.27611  -0.27446
 Alpha  occ. eigenvalues --   -0.26522  -0.25938  -0.25457  -0.24878  -0.24581
 Alpha  occ. eigenvalues --   -0.24171  -0.23988  -0.23549  -0.22456  -0.19032
 Alpha virt. eigenvalues --   -0.10530  -0.06043  -0.05550  -0.01808  -0.00057
 Alpha virt. eigenvalues --    0.00177   0.00899   0.01572   0.01996   0.02462
 Alpha virt. eigenvalues --    0.02609   0.03244   0.04650   0.04810   0.04904

 Mulliken charges:
               1
     1  O   -0.218248
     2  O   -0.233604
     3  O   -0.248946
     4  O   -0.172701
     5  O   -0.259416
     6  O   -0.171788
     7  N   -0.123730
     8  N   -0.174726
     9  N   -0.032198
    10  N   -0.272742
    11  C    0.112036
    12  C    0.180760
    13  C   -0.109999
    14  C   -0.162517
    15  C   -0.065783
    16  C    0.019225
    17  C   -0.185842
    18  C    0.195076
    19  C   -0.027247
    20  C   -0.111853
    21  C    0.113454
    22  C    0.086457
    23  C   -0.121656
    24  C    0.093165
    25  C    0.032038
    26  C   -0.059715
    27  C    0.015460
    28  C    0.065735
    29  C    0.174569
    30  C   -0.060992
    31  C    0.038843
    32  C    0.012615
    33  C    0.002946
    34  C    0.129547
    35  C    0.051229
    36  C   -0.011330
    37  C    0.084984
    38  C    0.021129
    39  C   -0.185734
    40  C    0.150546
    41  C    0.048188
    42  C    0.048633
    43  C   -0.062481
    44  H    0.040365
    45  H   -0.000731
    46  H    0.042880
    47  H    0.170234
    48  H    0.161530
    49  H   -0.036503
    50  H    0.010785
    51  H   -0.009843
    52  H   -0.012601
    53  H    0.008688
    54  H    0.032004
    55  H    0.046924
    56  H    0.052368
    57  H    0.030731
    58  H    0.052203
    59  H    0.038322
    60  H    0.117457
    61  H   -0.045887
    62  H    0.001353
    63  H    0.041568
    64  H    0.050848
    65  H    0.050963
    66  H    0.014082
    67  H    0.016589
    68  H    0.043826
    69  H   -0.120671
    70  H    0.011549
    71  H    0.024307
    72  H    0.202793
    73  H   -0.041838
    74  H    0.029534
    75  H    0.038532
    76  H    0.037896
    77  H    0.238539
    78  H   -0.001390
    79  H    0.059207
 Sum of Mulliken charges =   0.00000

 Dipole moment (field-independent basis, Debye):
    X=             -0.0847    Y=              3.4440    Z=              3.1706  Tot=              4.6820
 Quadrupole moment (field-independent basis, Debye-Ang):
   XX=           -218.4847   YY=           -236.6920   ZZ=           -266.0202
   XY=             -9.9022   XZ=             34.6155   YZ=             11.5123

 Normal termination of Gaussian 09 at Mon Jul  8 01:00:10 2019.
