 Gaussian 09, Revision D.01,
 Gaussian 09:  ES64L-G09RevD.01 24-Apr-2013

 --------------------------
 # td=(NStates=1) B3LYP/SVP
 --------------------------

 --
 TD
 --
 Symbolic Z-matrix:
 Charge =  0 Multiplicity = 1

                         Standard orientation:
 ---------------------------------------------------------------------
 Center     Atomic      Atomic             Coordinates (Angstroms)
 Number     Number       Type             X           Y           Z
 ---------------------------------------------------------------------
      1          8           0        5.567196   -0.439424   -3.366522
      2          8           0       -2.821466   -3.225262    3.019201
      3          8           0       -3.132136   -1.080988    3.460954
      4          8           0       -1.616825    7.273845    1.577248
      5          8           0       -0.445775    6.997030   -0.275684
      6          8           0       -2.156093   -3.913120   -0.031763
      7          7           0        2.371731    0.728396    0.481700
      8          7           0        4.564784   -0.855602   -1.316210
      9          7           0       -1.890266    0.643580   -0.440854
     10          7           0       -2.729719   -1.767343   -0.623835
     11          6           0        4.969503   -1.274175    0.013967
     12          6           0        4.409888   -0.392362    1.211566
     13          6           0        2.891429   -0.216077    1.201054
     14          6           0        2.007000   -0.756704    2.035903
     15          6           0        0.729111   -0.135337    1.791749
     16          6           0        1.056084    0.787014    0.828337
     17          6           0        6.504734   -1.220231   -0.137801
     18          6           0       -0.565798   -0.276740    2.511900
     19          6           0        6.920562   -0.816065   -1.329773
     20          6           0        0.225210    1.898213    0.165853
     21          6           0       -1.089221    1.809815   -0.263445
     22          6           0        5.673752   -0.594826   -2.196736
     23          6           0       -1.973159    2.908317   -0.838416
     24          6           0        2.156267   -1.786823    3.134473
     25          6           0        7.430793   -1.740994    0.929765
     26          6           0       -3.151001    2.405725   -1.151478
     27          6           0       -1.068713   -1.814323    2.424949
     28          6           0       -3.173308    0.892801   -0.994587
     29          6           0       -1.397681    4.424379   -0.816905
     30          6           0        8.099334   -0.645238   -2.066575
     31          6           0       -1.799334    5.120493    0.541692
     32          6           0       -4.292651    3.130669   -1.994973
     33          6           0       -4.136657    0.039063   -1.359018
     34          6           0       -2.392811   -1.929263    3.090945
     35          6           0       -3.935144   -1.333339   -1.184081
     36          6           0        9.436154   -0.680827   -1.617945
     37          6           0       -1.159446    6.537206    0.513051
     38          6           0       -4.854072   -2.449557   -1.470449
     39          6           0       -4.276717   -3.572356   -1.143731
     40          6           0       -2.926122   -3.228179   -0.519191
     41          6           0       -6.195774   -2.080714   -2.022151
     42          6           0       -4.814341   -4.981648   -1.187024
     43          6           0       -7.071270   -2.998118   -2.503518
     44          1           0        4.620681   -2.254577    0.177216
     45          1           0        4.829669    0.708027    1.150090
     46          1           0        4.859098   -0.701621    2.211439
     47          1           0        2.831424    1.326253   -0.120083
     48          1           0        3.515839   -0.448665   -1.383925
     49          1           0       -0.465373   -0.026864    3.637011
     50          1           0       -1.327700    0.363408    2.099427
     51          1           0        0.763813    2.674974    0.026115
     52          1           0        3.182068   -1.852125    3.333199
     53          1           0        1.637680   -1.379812    4.061453
     54          1           0        1.879884   -2.824476    2.782073
     55          1           0        7.143104   -2.220595    2.010550
     56          1           0        8.129705   -0.860795    1.331337
     57          1           0        8.261147   -2.622123    0.522299
     58          1           0       -1.180950   -2.287430    1.384297
     59          1           0       -0.458676   -2.416769    3.000839
     60          1           0       -1.672470   -0.220045   -0.429161
     61          1           0       -2.022866    4.809547   -1.742508
     62          1           0       -0.479987    4.626493   -1.271643
     63          1           0        7.932419   -0.731500   -3.027810
     64          1           0       -1.547665    4.767150    1.568081
     65          1           0       -2.859757    5.306366    0.567979
     66          1           0       -4.110595    4.321284   -1.891078
     67          1           0       -5.248563    2.578322   -1.655673
     68          1           0       -4.358276    2.919292   -3.148523
     69          1           0       -5.231524    0.555206   -1.667315
     70          1           0        9.715417   -0.819277   -0.493405
     71          1           0       10.254980   -0.664459   -2.247999
     72          1           0       -3.649935   -3.080127    3.474846
     73          1           0       -6.618766   -1.034562   -1.810588
     74          1           0       -5.137129   -5.301344   -2.159059
     75          1           0       -4.054238   -5.751310   -0.780893
     76          1           0       -5.736462   -5.075283   -0.520033
     77          1           0       -1.206239    8.177441    1.475220
     78          1           0       -8.018288   -2.720385   -3.122045
     79          1           0       -6.966011   -4.158275   -2.699254
 ---------------------------------------------------------------------

 SCF Done:  E(RB3LYP) =  -1947.81286289     A.U. after   16 cycles

 Excitation energies and oscillator strengths:

 Excited State   1:      Singlet-A      2.2466 eV  551.87 nm  f=0.3606  <S**2>=0.000
     155 ->156         0.69909
 This state for optimization and/or second-order correction.
 Total Energy, E(TD-HF/TD-KS) =  -1947.73030155
 Copying the excited state density for this state as the 1-particle RhoCI density.

 The electronic state is 1-A.
 Alpha  occ. eigenvalues --  -19.17951 -19.15624 -19.14010 -19.12109 -19.11491
 Alpha  occ. eigenvalues --  -19.10862 -14.37899 -14.35471 -14.34655 -14.29238
 Alpha  occ. eigenvalues --  -10.32300 -10.29684 -10.28628 -10.27067 -10.25211
 Alpha  occ. eigenvalues --  -10.24914 -10.24149 -10.23662 -10.23482 -10.22850
 Alpha  occ. eigenvalues --  -10.22648 -10.22522 -10.22389 -10.22217 -10.22076
 Alpha  occ. eigenvalues --  -10.22011 -10.21737 -10.21661 -10.21379 -10.21376
 Alpha  occ. eigenvalues --  -10.20785 -10.20487 -10.20480 -10.20381 -10.19922
 Alpha  occ. eigenvalues --  -10.19851 -10.19799 -10.19500 -10.19370 -10.19037
 Alpha  occ. eigenvalues --  -10.18206 -10.18004 -10.17411  -1.11226  -1.09191
 Alpha  occ. eigenvalues --   -1.06801  -1.04036  -1.01986  -1.01568  -0.99582
 Alpha  occ. eigenvalues --   -0.96722  -0.92387  -0.90731  -0.82013  -0.81928
 Alpha  occ. eigenvalues --   -0.81641  -0.80980  -0.79942  -0.78661  -0.77575
 Alpha  occ. eigenvalues --   -0.76341  -0.76215  -0.75261  -0.74323  -0.71923
 Alpha  occ. eigenvalues --   -0.70590  -0.69776  -0.69538  -0.68578  -0.68115
 Alpha  occ. eigenvalues --   -0.67334  -0.65531  -0.63605  -0.61991  -0.60407
 Alpha  occ. eigenvalues --   -0.59622  -0.58602  -0.58321  -0.57225  -0.56990
 Alpha  occ. eigenvalues --   -0.56263  -0.55180  -0.54334  -0.54216  -0.52606
 Alpha  occ. eigenvalues --   -0.51781  -0.51229  -0.50286  -0.49929  -0.49565
 Alpha  occ. eigenvalues --   -0.49167  -0.48604  -0.48207  -0.47898  -0.47763
 Alpha  occ. eigenvalues --   -0.47357  -0.46931  -0.46714  -0.46207  -0.45525
 Alpha  occ. eigenvalues --   -0.45464  -0.44750  -0.44238  -0.44017  -0.43923
 Alpha  occ. eigenvalues --   -0.43338  -0.42944  -0.42837  -0.42349  -0.42204
 Alpha  occ. eigenvalues --   -0.41961  -0.41633  -0.41281  -0.41087  -0.40881
 Alpha  occ. eigenvalues --   -0.40578  -0.40372  -0.39892  -0.39799  -0.39773
 Alpha  occ. eigenvalues --   -0.39467  -0.39200  -0.39034  -0.38872  -0.38357
 Alpha  occ. eigenvalues --   -0.38103  -0.37946  -0.37485  -0.37189  -0.37069
 Alpha  occ. eigenvalues --   -0.36133  -0.35938  -0.35741  -0.35493  -0.34731
 Alpha  occ. eigenvalues --   -0.33950  -0.33693  -0.32948  -0.32507  -0.31588
 Alpha  occ. eigenvalues --   -0.31325  -0.30960  -0.29454  -0.28727  -0.28130
 Alpha  occ. eigenvalues --   -0.27154  -0.26614  -0.26286  -0.25553  -0.24881
 Alpha  occ. eigenvalues --   -0.24482  -0.24208  -0.23633  -0.22682  -0.19608
 Alpha virt. eigenvalues --   -0.10425  -0.06342  -0.05703  -0.01323   0.00912
 Alpha virt. eigenvalues --    0.00926   0.01947   0.02080   0.02396   0.03322
 Alpha virt. eigenvalues --    0.03703   0.03777   0.04645   0.05011   0.05049

 Mulliken charges:
               1
     1  O   -0.174774
     2  O   -0.181401
     3  O   -0.216623
     4  O   -0.226623
     5  O   -0.167657
     6  O   -0.093073
     7  N    0.042848
     8  N   -0.304580
     9  N   -0.027592
    10  N   -0.369321
    11  C    0.190136
    12  C    0.062017
    13  C   -0.095136
    14  C   -0.181069
    15  C   -0.065395
    16  C   -0.023512
    17  C   -0.126486
    18  C    0.094627
    19  C   -0.012268
    20  C    0.003935
    21  C    0.158605
    22  C    0.165363
    23  C   -0.086865
    24  C    0.139197
    25  C   -0.102670
    26  C   -0.111533
    27  C    0.007277
    28  C    0.135556
    29  C    0.074137
    30  C    0.032685
    31  C    0.039829
    32  C   -0.020164
    33  C   -0.166187
    34  C    0.096229
    35  C    0.087947
    36  C   -0.025052
    37  C    0.095148
    38  C    0.093581
    39  C   -0.223353
    40  C    0.152006
    41  C   -0.005425
    42  C    0.057344
    43  C   -0.106355
    44  H    0.004084
    45  H   -0.000263
    46  H    0.025155
    47  H    0.086429
    48  H    0.151865
    49  H    0.019359
    50  H    0.007008
    51  H   -0.097433
    52  H   -0.041965
    53  H    0.029770
    54  H    0.046857
    55  H    0.044654
    56  H    0.053571
    57  H    0.061969
    58  H    0.099982
    59  H   -0.005950
    60  H    0.041107
    61  H    0.018071
    62  H    0.015422
    63  H   -0.041607
    64  H    0.059472
    65  H    0.035593
    66  H    0.052027
    67  H    0.037365
    68  H    0.051948
    69  H    0.032694
    70  H    0.033982
    71  H    0.012479
    72  H    0.143969
    73  H    0.037611
    74  H    0.026162
    75  H    0.037987
    76  H    0.036183
    77  H    0.186400
    78  H    0.037723
    79  H    0.044966
 Sum of Mulliken charges =   0.00000

 Dipole moment (field-independent basis, Debye):
    X=             -0.7447    Y=              2.6586    Z=              2.1576  Tot=              3.5040
 Quadrupole moment (field-independent basis, Debye-Ang):
   XX=           -218.5956   YY=           -241.0419   ZZ=           -263.9985
   XY=             -2.7102   XZ=             37.0015   YZ=              1.2852

 Normal termination of Gaussian 09 at Wed Jul 10 10:08:49 2019.
