 Gaussian 09, Revision D.01,
 Gaussian 09:  ES64L-G09RevD.01 24-Apr-2013

 --------------------------
 # td=(NStates=1) B3LYP/SVP
 --------------------------

 --
 TD
 --
 Symbolic Z-matrix:
 Charge =  0 Multiplicity = 1

                         Standard orientation:
 ---------------------------------------------------------------------
 Center     Atomic      Atomic             Coordinates (Angstroms)
 Number     Number       Type             X           Y           Z
 ---------------------------------------------------------------------
      1          8           0        5.173279   -0.151465   -3.281228
      2          8           0       -2.858924   -2.990823    3.296344
      3          8           0       -3.192106   -0.872506    3.397999
      4          8           0       -1.490979    7.324244    1.371825
      5          8           0       -0.247288    6.843142   -0.504680
      6          8           0       -2.010008   -3.963577   -0.030001
      7          7           0        2.365605    0.797575    0.598875
      8          7           0        4.305418   -0.545860   -1.249813
      9          7           0       -1.831407    0.703678   -0.349623
     10          7           0       -2.706014   -1.780832   -0.532482
     11          6           0        4.791874   -1.173871    0.027566
     12          6           0        4.537703   -0.400177    1.176926
     13          6           0        2.984243   -0.165669    1.414317
     14          6           0        1.939499   -0.769892    2.114741
     15          6           0        0.657571   -0.042649    1.817423
     16          6           0        0.962637    0.946842    0.898040
     17          6           0        6.267216   -1.380691   -0.238131
     18          6           0       -0.567553   -0.249891    2.611820
     19          6           0        6.654939   -0.971543   -1.493756
     20          6           0        0.201187    2.046372    0.379551
     21          6           0       -1.089873    1.882475   -0.219982
     22          6           0        5.322551   -0.433822   -2.125542
     23          6           0       -1.843620    2.903205   -0.893735
     24          6           0        2.291459   -1.835533    3.134551
     25          6           0        7.116023   -2.105930    0.759663
     26          6           0       -3.091806    2.437791   -1.269109
     27          6           0       -1.129485   -1.741000    2.503136
     28          6           0       -3.033688    0.910625   -0.934696
     29          6           0       -1.461913    4.374427   -0.855768
     30          6           0        7.936715   -0.922075   -2.104967
     31          6           0       -1.679267    5.167789    0.476321
     32          6           0       -4.230213    3.153382   -1.888731
     33          6           0       -4.014795    0.049599   -1.208151
     34          6           0       -2.449627   -1.764678    3.253899
     35          6           0       -3.795939   -1.327253   -1.086397
     36          6           0        9.124088   -0.872304   -1.578878
     37          6           0       -1.098037    6.508961    0.317302
     38          6           0       -4.777895   -2.465996   -1.540148
     39          6           0       -4.106249   -3.644235   -1.146666
     40          6           0       -2.795431   -3.210808   -0.531319
     41          6           0       -6.045110   -2.409570   -2.160606
     42          6           0       -4.475695   -5.096854   -1.245935
     43          6           0       -6.880728   -3.302003   -2.715309
     44          1           0        4.465961   -2.164598    0.076951
     45          1           0        4.784975    0.685887    0.931466
     46          1           0        5.076547   -0.457277    2.147429
     47          1           0        2.726063    1.386820   -0.088800
     48          1           0        3.297238   -0.644369   -1.730179
     49          1           0       -0.562925    0.117235    3.501449
     50          1           0       -1.090283    0.545451    1.984111
     51          1           0        0.704640    3.258696    0.384742
     52          1           0        3.322339   -1.717221    3.606817
     53          1           0        1.642836   -1.732614    4.063498
     54          1           0        2.545091   -2.874492    2.692596
     55          1           0        6.381082   -2.741045    1.289916
     56          1           0        7.844860   -1.581570    1.586578
     57          1           0        7.792230   -2.701003    0.120612
     58          1           0       -1.295245   -2.136757    1.430011
     59          1           0       -0.522201   -2.432386    2.988438
     60          1           0       -1.553601   -0.326028   -0.228689
     61          1           0       -1.970377    5.057492   -1.558977
     62          1           0       -0.285355    4.425460   -1.075208
     63          1           0        7.807866   -1.056080   -3.262170
     64          1           0       -1.256911    4.661155    1.302165
     65          1           0       -2.651883    5.248207    0.723423
     66          1           0       -4.091915    4.275482   -2.111746
     67          1           0       -5.215486    3.031342   -1.366542
     68          1           0       -4.704486    2.648496   -2.868915
     69          1           0       -4.888970    0.476532   -1.943790
     70          1           0        9.309669   -0.530333   -0.643481
     71          1           0       10.177710   -0.904358   -2.211055
     72          1           0       -3.804619   -2.952877    3.446984
     73          1           0       -6.381208   -1.321795   -2.215408
     74          1           0       -4.301207   -5.762514   -2.194401
     75          1           0       -3.825656   -5.673367   -0.511518
     76          1           0       -5.539516   -5.141687   -0.937972
     77          1           0       -1.068320    8.182368    1.349061
     78          1           0       -7.673079   -3.034895   -3.146162
     79          1           0       -6.447559   -4.417547   -2.686568
 ---------------------------------------------------------------------

 SCF Done:  E(RB3LYP) =  -1947.82209564     A.U. after   16 cycles

 Excitation energies and oscillator strengths:

 Excited State   1:      Singlet-A      2.1140 eV  586.48 nm  f=0.3503  <S**2>=0.000
     155 ->156         0.69678
 This state for optimization and/or second-order correction.
 Total Energy, E(TD-HF/TD-KS) =  -1947.74440616
 Copying the excited state density for this state as the 1-particle RhoCI density.

 The electronic state is 1-A.
 Alpha  occ. eigenvalues --  -19.18369 -19.16307 -19.13779 -19.11869 -19.10418
 Alpha  occ. eigenvalues --  -19.09189 -14.37174 -14.36488 -14.35842 -14.30452
 Alpha  occ. eigenvalues --  -10.33078 -10.29077 -10.27895 -10.27636 -10.25283
 Alpha  occ. eigenvalues --  -10.25158 -10.24765 -10.24425 -10.23929 -10.22756
 Alpha  occ. eigenvalues --  -10.22419 -10.22259 -10.22105 -10.22055 -10.22013
 Alpha  occ. eigenvalues --  -10.21677 -10.21619 -10.21435 -10.21310 -10.20858
 Alpha  occ. eigenvalues --  -10.20679 -10.20383 -10.20359 -10.20320 -10.20277
 Alpha  occ. eigenvalues --  -10.20072 -10.19795 -10.19725 -10.19530 -10.18991
 Alpha  occ. eigenvalues --  -10.18474 -10.18251 -10.17418  -1.11119  -1.08769
 Alpha  occ. eigenvalues --   -1.03706  -1.03037  -1.00671  -1.00365  -0.98274
 Alpha  occ. eigenvalues --   -0.95651  -0.93372  -0.93050  -0.82794  -0.82507
 Alpha  occ. eigenvalues --   -0.81510  -0.81128  -0.80239  -0.79844  -0.78877
 Alpha  occ. eigenvalues --   -0.77409  -0.75925  -0.75319  -0.75104  -0.72893
 Alpha  occ. eigenvalues --   -0.70794  -0.70632  -0.70010  -0.68105  -0.67992
 Alpha  occ. eigenvalues --   -0.67322  -0.65951  -0.63902  -0.61570  -0.60846
 Alpha  occ. eigenvalues --   -0.60749  -0.59367  -0.58600  -0.56740  -0.56169
 Alpha  occ. eigenvalues --   -0.56111  -0.55177  -0.54596  -0.54061  -0.52764
 Alpha  occ. eigenvalues --   -0.52683  -0.51880  -0.51332  -0.50964  -0.49878
 Alpha  occ. eigenvalues --   -0.48997  -0.48674  -0.48040  -0.47942  -0.47518
 Alpha  occ. eigenvalues --   -0.47190  -0.46713  -0.46642  -0.46220  -0.46152
 Alpha  occ. eigenvalues --   -0.45705  -0.45072  -0.44696  -0.43863  -0.43637
 Alpha  occ. eigenvalues --   -0.43371  -0.43036  -0.42664  -0.42532  -0.42398
 Alpha  occ. eigenvalues --   -0.41859  -0.41622  -0.41398  -0.41134  -0.40804
 Alpha  occ. eigenvalues --   -0.40507  -0.40034  -0.39839  -0.39817  -0.39244
 Alpha  occ. eigenvalues --   -0.39206  -0.38942  -0.38920  -0.38499  -0.38265
 Alpha  occ. eigenvalues --   -0.38006  -0.37740  -0.37523  -0.37002  -0.36618
 Alpha  occ. eigenvalues --   -0.35607  -0.35505  -0.35323  -0.34775  -0.34479
 Alpha  occ. eigenvalues --   -0.33749  -0.33634  -0.32980  -0.32047  -0.31814
 Alpha  occ. eigenvalues --   -0.31278  -0.30479  -0.29321  -0.29283  -0.28865
 Alpha  occ. eigenvalues --   -0.26742  -0.26500  -0.25809  -0.25056  -0.24913
 Alpha  occ. eigenvalues --   -0.24330  -0.24178  -0.23026  -0.22632  -0.19618
 Alpha virt. eigenvalues --   -0.11004  -0.07152  -0.05306  -0.01709  -0.01254
 Alpha virt. eigenvalues --    0.00684   0.01097   0.01989   0.02683   0.03158
 Alpha virt. eigenvalues --    0.03659   0.04154   0.04618   0.05093   0.05687

 Mulliken charges:
               1
     1  O   -0.210398
     2  O   -0.124386
     3  O   -0.205696
     4  O   -0.209754
     5  O   -0.232138
     6  O   -0.169221
     7  N   -0.119885
     8  N   -0.243437
     9  N   -0.093680
    10  N   -0.293349
    11  C    0.194841
    12  C    0.179001
    13  C   -0.044203
    14  C   -0.136328
    15  C   -0.112817
    16  C    0.047334
    17  C   -0.222125
    18  C    0.175553
    19  C   -0.026133
    20  C   -0.160263
    21  C    0.107637
    22  C    0.112717
    23  C   -0.057109
    24  C    0.035651
    25  C    0.030656
    26  C   -0.068258
    27  C   -0.008227
    28  C    0.112286
    29  C   -0.007924
    30  C   -0.005824
    31  C    0.107458
    32  C    0.022644
    33  C   -0.164959
    34  C    0.072690
    35  C    0.101983
    36  C   -0.056248
    37  C    0.140689
    38  C    0.062885
    39  C   -0.190672
    40  C    0.162545
    41  C   -0.080309
    42  C    0.021766
    43  C    0.063712
    44  H    0.004106
    45  H   -0.005337
    46  H    0.029656
    47  H    0.090174
    48  H    0.180417
    49  H   -0.049266
    50  H   -0.002219
    51  H    0.070507
    52  H   -0.007621
    53  H    0.032474
    54  H    0.028276
    55  H    0.013794
    56  H    0.064812
    57  H    0.042491
    58  H    0.093987
    59  H   -0.001174
    60  H    0.185464
    61  H    0.015726
    62  H    0.044962
    63  H    0.035990
    64  H    0.027090
    65  H   -0.008942
    66  H    0.041540
    67  H    0.026331
    68  H    0.032162
    69  H    0.024406
    70  H   -0.007248
    71  H    0.049372
    72  H    0.155717
    73  H   -0.011303
    74  H    0.059114
    75  H    0.034925
    76  H    0.036032
    77  H    0.177543
    78  H   -0.050764
    79  H    0.038101
 Sum of Mulliken charges =   0.00000

 Dipole moment (field-independent basis, Debye):
    X=             -0.7122    Y=              1.4909    Z=              2.3475  Tot=              2.8707
 Quadrupole moment (field-independent basis, Debye-Ang):
   XX=           -218.2238   YY=           -238.8472   ZZ=           -265.7603
   XY=            -11.0070   XZ=             36.1110   YZ=              6.7448

 Normal termination of Gaussian 09 at Mon Jul  8 22:06:37 2019.
