 Gaussian 09, Revision D.01,
 Gaussian 09:  ES64L-G09RevD.01 24-Apr-2013

 --------------------------
 # td=(NStates=1) B3LYP/SVP
 --------------------------

 --
 TD
 --
 Symbolic Z-matrix:
 Charge =  0 Multiplicity = 1

                         Standard orientation:
 ---------------------------------------------------------------------
 Center     Atomic      Atomic             Coordinates (Angstroms)
 Number     Number       Type             X           Y           Z
 ---------------------------------------------------------------------
      1          8           0        5.469785   -0.174559   -3.306357
      2          8           0       -2.912286   -3.084051    3.105934
      3          8           0       -3.204220   -0.867997    3.285446
      4          8           0       -2.101792    7.222760    1.243292
      5          8           0       -0.643828    6.864102   -0.385059
      6          8           0       -1.778012   -4.018048    0.035219
      7          7           0        2.432341    0.958106    0.585256
      8          7           0        4.479026   -0.505007   -1.256193
      9          7           0       -1.890270    0.620155   -0.320106
     10          7           0       -2.689852   -1.935406   -0.398091
     11          6           0        4.857691   -1.045749   -0.048038
     12          6           0        4.479694   -0.110817    1.199505
     13          6           0        3.042003    0.026221    1.398261
     14          6           0        2.046059   -0.564633    2.178392
     15          6           0        0.761871   -0.024856    1.804871
     16          6           0        1.024468    0.935888    0.730998
     17          6           0        6.391234   -1.259810   -0.108809
     18          6           0       -0.519904   -0.330374    2.392244
     19          6           0        6.710793   -0.844145   -1.443926
     20          6           0        0.180707    1.878763    0.119462
     21          6           0       -1.119196    1.820803   -0.324609
     22          6           0        5.498950   -0.471208   -2.137030
     23          6           0       -1.958169    2.755018   -0.844071
     24          6           0        2.339014   -1.595544    3.132531
     25          6           0        7.264495   -1.734983    0.968210
     26          6           0       -3.165171    2.292533   -1.148449
     27          6           0       -1.090388   -1.755572    2.452648
     28          6           0       -3.153156    0.856189   -0.983675
     29          6           0       -1.583311    4.298801   -0.936122
     30          6           0        8.003218   -0.775576   -2.088695
     31          6           0       -2.002571    5.095150    0.374680
     32          6           0       -4.385231    3.082083   -1.740293
     33          6           0       -4.033865   -0.141382   -1.337452
     34          6           0       -2.570787   -1.823801    2.996864
     35          6           0       -3.764346   -1.472491   -1.029592
     36          6           0        9.191526   -0.529896   -1.451634
     37          6           0       -1.485929    6.464646    0.298622
     38          6           0       -4.590606   -2.585790   -1.502371
     39          6           0       -3.882733   -3.779302   -1.211202
     40          6           0       -2.637259   -3.313638   -0.400472
     41          6           0       -5.920588   -2.333445   -2.079029
     42          6           0       -4.293759   -5.261156   -1.357027
     43          6           0       -6.751169   -3.343230   -2.468604
     44          1           0        4.288064   -2.011486    0.149777
     45          1           0        5.107528    0.952697    1.115530
     46          1           0        4.995078   -0.616266    2.092291
     47          1           0        2.689489    1.639412   -0.161331
     48          1           0        3.551213   -0.880573   -1.793250
     49          1           0       -0.477746   -0.242860    3.479675
     50          1           0       -1.379144    0.517084    2.256258
     51          1           0        0.444313    2.693504   -0.062652
     52          1           0        3.320463   -1.394905    3.655332
     53          1           0        1.628799   -1.434077    4.030041
     54          1           0        2.023410   -2.612490    2.985357
     55          1           0        6.754674   -2.424303    1.926910
     56          1           0        7.751292   -0.931677    1.408180
     57          1           0        8.198287   -2.429925    0.548057
     58          1           0       -0.783844   -2.511395    1.521356
     59          1           0       -0.510159   -2.332131    3.074998
     60          1           0       -1.638077   -0.413521   -0.081851
     61          1           0       -2.121845    4.860392   -1.740985
     62          1           0       -0.554389    4.435309   -1.136499
     63          1           0        7.891080   -0.944482   -3.286142
     64          1           0       -1.482728    4.634741    1.085413
     65          1           0       -2.976801    5.106014    0.710001
     66          1           0       -4.311848    4.149986   -1.878635
     67          1           0       -5.103837    2.899316   -0.759463
     68          1           0       -4.872640    2.649516   -2.718123
     69          1           0       -5.010271    0.035158   -1.706667
     70          1           0        9.212137   -0.177800   -0.236211
     71          1           0       10.275529   -0.517441   -1.845610
     72          1           0       -3.818359   -3.194888    3.328515
     73          1           0       -6.123051   -1.376728   -2.072946
     74          1           0       -4.443141   -5.352755   -2.524991
     75          1           0       -3.489556   -5.813797   -0.880432
     76          1           0       -5.400778   -5.401136   -0.762229
     77          1           0       -1.674257    8.032516    1.251854
     78          1           0       -7.682810   -3.014663   -2.956622
     79          1           0       -6.533469   -4.531136   -2.555896
 ---------------------------------------------------------------------

 SCF Done:  E(RB3LYP) =  -1947.77588787     A.U. after   16 cycles

 Excitation energies and oscillator strengths:

 Excited State   1:      Singlet-A      2.0815 eV  595.66 nm  f=0.4103  <S**2>=0.000
     154 ->156         0.23823
     155 ->156         0.65721
     155 <-156        -0.10415
 This state for optimization and/or second-order correction.
 Total Energy, E(TD-HF/TD-KS) =  -1947.69939515
 Copying the excited state density for this state as the 1-particle RhoCI density.

 The electronic state is 1-A.
 Alpha  occ. eigenvalues --  -19.17541 -19.17452 -19.13489 -19.11509 -19.10569
 Alpha  occ. eigenvalues --  -19.09822 -14.38418 -14.36239 -14.34940 -14.27919
 Alpha  occ. eigenvalues --  -10.31718 -10.30881 -10.27768 -10.26270 -10.25623
 Alpha  occ. eigenvalues --  -10.24494 -10.23608 -10.23568 -10.23338 -10.23256
 Alpha  occ. eigenvalues --  -10.23189 -10.23170 -10.22358 -10.22277 -10.22220
 Alpha  occ. eigenvalues --  -10.21729 -10.21156 -10.20926 -10.20663 -10.20646
 Alpha  occ. eigenvalues --  -10.20345 -10.20083 -10.20072 -10.19919 -10.19673
 Alpha  occ. eigenvalues --  -10.19590 -10.19395 -10.19392 -10.19285 -10.19076
 Alpha  occ. eigenvalues --  -10.18868 -10.18561 -10.18427  -1.12015  -1.10319
 Alpha  occ. eigenvalues --   -1.03776  -1.03381  -1.02566  -1.01402  -0.97656
 Alpha  occ. eigenvalues --   -0.96052  -0.95760  -0.91717  -0.82676  -0.81963
 Alpha  occ. eigenvalues --   -0.81687  -0.81495  -0.79502  -0.79246  -0.78473
 Alpha  occ. eigenvalues --   -0.77150  -0.76437  -0.75138  -0.73573  -0.72297
 Alpha  occ. eigenvalues --   -0.71296  -0.71091  -0.69448  -0.68535  -0.68183
 Alpha  occ. eigenvalues --   -0.67194  -0.65777  -0.63915  -0.61232  -0.60752
 Alpha  occ. eigenvalues --   -0.60607  -0.59708  -0.59208  -0.57579  -0.56775
 Alpha  occ. eigenvalues --   -0.56233  -0.55562  -0.54525  -0.53537  -0.53310
 Alpha  occ. eigenvalues --   -0.51955  -0.51781  -0.51214  -0.51013  -0.50464
 Alpha  occ. eigenvalues --   -0.48900  -0.48788  -0.48304  -0.47420  -0.47196
 Alpha  occ. eigenvalues --   -0.47054  -0.47000  -0.46493  -0.45974  -0.45374
 Alpha  occ. eigenvalues --   -0.45277  -0.44395  -0.44342  -0.44003  -0.43125
 Alpha  occ. eigenvalues --   -0.43087  -0.42987  -0.42877  -0.42522  -0.42388
 Alpha  occ. eigenvalues --   -0.42216  -0.42097  -0.41801  -0.41433  -0.41306
 Alpha  occ. eigenvalues --   -0.40791  -0.40557  -0.40392  -0.40142  -0.39921
 Alpha  occ. eigenvalues --   -0.39353  -0.39177  -0.38805  -0.38568  -0.37977
 Alpha  occ. eigenvalues --   -0.37648  -0.37093  -0.37040  -0.36590  -0.36464
 Alpha  occ. eigenvalues --   -0.36343  -0.35945  -0.35128  -0.34828  -0.34596
 Alpha  occ. eigenvalues --   -0.34133  -0.33791  -0.33075  -0.32072  -0.30889
 Alpha  occ. eigenvalues --   -0.30841  -0.29761  -0.29487  -0.28507  -0.27373
 Alpha  occ. eigenvalues --   -0.27266  -0.26674  -0.25778  -0.25458  -0.24241
 Alpha  occ. eigenvalues --   -0.24062  -0.23617  -0.22887  -0.21238  -0.18986
 Alpha virt. eigenvalues --   -0.10784  -0.06758  -0.06218  -0.00738  -0.00368
 Alpha virt. eigenvalues --    0.00941   0.01353   0.02163   0.02785   0.02977
 Alpha virt. eigenvalues --    0.03825   0.03860   0.04484   0.05373   0.05600

 Mulliken charges:
               1
     1  O   -0.209135
     2  O   -0.124923
     3  O   -0.196269
     4  O   -0.162655
     5  O   -0.164060
     6  O   -0.181003
     7  N   -0.107707
     8  N   -0.153418
     9  N   -0.213399
    10  N   -0.272280
    11  C    0.037624
    12  C    0.064419
    13  C    0.015291
    14  C   -0.127533
    15  C    0.008391
    16  C    0.115531
    17  C   -0.087367
    18  C    0.003362
    19  C   -0.084754
    20  C    0.107723
    21  C    0.048812
    22  C    0.097190
    23  C   -0.037472
    24  C    0.083659
    25  C   -0.014523
    26  C   -0.095415
    27  C   -0.056270
    28  C    0.156794
    29  C    0.067741
    30  C   -0.006241
    31  C    0.129120
    32  C    0.024585
    33  C   -0.108018
    34  C    0.128920
    35  C    0.082454
    36  C   -0.127988
    37  C    0.068234
    38  C   -0.001841
    39  C   -0.235409
    40  C    0.151970
    41  C    0.087633
    42  C    0.008214
    43  C   -0.056592
    44  H    0.028883
    45  H    0.031441
    46  H    0.002772
    47  H    0.139081
    48  H    0.178599
    49  H   -0.007913
    50  H    0.052713
    51  H   -0.230684
    52  H    0.018246
    53  H   -0.003124
    54  H    0.030850
    55  H    0.053723
    56  H    0.033745
    57  H    0.067608
    58  H    0.071013
    59  H   -0.025166
    60  H    0.190307
    61  H    0.014241
    62  H    0.008957
    63  H    0.062588
    64  H   -0.011677
    65  H    0.004392
    66  H    0.017131
    67  H    0.050605
    68  H    0.057577
    69  H   -0.040532
    70  H    0.042110
    71  H    0.055808
    72  H    0.159275
    73  H   -0.091664
    74  H    0.061483
    75  H    0.039133
    76  H    0.057744
    77  H    0.141427
    78  H    0.017859
    79  H    0.058053
 Sum of Mulliken charges =   0.00000

 Dipole moment (field-independent basis, Debye):
    X=              0.8304    Y=              1.8277    Z=              3.1396  Tot=              3.7265
 Quadrupole moment (field-independent basis, Debye-Ang):
   XX=           -220.3354   YY=           -244.9870   ZZ=           -262.7891
   XY=            -10.1581   XZ=             31.1798   YZ=              0.3021

 Normal termination of Gaussian 09 at Mon Jul  8 13:48:52 2019.
