 Gaussian 09, Revision D.01,
 Gaussian 09:  ES64L-G09RevD.01 24-Apr-2013

 --------------------------
 # td=(NStates=1) B3LYP/SVP
 --------------------------

 --
 TD
 --
 Symbolic Z-matrix:
 Charge =  0 Multiplicity = 1

                         Standard orientation:
 ---------------------------------------------------------------------
 Center     Atomic      Atomic             Coordinates (Angstroms)
 Number     Number       Type             X           Y           Z
 ---------------------------------------------------------------------
      1          8           0        5.361180   -0.325236   -3.298732
      2          8           0       -2.831064   -3.055454    3.358531
      3          8           0       -3.263098   -0.834700    3.167054
      4          8           0       -1.633894    7.239645    1.520579
      5          8           0       -0.635217    6.853267   -0.478246
      6          8           0       -1.914397   -4.056621   -0.029109
      7          7           0        2.312636    1.038185    0.580544
      8          7           0        4.394779   -0.878129   -1.277693
      9          7           0       -1.870498    0.657971   -0.441188
     10          7           0       -2.736389   -1.855785   -0.531146
     11          6           0        4.862285   -1.232590    0.032109
     12          6           0        4.435098   -0.126429    1.124018
     13          6           0        2.989963    0.110669    1.228490
     14          6           0        2.100212   -0.673797    2.101180
     15          6           0        0.785552   -0.075216    1.836387
     16          6           0        0.961097    0.971299    0.873442
     17          6           0        6.334288   -1.339558   -0.159465
     18          6           0       -0.522359   -0.334208    2.536531
     19          6           0        6.656135   -0.948462   -1.423496
     20          6           0        0.178543    1.944952    0.135602
     21          6           0       -1.073141    1.848778   -0.303099
     22          6           0        5.449564   -0.538008   -2.170654
     23          6           0       -1.940827    2.957688   -0.938089
     24          6           0        2.434663   -1.650986    3.163876
     25          6           0        7.261989   -1.847787    0.902730
     26          6           0       -3.192747    2.347614   -1.281616
     27          6           0       -1.103630   -1.639154    2.363895
     28          6           0       -3.092253    0.974828   -0.899160
     29          6           0       -1.371211    4.383884   -0.934244
     30          6           0        7.967520   -0.761675   -2.146057
     31          6           0       -1.752952    4.999748    0.416011
     32          6           0       -4.396247    3.083954   -1.914725
     33          6           0       -4.044250   -0.022926   -1.303246
     34          6           0       -2.525674   -1.786428    3.003050
     35          6           0       -3.779300   -1.396004   -1.078776
     36          6           0        9.133683   -0.652979   -1.461623
     37          6           0       -1.297383    6.490550    0.496832
     38          6           0       -4.716217   -2.531245   -1.368863
     39          6           0       -4.164012   -3.720574   -0.929647
     40          6           0       -2.812547   -3.229898   -0.420847
     41          6           0       -5.972583   -2.322118   -2.083964
     42          6           0       -4.445438   -5.169799   -1.165878
     43          6           0       -6.734068   -3.296709   -2.577271
     44          1           0        4.433814   -2.350340    0.434961
     45          1           0        5.005257    0.793702    0.876759
     46          1           0        4.901484   -0.583515    2.100496
     47          1           0        2.635542    1.665988   -0.161020
     48          1           0        3.594732   -0.754026   -1.566256
     49          1           0       -0.378203   -0.134911    3.617421
     50          1           0       -1.138318    0.377554    2.184258
     51          1           0        0.620435    2.883794   -0.137114
     52          1           0        3.542352   -1.692691    3.521007
     53          1           0        2.090759   -1.228371    4.280358
     54          1           0        1.891525   -2.550145    2.730825
     55          1           0        6.537769   -2.413231    1.498435
     56          1           0        7.892930   -1.096799    1.477884
     57          1           0        7.831551   -2.812495    0.364303
     58          1           0       -1.104066   -2.139921    1.335018
     59          1           0       -0.502102   -2.544033    2.811381
     60          1           0       -1.801695   -0.377745   -0.184041
     61          1           0       -1.832067    5.239910   -1.577558
     62          1           0       -0.327467    4.369082   -1.307743
     63          1           0        7.767274   -0.705466   -3.244594
     64          1           0       -1.349781    4.461650    1.213376
     65          1           0       -2.762170    4.761720    0.567526
     66          1           0       -3.991935    4.115598   -1.972226
     67          1           0       -5.324115    2.829386   -1.489080
     68          1           0       -4.419980    2.765284   -3.056923
     69          1           0       -4.877508    0.082631   -1.612891
     70          1           0        9.162572   -0.693638   -0.316559
     71          1           0       10.066121   -0.500555   -1.991281
     72          1           0       -3.827839   -3.003722    3.732500
     73          1           0       -6.246132   -1.307255   -2.470168
     74          1           0       -4.290048   -5.152096   -2.299734
     75          1           0       -3.682016   -5.987050   -0.677018
     76          1           0       -5.496731   -5.608720   -0.607025
     77          1           0       -1.471625    8.420444    1.346815
     78          1           0       -7.650164   -2.938064   -3.173095
     79          1           0       -6.554455   -4.399346   -2.403820
 ---------------------------------------------------------------------

 SCF Done:  E(RB3LYP) =  -1947.78232588     A.U. after   18 cycles

 Excitation energies and oscillator strengths:

 Excited State   1:      Singlet-A      2.1607 eV  573.83 nm  f=0.5048  <S**2>=0.000
     155 ->156         0.69793
     155 <-156        -0.10124
 This state for optimization and/or second-order correction.
 Total Energy, E(TD-HF/TD-KS) =  -1947.70292303
 Copying the excited state density for this state as the 1-particle RhoCI density.

 The electronic state is 1-A.
 Alpha  occ. eigenvalues --  -19.21349 -19.17627 -19.12724 -19.11110 -19.10962
 Alpha  occ. eigenvalues --  -19.09742 -14.39387 -14.36202 -14.33073 -14.28728
 Alpha  occ. eigenvalues --  -10.33243 -10.30512 -10.27846 -10.26411 -10.26093
 Alpha  occ. eigenvalues --  -10.24550 -10.24495 -10.23617 -10.23119 -10.22732
 Alpha  occ. eigenvalues --  -10.22561 -10.22201 -10.22156 -10.21874 -10.21810
 Alpha  occ. eigenvalues --  -10.21680 -10.21523 -10.21496 -10.21416 -10.21126
 Alpha  occ. eigenvalues --  -10.21003 -10.20531 -10.20088 -10.20062 -10.19985
 Alpha  occ. eigenvalues --  -10.19511 -10.19459 -10.19444 -10.19302 -10.19249
 Alpha  occ. eigenvalues --  -10.18900 -10.17801 -10.16925  -1.09484  -1.07136
 Alpha  occ. eigenvalues --   -1.06425  -1.00233  -0.99925  -0.98559  -0.98416
 Alpha  occ. eigenvalues --   -0.96939  -0.94912  -0.92844  -0.82643  -0.82316
 Alpha  occ. eigenvalues --   -0.81677  -0.81139  -0.79960  -0.79120  -0.77648
 Alpha  occ. eigenvalues --   -0.76794  -0.76481  -0.75279  -0.73986  -0.71974
 Alpha  occ. eigenvalues --   -0.71735  -0.70636  -0.69221  -0.68147  -0.67449
 Alpha  occ. eigenvalues --   -0.66187  -0.65579  -0.63623  -0.60633  -0.60321
 Alpha  occ. eigenvalues --   -0.60261  -0.58247  -0.58047  -0.57783  -0.57124
 Alpha  occ. eigenvalues --   -0.56445  -0.55641  -0.54830  -0.53412  -0.52711
 Alpha  occ. eigenvalues --   -0.51936  -0.51611  -0.51054  -0.50516  -0.49656
 Alpha  occ. eigenvalues --   -0.48942  -0.48259  -0.48001  -0.47593  -0.47333
 Alpha  occ. eigenvalues --   -0.46903  -0.46535  -0.46456  -0.45852  -0.45486
 Alpha  occ. eigenvalues --   -0.45471  -0.44839  -0.44453  -0.43993  -0.43610
 Alpha  occ. eigenvalues --   -0.43418  -0.43215  -0.43045  -0.42663  -0.42466
 Alpha  occ. eigenvalues --   -0.42363  -0.41919  -0.41641  -0.41248  -0.40796
 Alpha  occ. eigenvalues --   -0.40677  -0.40337  -0.40176  -0.40025  -0.39647
 Alpha  occ. eigenvalues --   -0.39437  -0.38770  -0.38666  -0.38340  -0.38304
 Alpha  occ. eigenvalues --   -0.38235  -0.37735  -0.37495  -0.37170  -0.36837
 Alpha  occ. eigenvalues --   -0.36179  -0.35943  -0.34272  -0.34022  -0.33211
 Alpha  occ. eigenvalues --   -0.32895  -0.32643  -0.32070  -0.31377  -0.31155
 Alpha  occ. eigenvalues --   -0.30998  -0.30679  -0.29160  -0.28421  -0.26522
 Alpha  occ. eigenvalues --   -0.26468  -0.26399  -0.26122  -0.25415  -0.24668
 Alpha  occ. eigenvalues --   -0.24099  -0.23307  -0.22938  -0.21956  -0.18930
 Alpha virt. eigenvalues --   -0.10391  -0.06053  -0.05648  -0.04481  -0.00073
 Alpha virt. eigenvalues --    0.00291   0.00893   0.01131   0.02100   0.02417
 Alpha virt. eigenvalues --    0.03064   0.03261   0.04062   0.04408   0.04922

 Mulliken charges:
               1
     1  O   -0.148671
     2  O   -0.218904
     3  O   -0.242805
     4  O   -0.248317
     5  O   -0.264401
     6  O   -0.275489
     7  N   -0.011220
     8  N   -0.119626
     9  N   -0.114807
    10  N   -0.224564
    11  C    0.019203
    12  C    0.146704
    13  C   -0.069620
    14  C   -0.120320
    15  C   -0.154784
    16  C    0.099757
    17  C   -0.178342
    18  C    0.270639
    19  C   -0.092207
    20  C   -0.094259
    21  C    0.105987
    22  C    0.120544
    23  C   -0.079459
    24  C   -0.011842
    25  C    0.037290
    26  C   -0.177985
    27  C   -0.100315
    28  C    0.143781
    29  C    0.014066
    30  C    0.013317
    31  C    0.052574
    32  C    0.127982
    33  C    0.080878
    34  C    0.146957
    35  C    0.027635
    36  C   -0.032528
    37  C    0.183678
    38  C    0.042138
    39  C   -0.145101
    40  C    0.162939
    41  C   -0.035757
    42  C   -0.051498
    43  C   -0.066394
    44  H    0.049192
    45  H   -0.013405
    46  H    0.012979
    47  H    0.122280
    48  H    0.025030
    49  H    0.001380
    50  H   -0.047269
    51  H   -0.023104
    52  H    0.024007
    53  H    0.041484
    54  H    0.079188
    55  H    0.005770
    56  H    0.075509
    57  H    0.063313
    58  H    0.078260
    59  H    0.020228
    60  H    0.176718
    61  H    0.035220
    62  H    0.037342
    63  H    0.024923
    64  H    0.006931
    65  H    0.011687
    66  H    0.021068
    67  H    0.031869
    68  H    0.037311
    69  H   -0.225512
    70  H    0.033643
    71  H    0.025626
    72  H    0.216400
    73  H    0.004096
    74  H    0.067053
    75  H    0.060893
    76  H    0.056953
    77  H    0.284939
    78  H    0.028690
    79  H    0.032454
 Sum of Mulliken charges =   0.00000

 Dipole moment (field-independent basis, Debye):
    X=              0.7738    Y=              5.1413    Z=              3.2886  Tot=              6.1520
 Quadrupole moment (field-independent basis, Debye-Ang):
   XX=           -225.2475   YY=           -231.2336   ZZ=           -261.9806
   XY=            -10.8544   XZ=             27.6367   YZ=              3.1385

 Normal termination of Gaussian 09 at Wed Jul 10 16:13:02 2019.
