 Gaussian 09, Revision D.01,
 Gaussian 09:  ES64L-G09RevD.01 24-Apr-2013

 --------------------------
 # td=(NStates=1) B3LYP/SVP
 --------------------------

 --
 TD
 --
 Symbolic Z-matrix:
 Charge =  0 Multiplicity = 1

                         Standard orientation:
 ---------------------------------------------------------------------
 Center     Atomic      Atomic             Coordinates (Angstroms)
 Number     Number       Type             X           Y           Z
 ---------------------------------------------------------------------
      1          8           0        5.511288   -0.167538   -3.315146
      2          8           0       -3.013144   -3.043737    3.197632
      3          8           0       -3.236576   -0.840259    3.234139
      4          8           0       -1.472316    7.268285    1.303357
      5          8           0       -0.518722    6.947180   -0.727634
      6          8           0       -1.823673   -3.968740   -0.086730
      7          7           0        2.278629    0.998736    0.504275
      8          7           0        4.418381   -0.458880   -1.269893
      9          7           0       -1.935857    0.678880   -0.273218
     10          7           0       -2.679631   -1.868481   -0.505346
     11          6           0        4.808142   -1.078804    0.035533
     12          6           0        4.426798   -0.096551    1.190329
     13          6           0        3.000917    0.117757    1.349008
     14          6           0        2.007631   -0.514179    2.127678
     15          6           0        0.676576    0.005579    1.847193
     16          6           0        0.895601    0.910350    0.823340
     17          6           0        6.239918   -1.373635   -0.132978
     18          6           0       -0.626206   -0.223781    2.611465
     19          6           0        6.653442   -1.007936   -1.357733
     20          6           0        0.137300    1.945447    0.227021
     21          6           0       -1.114955    1.783031   -0.330208
     22          6           0        5.513690   -0.503549   -2.080806
     23          6           0       -1.917940    2.900869   -0.839213
     24          6           0        2.352493   -1.544746    3.231186
     25          6           0        7.086908   -2.050698    0.935848
     26          6           0       -3.183224    2.287995   -1.175956
     27          6           0       -1.058178   -1.622542    2.756350
     28          6           0       -3.073893    0.822174   -0.837942
     29          6           0       -1.543150    4.362958   -0.950422
     30          6           0        7.958525   -0.914140   -2.051024
     31          6           0       -1.808731    5.139487    0.404549
     32          6           0       -4.333016    3.072314   -1.847714
     33          6           0       -4.033369   -0.101879   -1.209332
     34          6           0       -2.522911   -1.724400    3.072854
     35          6           0       -3.816029   -1.492464   -1.096116
     36          6           0        9.241401   -1.077735   -1.494799
     37          6           0       -1.214392    6.541079    0.229146
     38          6           0       -4.645465   -2.636458   -1.541469
     39          6           0       -3.941265   -3.743853   -1.141040
     40          6           0       -2.692825   -3.261977   -0.487827
     41          6           0       -6.017053   -2.487497   -2.055672
     42          6           0       -4.216885   -5.248955   -1.397711
     43          6           0       -6.819396   -3.374146   -2.514241
     44          1           0        4.259899   -1.928399    0.240693
     45          1           0        4.893753    0.900800    1.080722
     46          1           0        4.576519   -0.456001    2.135823
     47          1           0        2.762984    1.656194   -0.103492
     48          1           0        3.322930   -0.256194   -1.503709
     49          1           0       -0.574130    0.308017    3.546551
     50          1           0       -1.363428    0.520623    2.118954
     51          1           0        0.593977    2.838853   -0.111757
     52          1           0        3.431655   -1.695708    3.274092
     53          1           0        1.896786   -1.202093    4.322532
     54          1           0        1.921068   -2.473086    2.802486
     55          1           0        6.591604   -2.822975    1.430462
     56          1           0        7.507989   -1.272354    1.649417
     57          1           0        7.929211   -2.527229    0.436385
     58          1           0       -1.015098   -2.147604    1.685354
     59          1           0       -0.551469   -2.288925    3.439961
     60          1           0       -1.708509   -0.213115   -0.182912
     61          1           0       -1.902781    4.803905   -1.766433
     62          1           0       -0.236567    4.462907   -1.227144
     63          1           0        7.790494   -0.690100   -3.240707
     64          1           0       -1.693080    4.571704    1.348046
     65          1           0       -2.797599    5.263912    0.466217
     66          1           0       -4.152940    4.103881   -2.009073
     67          1           0       -5.269899    2.898140   -1.254208
     68          1           0       -4.658342    2.606587   -2.861804
     69          1           0       -4.930550    0.332439   -1.736409
     70          1           0        9.324643   -1.255015   -0.347963
     71          1           0       10.003526   -1.191868   -2.311272
     72          1           0       -3.981961   -2.878017    3.292080
     73          1           0       -6.378733   -1.587615   -2.085796
     74          1           0       -4.475772   -5.414230   -2.428061
     75          1           0       -3.326517   -5.948101   -0.798632
     76          1           0       -5.194364   -5.344129   -0.927120
     77          1           0       -1.026422    8.043346    1.102115
     78          1           0       -7.827961   -3.129789   -2.940318
     79          1           0       -6.409181   -4.456745   -2.366516
 ---------------------------------------------------------------------

 SCF Done:  E(RB3LYP) =  -1947.86342024     A.U. after   16 cycles

 Excitation energies and oscillator strengths:

 Excited State   1:      Singlet-A      2.1958 eV  564.64 nm  f=0.4399  <S**2>=0.000
     154 ->156         0.12804
     155 ->156         0.68472
     155 <-156        -0.10153
 This state for optimization and/or second-order correction.
 Total Energy, E(TD-HF/TD-KS) =  -1947.78272526
 Copying the excited state density for this state as the 1-particle RhoCI density.

 The electronic state is 1-A.
 Alpha  occ. eigenvalues --  -19.20410 -19.15261 -19.14285 -19.12077 -19.10357
 Alpha  occ. eigenvalues --  -19.08400 -14.37993 -14.36606 -14.36382 -14.28320
 Alpha  occ. eigenvalues --  -10.34091 -10.30164 -10.27683 -10.25807 -10.24824
 Alpha  occ. eigenvalues --  -10.24711 -10.24510 -10.23215 -10.23204 -10.23023
 Alpha  occ. eigenvalues --  -10.22769 -10.22107 -10.21943 -10.21889 -10.21865
 Alpha  occ. eigenvalues --  -10.21366 -10.21307 -10.21299 -10.21191 -10.21090
 Alpha  occ. eigenvalues --  -10.20950 -10.20861 -10.20261 -10.20137 -10.20073
 Alpha  occ. eigenvalues --  -10.20072 -10.20048 -10.19908 -10.19886 -10.19828
 Alpha  occ. eigenvalues --  -10.19374 -10.19203 -10.18277  -1.13330  -1.09399
 Alpha  occ. eigenvalues --   -1.02887  -1.01675  -1.01128  -0.99527  -0.99248
 Alpha  occ. eigenvalues --   -0.96935  -0.92556  -0.92385  -0.83453  -0.82180
 Alpha  occ. eigenvalues --   -0.81893  -0.81322  -0.81041  -0.80089  -0.78748
 Alpha  occ. eigenvalues --   -0.77208  -0.76957  -0.75570  -0.74758  -0.72649
 Alpha  occ. eigenvalues --   -0.71680  -0.71208  -0.69968  -0.69654  -0.68985
 Alpha  occ. eigenvalues --   -0.67227  -0.67136  -0.63910  -0.62785  -0.60876
 Alpha  occ. eigenvalues --   -0.60502  -0.58712  -0.58261  -0.57951  -0.57873
 Alpha  occ. eigenvalues --   -0.56317  -0.55507  -0.55168  -0.54264  -0.52734
 Alpha  occ. eigenvalues --   -0.52285  -0.51898  -0.51466  -0.50726  -0.50644
 Alpha  occ. eigenvalues --   -0.49910  -0.49495  -0.48647  -0.48019  -0.47886
 Alpha  occ. eigenvalues --   -0.47693  -0.47220  -0.46862  -0.46324  -0.46187
 Alpha  occ. eigenvalues --   -0.45747  -0.45236  -0.44468  -0.44018  -0.43842
 Alpha  occ. eigenvalues --   -0.43425  -0.43349  -0.43090  -0.42549  -0.42430
 Alpha  occ. eigenvalues --   -0.42190  -0.42033  -0.41917  -0.41280  -0.41050
 Alpha  occ. eigenvalues --   -0.40902  -0.40545  -0.40296  -0.40267  -0.39937
 Alpha  occ. eigenvalues --   -0.39752  -0.39638  -0.39423  -0.39030  -0.38912
 Alpha  occ. eigenvalues --   -0.38558  -0.38170  -0.37801  -0.37413  -0.37138
 Alpha  occ. eigenvalues --   -0.36472  -0.36049  -0.35380  -0.35054  -0.34491
 Alpha  occ. eigenvalues --   -0.34299  -0.34047  -0.33369  -0.33182  -0.31742
 Alpha  occ. eigenvalues --   -0.30998  -0.30888  -0.30012  -0.29397  -0.27985
 Alpha  occ. eigenvalues --   -0.27423  -0.25771  -0.25519  -0.25093  -0.24296
 Alpha  occ. eigenvalues --   -0.24277  -0.23980  -0.23554  -0.22447  -0.19308
 Alpha virt. eigenvalues --   -0.10634  -0.06435  -0.06069  -0.02038   0.00115
 Alpha virt. eigenvalues --    0.00648   0.01065   0.02297   0.02830   0.03133
 Alpha virt. eigenvalues --    0.03559   0.04088   0.04902   0.05272   0.05610

 Mulliken charges:
               1
     1  O   -0.299695
     2  O   -0.248622
     3  O   -0.164292
     4  O   -0.100976
     5  O   -0.264519
     6  O   -0.168714
     7  N   -0.161445
     8  N   -0.258522
     9  N    0.136354
    10  N   -0.295770
    11  C    0.164540
    12  C    0.261064
    13  C   -0.119281
    14  C   -0.182899
    15  C   -0.060046
    16  C    0.090927
    17  C   -0.184766
    18  C    0.112954
    19  C   -0.023374
    20  C   -0.068405
    21  C    0.055965
    22  C    0.169195
    23  C   -0.060091
    24  C    0.057354
    25  C    0.115315
    26  C   -0.160389
    27  C   -0.002091
    28  C    0.042696
    29  C    0.029064
    30  C   -0.072550
    31  C    0.069869
    32  C    0.085228
    33  C   -0.132837
    34  C    0.099574
    35  C    0.086345
    36  C   -0.049575
    37  C    0.145059
    38  C    0.077569
    39  C   -0.236287
    40  C    0.132750
    41  C    0.049630
    42  C    0.064483
    43  C   -0.032255
    44  H   -0.014053
    45  H   -0.003881
    46  H   -0.034116
    47  H    0.122186
    48  H    0.182297
    49  H   -0.000787
    50  H    0.019784
    51  H   -0.038213
    52  H   -0.006367
    53  H    0.055200
    54  H    0.045913
    55  H    0.003853
    56  H    0.046856
    57  H    0.024298
    58  H    0.094691
    59  H    0.032034
    60  H    0.068808
    61  H   -0.013500
    62  H    0.050552
    63  H    0.069534
    64  H    0.053885
    65  H   -0.009027
    66  H    0.011551
    67  H    0.026516
    68  H    0.035021
    69  H   -0.016521
    70  H    0.043651
    71  H    0.049152
    72  H    0.174666
    73  H   -0.097394
    74  H    0.034372
    75  H    0.080131
    76  H    0.026422
    77  H    0.144611
    78  H    0.031940
    79  H    0.007399
 Sum of Mulliken charges =   0.00000

 Dipole moment (field-independent basis, Debye):
    X=             -1.1335    Y=              3.5199    Z=              4.0972  Tot=              5.5192
 Quadrupole moment (field-independent basis, Debye-Ang):
   XX=           -228.3575   YY=           -244.3786   ZZ=           -267.4231
   XY=            -15.1921   XZ=             38.2362   YZ=              6.2390

 Normal termination of Gaussian 09 at Wed Jul 10 08:06:06 2019.
