 Gaussian 09, Revision D.01,
 Gaussian 09:  ES64L-G09RevD.01 24-Apr-2013

 --------------------------
 # td=(NStates=1) B3LYP/SVP
 --------------------------

 --
 TD
 --
 Symbolic Z-matrix:
 Charge =  0 Multiplicity = 1

                         Standard orientation:
 ---------------------------------------------------------------------
 Center     Atomic      Atomic             Coordinates (Angstroms)
 Number     Number       Type             X           Y           Z
 ---------------------------------------------------------------------
      1          8           0        5.359195   -0.032931   -3.298892
      2          8           0       -2.741041   -3.048283    3.224065
      3          8           0       -3.230754   -0.858195    3.276964
      4          8           0       -1.850501    7.233268    1.575496
      5          8           0       -0.253823    6.966282   -0.072686
      6          8           0       -1.909485   -4.073034   -0.033126
      7          7           0        2.385445    0.910670    0.687153
      8          7           0        4.390432   -0.659865   -1.314259
      9          7           0       -1.860325    0.701500   -0.445690
     10          7           0       -2.676082   -1.886026   -0.667398
     11          6           0        4.833418   -1.320920   -0.047457
     12          6           0        4.395888   -0.408571    1.252721
     13          6           0        3.045720   -0.108916    1.291171
     14          6           0        2.025957   -0.739781    2.074102
     15          6           0        0.795901   -0.217176    1.815986
     16          6           0        1.055434    0.846609    0.941012
     17          6           0        6.336986   -1.492158   -0.284535
     18          6           0       -0.551348   -0.352692    2.519048
     19          6           0        6.633747   -0.898578   -1.503407
     20          6           0        0.323147    1.790508    0.207460
     21          6           0       -1.016595    1.811820   -0.268048
     22          6           0        5.444772   -0.402976   -2.143690
     23          6           0       -1.806197    3.024198   -0.853963
     24          6           0        2.137259   -1.918715    3.066893
     25          6           0        7.188246   -2.011094    0.873767
     26          6           0       -2.950119    2.447930   -1.402028
     27          6           0       -1.188453   -1.756744    2.444048
     28          6           0       -2.999404    1.005710   -1.116767
     29          6           0       -1.144442    4.329962   -0.696193
     30          6           0        7.974643   -0.645007   -2.075444
     31          6           0       -1.940484    5.206669    0.345242
     32          6           0       -4.132692    3.123182   -2.071409
     33          6           0       -4.005922   -0.045594   -1.507229
     34          6           0       -2.496916   -1.748629    2.986341
     35          6           0       -3.809520   -1.292662   -1.196412
     36          6           0        9.208288   -0.673187   -1.501051
     37          6           0       -1.234289    6.554221    0.539783
     38          6           0       -4.787315   -2.448195   -1.503315
     39          6           0       -4.188376   -3.600955   -1.088734
     40          6           0       -2.722672   -3.240001   -0.486081
     41          6           0       -6.163177   -2.243460   -2.039084
     42          6           0       -4.723366   -5.021023   -0.966459
     43          6           0       -7.021227   -3.175751   -2.618126
     44          1           0        4.433953   -2.201285    0.081824
     45          1           0        4.995281    0.551349    1.544149
     46          1           0        4.498255   -1.379560    2.032506
     47          1           0        2.820317    1.523407   -0.028004
     48          1           0        3.384096   -0.562962   -1.595089
     49          1           0       -0.613729    0.205039    3.409579
     50          1           0       -1.281166    0.360646    1.730937
     51          1           0        0.945565    2.693525    0.043961
     52          1           0        3.251325   -2.203594    3.376953
     53          1           0        1.463368   -1.939644    4.074032
     54          1           0        1.665288   -2.781073    2.511606
     55          1           0        6.644167   -2.701655    1.397122
     56          1           0        7.456040   -1.291005    1.783067
     57          1           0        8.048376   -2.544247    0.551005
     58          1           0       -1.013586   -1.960425    1.418223
     59          1           0       -0.457619   -2.629041    2.960485
     60          1           0       -1.647412   -0.261358   -0.180651
     61          1           0       -1.495489    4.921044   -1.687991
     62          1           0       -0.128215    4.529864   -0.730174
     63          1           0        7.910965   -0.707345   -3.317467
     64          1           0       -2.111371    4.637539    1.533372
     65          1           0       -3.129748    5.327045   -0.176688
     66          1           0       -3.871240    4.125362   -2.206546
     67          1           0       -5.023120    3.530523   -1.338743
     68          1           0       -4.622589    2.700029   -2.883461
     69          1           0       -5.166293    0.133687   -1.833428
     70          1           0        9.510580   -0.757163   -0.405248
     71          1           0       10.007147   -1.098891   -2.170152
     72          1           0       -3.540994   -2.889370    3.526731
     73          1           0       -6.466953   -1.163732   -1.896522
     74          1           0       -4.719461   -5.460513   -1.965824
     75          1           0       -3.871276   -5.548523   -0.485183
     76          1           0       -5.812657   -5.135146   -0.525474
     77          1           0       -1.097578    8.016290    1.867373
     78          1           0       -8.131056   -3.170547   -2.715046
     79          1           0       -6.599575   -4.097212   -2.823316
 ---------------------------------------------------------------------

 SCF Done:  E(RB3LYP) =  -1947.73065187     A.U. after   23 cycles

 Excitation energies and oscillator strengths:

 Excited State   1:      Singlet-A      1.8774 eV  660.40 nm  f=0.1060  <S**2>=0.000
     154 ->156         0.39954
     155 ->156         0.57804
 This state for optimization and/or second-order correction.
 Total Energy, E(TD-HF/TD-KS) =  -1947.66165861
 Copying the excited state density for this state as the 1-particle RhoCI density.

 The electronic state is 1-A.
 Alpha  occ. eigenvalues --  -19.20229 -19.16075 -19.15240 -19.12638 -19.09880
 Alpha  occ. eigenvalues --  -19.09045 -14.40698 -14.38530 -14.36297 -14.27601
 Alpha  occ. eigenvalues --  -10.34318 -10.30631 -10.28408 -10.26996 -10.26342
 Alpha  occ. eigenvalues --  -10.26050 -10.25910 -10.25746 -10.24711 -10.24661
 Alpha  occ. eigenvalues --  -10.24074 -10.24031 -10.23841 -10.23739 -10.23002
 Alpha  occ. eigenvalues --  -10.22833 -10.22568 -10.22129 -10.22065 -10.21655
 Alpha  occ. eigenvalues --  -10.21355 -10.20993 -10.20878 -10.20849 -10.20765
 Alpha  occ. eigenvalues --  -10.20288 -10.20252 -10.20206 -10.19349 -10.18399
 Alpha  occ. eigenvalues --  -10.18303 -10.18279 -10.17810  -1.12038  -1.08821
 Alpha  occ. eigenvalues --   -1.02947  -1.02061  -1.01955  -1.00762  -0.98802
 Alpha  occ. eigenvalues --   -0.97897  -0.94042  -0.89275  -0.83712  -0.83280
 Alpha  occ. eigenvalues --   -0.83129  -0.82068  -0.80174  -0.78312  -0.78120
 Alpha  occ. eigenvalues --   -0.77461  -0.77244  -0.76039  -0.73295  -0.72641
 Alpha  occ. eigenvalues --   -0.72084  -0.71622  -0.70574  -0.69198  -0.68747
 Alpha  occ. eigenvalues --   -0.68136  -0.66592  -0.63660  -0.61316  -0.60262
 Alpha  occ. eigenvalues --   -0.59450  -0.58945  -0.58546  -0.58101  -0.57809
 Alpha  occ. eigenvalues --   -0.57165  -0.56087  -0.55634  -0.54393  -0.53151
 Alpha  occ. eigenvalues --   -0.52725  -0.51502  -0.50641  -0.50454  -0.49792
 Alpha  occ. eigenvalues --   -0.49499  -0.49224  -0.49187  -0.48856  -0.48543
 Alpha  occ. eigenvalues --   -0.48034  -0.47394  -0.47082  -0.46303  -0.46090
 Alpha  occ. eigenvalues --   -0.45407  -0.44888  -0.44804  -0.44359  -0.43916
 Alpha  occ. eigenvalues --   -0.43354  -0.43251  -0.42911  -0.42826  -0.42602
 Alpha  occ. eigenvalues --   -0.42349  -0.41801  -0.41488  -0.41289  -0.41097
 Alpha  occ. eigenvalues --   -0.40926  -0.40747  -0.40714  -0.40618  -0.40446
 Alpha  occ. eigenvalues --   -0.39687  -0.39332  -0.39268  -0.39100  -0.38604
 Alpha  occ. eigenvalues --   -0.37828  -0.37720  -0.37389  -0.37129  -0.36776
 Alpha  occ. eigenvalues --   -0.36320  -0.35925  -0.34627  -0.34041  -0.33907
 Alpha  occ. eigenvalues --   -0.33558  -0.33412  -0.33177  -0.32386  -0.31323
 Alpha  occ. eigenvalues --   -0.30966  -0.30507  -0.30269  -0.28708  -0.28010
 Alpha  occ. eigenvalues --   -0.27317  -0.26804  -0.26552  -0.25753  -0.25078
 Alpha  occ. eigenvalues --   -0.24784  -0.23596  -0.21578  -0.20866  -0.19650
 Alpha virt. eigenvalues --   -0.11621  -0.07540  -0.05376  -0.03794  -0.01511
 Alpha virt. eigenvalues --   -0.00576  -0.00431   0.00252   0.00474   0.01192
 Alpha virt. eigenvalues --    0.01469   0.02105   0.02593   0.04076   0.04548

 Mulliken charges:
               1
     1  O   -0.221609
     2  O   -0.080048
     3  O   -0.208296
     4  O   -0.270890
     5  O   -0.230357
     6  O   -0.263648
     7  N   -0.047640
     8  N   -0.235001
     9  N   -0.061667
    10  N   -0.333901
    11  C    0.177106
    12  C    0.022506
    13  C   -0.040477
    14  C   -0.093535
    15  C   -0.061054
    16  C    0.080197
    17  C   -0.140797
    18  C   -0.015394
    19  C   -0.067986
    20  C   -0.071937
    21  C    0.049081
    22  C    0.150637
    23  C    0.005645
    24  C   -0.032684
    25  C    0.120816
    26  C   -0.143290
    27  C   -0.025781
    28  C    0.102853
    29  C    0.070993
    30  C   -0.045217
    31  C   -0.171446
    32  C    0.112988
    33  C   -0.123062
    34  C    0.145710
    35  C    0.113185
    36  C   -0.071125
    37  C    0.208959
    38  C    0.037905
    39  C   -0.260045
    40  C    0.192063
    41  C   -0.043694
    42  C    0.076376
    43  C   -0.019140
    44  H   -0.026150
    45  H    0.048018
    46  H    0.033894
    47  H    0.130818
    48  H    0.143258
    49  H    0.012579
    50  H    0.033149
    51  H   -0.001144
    52  H    0.030961
    53  H    0.056633
    54  H    0.059666
    55  H   -0.023297
    56  H    0.053614
    57  H    0.023750
    58  H    0.059331
    59  H    0.060986
    60  H    0.137913
    61  H    0.036980
    62  H    0.016362
    63  H    0.062710
    64  H    0.091878
    65  H    0.089264
    66  H   -0.027027
    67  H    0.027625
    68  H    0.027595
    69  H    0.033590
    70  H    0.036824
    71  H    0.041939
    72  H    0.085552
    73  H   -0.006237
    74  H    0.016697
    75  H    0.023158
    76  H    0.046268
    77  H    0.244052
    78  H    0.034544
    79  H   -0.003054
 Sum of Mulliken charges =   0.00000

 Dipole moment (field-independent basis, Debye):
    X=              3.4637    Y=              4.6630    Z=              4.7274  Tot=              7.4893
 Quadrupole moment (field-independent basis, Debye-Ang):
   XX=           -233.5907   YY=           -250.7521   ZZ=           -266.3540
   XY=            -24.7926   XZ=             33.2863   YZ=              2.5107

 Normal termination of Gaussian 09 at Sun Jul  7 15:23:57 2019.
