 Gaussian 09, Revision D.01,
 Gaussian 09:  ES64L-G09RevD.01 24-Apr-2013

 --------------------------
 # td=(NStates=1) B3LYP/SVP
 --------------------------

 --
 TD
 --
 Symbolic Z-matrix:
 Charge =  0 Multiplicity = 1

                         Standard orientation:
 ---------------------------------------------------------------------
 Center     Atomic      Atomic             Coordinates (Angstroms)
 Number     Number       Type             X           Y           Z
 ---------------------------------------------------------------------
      1          8           0        5.377763   -0.176650   -3.300218
      2          8           0       -2.989045   -3.018501    3.397490
      3          8           0       -3.172919   -0.820048    3.383037
      4          8           0       -1.387075    7.249100    1.452810
      5          8           0       -0.340032    6.919077   -0.338992
      6          8           0       -2.214701   -3.973501   -0.092847
      7          7           0        2.404218    0.634202    0.497839
      8          7           0        4.395225   -0.729567   -1.315391
      9          7           0       -1.884880    0.667214   -0.371607
     10          7           0       -2.679775   -1.802701   -0.644354
     11          6           0        4.843320   -1.396879   -0.041214
     12          6           0        4.504688   -0.573714    1.161644
     13          6           0        2.994153   -0.352263    1.292112
     14          6           0        2.034395   -0.882782    2.108908
     15          6           0        0.719165   -0.166557    1.807530
     16          6           0        0.997160    0.787082    0.777758
     17          6           0        6.317760   -1.452920   -0.251123
     18          6           0       -0.561962   -0.378015    2.504415
     19          6           0        6.721744   -0.861169   -1.449782
     20          6           0        0.169244    1.782475    0.189543
     21          6           0       -1.087436    1.843850   -0.108110
     22          6           0        5.498457   -0.576576   -2.127488
     23          6           0       -1.899240    2.927097   -0.648739
     24          6           0        2.252793   -1.938725    3.147192
     25          6           0        7.221667   -1.924430    0.876624
     26          6           0       -3.085745    2.452404   -1.101625
     27          6           0       -1.194073   -1.786214    2.383393
     28          6           0       -3.060240    1.006987   -0.936049
     29          6           0       -1.422471    4.310793   -0.804613
     30          6           0        8.030272   -0.794147   -2.214572
     31          6           0       -1.559455    5.096129    0.554681
     32          6           0       -4.177394    3.219031   -1.842479
     33          6           0       -3.962298    0.106688   -1.342609
     34          6           0       -2.518631   -1.753712    3.095122
     35          6           0       -3.850259   -1.303063   -1.031816
     36          6           0        9.265383   -0.508078   -1.441041
     37          6           0       -1.050562    6.551789    0.500432
     38          6           0       -4.903515   -2.281766   -1.476483
     39          6           0       -4.269756   -3.519843   -1.168413
     40          6           0       -2.909598   -3.104197   -0.493941
     41          6           0       -6.117721   -2.060404   -2.235126
     42          6           0       -4.719439   -5.003151   -1.345023
     43          6           0       -6.949998   -2.951908   -2.753721
     44          1           0        4.203394   -2.378719    0.103408
     45          1           0        5.124633    0.382972    1.156132
     46          1           0        4.777604   -0.956248    2.162233
     47          1           0        2.993136    1.156271   -0.158584
     48          1           0        3.506464   -1.022814   -1.584340
     49          1           0       -0.592071   -0.027341    3.599620
     50          1           0       -1.161137    0.489526    2.052217
     51          1           0        0.751656    2.712351   -0.067804
     52          1           0        3.367354   -2.150981    3.233111
     53          1           0        1.757055   -2.045742    3.995147
     54          1           0        2.006846   -2.891758    2.611504
     55          1           0        6.715763   -2.780256    1.424349
     56          1           0        7.513931   -0.921346    1.364315
     57          1           0        8.243883   -2.369192    0.573511
     58          1           0       -1.167994   -2.150845    1.369335
     59          1           0       -0.650183   -2.449346    3.009147
     60          1           0       -1.649629   -0.348694   -0.014117
     61          1           0       -1.984488    5.039786   -1.398892
     62          1           0       -0.260189    4.460228   -1.158224
     63          1           0        7.844978   -0.787865   -3.254399
     64          1           0       -1.002994    4.244851    1.334715
     65          1           0       -2.579124    4.968341    0.619909
     66          1           0       -3.664763    4.232142   -1.976345
     67          1           0       -5.138218    3.379099   -1.215018
     68          1           0       -4.330710    2.983815   -2.881469
     69          1           0       -4.889198    0.498781   -1.844223
     70          1           0        9.397519   -0.244175   -0.429181
     71          1           0       10.295149   -0.440016   -1.917831
     72          1           0       -3.952197   -2.847112    3.574315
     73          1           0       -6.626493   -1.160012   -2.477065
     74          1           0       -4.805152   -5.428963   -2.319665
     75          1           0       -4.108445   -5.597918   -0.889467
     76          1           0       -5.804507   -5.091570   -0.929002
     77          1           0       -0.999641    8.135227    1.448985
     78          1           0       -7.795951   -2.481964   -3.075208
     79          1           0       -6.794168   -4.013245   -2.729070
 ---------------------------------------------------------------------

 SCF Done:  E(RB3LYP) =  -1947.83886976     A.U. after   16 cycles

 Excitation energies and oscillator strengths:

 Excited State   1:      Singlet-A      2.3343 eV  531.14 nm  f=0.4560  <S**2>=0.000
     154 ->156         0.12713
     155 ->156         0.69255
 This state for optimization and/or second-order correction.
 Total Energy, E(TD-HF/TD-KS) =  -1947.75308636
 Copying the excited state density for this state as the 1-particle RhoCI density.

 The electronic state is 1-A.
 Alpha  occ. eigenvalues --  -19.20008 -19.15900 -19.11987 -19.11939 -19.09931
 Alpha  occ. eigenvalues --  -19.09009 -14.37384 -14.35786 -14.34885 -14.29472
 Alpha  occ. eigenvalues --  -10.31971 -10.30532 -10.27876 -10.26042 -10.25784
 Alpha  occ. eigenvalues --  -10.24211 -10.23659 -10.23638 -10.23597 -10.23358
 Alpha  occ. eigenvalues --  -10.23086 -10.22744 -10.22503 -10.22265 -10.22167
 Alpha  occ. eigenvalues --  -10.21362 -10.21308 -10.21247 -10.21191 -10.21076
 Alpha  occ. eigenvalues --  -10.21053 -10.20949 -10.20546 -10.20404 -10.19886
 Alpha  occ. eigenvalues --  -10.19724 -10.19446 -10.19204 -10.19134 -10.19022
 Alpha  occ. eigenvalues --  -10.18279 -10.18253 -10.17656  -1.15992  -1.08816
 Alpha  occ. eigenvalues --   -1.03665  -1.03332  -1.01291  -0.99366  -0.97367
 Alpha  occ. eigenvalues --   -0.95799  -0.93454  -0.93379  -0.83232  -0.82344
 Alpha  occ. eigenvalues --   -0.82167  -0.80498  -0.80387  -0.79775  -0.77523
 Alpha  occ. eigenvalues --   -0.77111  -0.76394  -0.75152  -0.74521  -0.72689
 Alpha  occ. eigenvalues --   -0.71539  -0.71378  -0.70317  -0.69314  -0.68992
 Alpha  occ. eigenvalues --   -0.66881  -0.65773  -0.64135  -0.62625  -0.62033
 Alpha  occ. eigenvalues --   -0.59909  -0.59073  -0.57685  -0.57034  -0.56481
 Alpha  occ. eigenvalues --   -0.55216  -0.55065  -0.54866  -0.54632  -0.53526
 Alpha  occ. eigenvalues --   -0.52731  -0.52401  -0.51510  -0.50861  -0.50629
 Alpha  occ. eigenvalues --   -0.49415  -0.49104  -0.48846  -0.48718  -0.47930
 Alpha  occ. eigenvalues --   -0.47711  -0.47409  -0.46930  -0.46408  -0.45447
 Alpha  occ. eigenvalues --   -0.45247  -0.44929  -0.44382  -0.44034  -0.43625
 Alpha  occ. eigenvalues --   -0.43488  -0.43142  -0.42986  -0.42640  -0.42442
 Alpha  occ. eigenvalues --   -0.42181  -0.41976  -0.41737  -0.41335  -0.41171
 Alpha  occ. eigenvalues --   -0.40679  -0.40478  -0.40067  -0.39705  -0.39376
 Alpha  occ. eigenvalues --   -0.39057  -0.38872  -0.38670  -0.38630  -0.38196
 Alpha  occ. eigenvalues --   -0.37873  -0.37356  -0.37170  -0.36977  -0.36726
 Alpha  occ. eigenvalues --   -0.36398  -0.36117  -0.35915  -0.35511  -0.34681
 Alpha  occ. eigenvalues --   -0.34447  -0.33859  -0.33625  -0.31929  -0.31482
 Alpha  occ. eigenvalues --   -0.31088  -0.30229  -0.29370  -0.28827  -0.28625
 Alpha  occ. eigenvalues --   -0.27491  -0.26448  -0.26106  -0.24768  -0.24173
 Alpha  occ. eigenvalues --   -0.23764  -0.23571  -0.23054  -0.22163  -0.19490
 Alpha virt. eigenvalues --   -0.10203  -0.07140  -0.05874  -0.02136  -0.00789
 Alpha virt. eigenvalues --    0.00611   0.01363   0.01665   0.02496   0.03793
 Alpha virt. eigenvalues --    0.04001   0.04252   0.04460   0.05713   0.06137

 Mulliken charges:
               1
     1  O   -0.257467
     2  O   -0.223664
     3  O   -0.192825
     4  O   -0.054481
     5  O   -0.191800
     6  O   -0.171842
     7  N   -0.126955
     8  N   -0.163550
     9  N   -0.164033
    10  N   -0.236247
    11  C    0.043818
    12  C    0.149994
    13  C   -0.084849
    14  C   -0.134465
    15  C   -0.110882
    16  C    0.106960
    17  C   -0.169525
    18  C   -0.007058
    19  C   -0.037554
    20  C   -0.089273
    21  C    0.129344
    22  C    0.128314
    23  C   -0.022557
    24  C    0.160195
    25  C    0.030355
    26  C   -0.126175
    27  C    0.072936
    28  C    0.156201
    29  C   -0.011693
    30  C    0.044916
    31  C   -0.081629
    32  C    0.089352
    33  C   -0.163153
    34  C    0.108747
    35  C    0.087500
    36  C   -0.058790
    37  C    0.076237
    38  C    0.096380
    39  C   -0.216692
    40  C    0.112888
    41  C   -0.043374
    42  C    0.155054
    43  C    0.004309
    44  H    0.043998
    45  H    0.005268
    46  H    0.012672
    47  H    0.120654
    48  H    0.116035
    49  H    0.018132
    50  H    0.016928
    51  H    0.004021
    52  H   -0.013124
    53  H   -0.012881
    54  H    0.013167
    55  H    0.041567
    56  H    0.062717
    57  H    0.043390
    58  H    0.069738
    59  H    0.005536
    60  H    0.201287
    61  H    0.011916
    62  H    0.054425
    63  H    0.027018
    64  H    0.070943
    65  H    0.003516
    66  H   -0.002806
    67  H    0.053250
    68  H    0.032147
    69  H   -0.013364
    70  H    0.023603
    71  H    0.043343
    72  H    0.181705
    73  H   -0.035091
    74  H    0.020934
    75  H   -0.035071
    76  H    0.032505
    77  H    0.183613
    78  H   -0.005639
    79  H   -0.009021
 Sum of Mulliken charges =   0.00000

 Dipole moment (field-independent basis, Debye):
    X=              1.0504    Y=              2.9701    Z=              3.5198  Tot=              4.7238
 Quadrupole moment (field-independent basis, Debye-Ang):
   XX=           -213.2167   YY=           -234.2297   ZZ=           -267.8376
   XY=            -16.8308   XZ=             33.7628   YZ=              7.0850

 Normal termination of Gaussian 09 at Sun Jul  7 18:14:30 2019.
