 Gaussian 09, Revision D.01,
 Gaussian 09:  ES64L-G09RevD.01 24-Apr-2013

 --------------------------
 # td=(NStates=1) B3LYP/SVP
 --------------------------

 --
 TD
 --
 Symbolic Z-matrix:
 Charge =  0 Multiplicity = 1

                         Standard orientation:
 ---------------------------------------------------------------------
 Center     Atomic      Atomic             Coordinates (Angstroms)
 Number     Number       Type             X           Y           Z
 ---------------------------------------------------------------------
      1          8           0        5.331047   -0.235609   -3.358416
      2          8           0       -2.752524   -3.212179    3.341310
      3          8           0       -3.001966   -0.950010    3.601707
      4          8           0       -1.753681    7.132497    1.452269
      5          8           0       -0.714350    6.948812   -0.395867
      6          8           0       -1.883406   -3.921261   -0.064630
      7          7           0        2.395634    0.952363    0.480648
      8          7           0        4.470741   -0.758984   -1.295098
      9          7           0       -1.879519    0.697535   -0.528412
     10          7           0       -2.606298   -1.783699   -0.664500
     11          6           0        4.912726   -1.177487   -0.024776
     12          6           0        4.477178   -0.228557    1.187120
     13          6           0        3.021313    0.025129    1.271979
     14          6           0        2.021692   -0.581676    2.045321
     15          6           0        0.782636   -0.038587    1.764160
     16          6           0        0.995470    0.927713    0.792163
     17          6           0        6.460999   -1.206667   -0.204528
     18          6           0       -0.590169   -0.334946    2.488632
     19          6           0        6.708075   -0.972567   -1.500612
     20          6           0        0.098060    2.012843    0.216055
     21          6           0       -1.143267    1.856460   -0.365225
     22          6           0        5.449197   -0.669947   -2.156952
     23          6           0       -2.035786    2.960576   -0.861083
     24          6           0        2.262452   -1.622302    3.154692
     25          6           0        7.351625   -1.605479    0.916236
     26          6           0       -3.198448    2.380853   -1.182448
     27          6           0       -1.022590   -1.756483    2.366611
     28          6           0       -3.176258    0.917429   -0.992113
     29          6           0       -1.644139    4.370014   -0.921140
     30          6           0        8.083563   -0.802534   -2.085854
     31          6           0       -1.817752    5.010764    0.540804
     32          6           0       -4.358882    3.054138   -1.865790
     33          6           0       -4.130167   -0.071230   -1.425516
     34          6           0       -2.379797   -1.976404    3.148308
     35          6           0       -3.766996   -1.452444   -1.143758
     36          6           0        9.239642   -0.515536   -1.388174
     37          6           0       -1.395946    6.410662    0.415107
     38          6           0       -4.754848   -2.571382   -1.470226
     39          6           0       -4.094808   -3.684988   -1.083965
     40          6           0       -2.705650   -3.237498   -0.494235
     41          6           0       -6.096563   -2.352069   -1.993217
     42          6           0       -4.463042   -5.089757   -1.130398
     43          6           0       -6.811365   -3.356069   -2.583977
     44          1           0        4.567429   -2.130201    0.309993
     45          1           0        4.864505    0.651748    0.751029
     46          1           0        4.832367   -0.778488    2.048405
     47          1           0        2.791956    1.599024   -0.049660
     48          1           0        3.429281   -0.771309   -1.493384
     49          1           0       -0.426251    0.057381    3.579748
     50          1           0       -1.487296    0.356609    2.256379
     51          1           0        0.628014    3.075240    0.050098
     52          1           0        3.331706   -1.660449    3.176658
     53          1           0        1.872902   -1.322659    4.125673
     54          1           0        1.772565   -2.629804    2.858261
     55          1           0        6.871662   -2.259410    1.631135
     56          1           0        7.789726   -0.860969    1.447528
     57          1           0        8.234312   -2.270281    0.467184
     58          1           0       -0.980700   -2.315546    1.471005
     59          1           0       -0.447767   -2.475005    2.995885
     60          1           0       -1.603212   -0.376232   -0.484917
     61          1           0       -2.376329    4.961123   -1.620975
     62          1           0       -0.599662    4.290319   -1.216685
     63          1           0        8.331619   -0.861359   -3.351466
     64          1           0       -1.045122    4.535315    1.315133
     65          1           0       -2.863659    5.032006    0.996883
     66          1           0       -4.141871    4.183718   -2.101260
     67          1           0       -5.330626    3.237893   -1.180466
     68          1           0       -4.804869    2.615762   -2.819550
     69          1           0       -5.090536    0.303925   -1.906418
     70          1           0        9.505529   -0.368389   -0.273424
     71          1           0       10.046392   -0.529503   -2.100479
     72          1           0       -3.738919   -3.154122    3.852525
     73          1           0       -6.611486   -1.322062   -2.119780
     74          1           0       -4.400419   -5.645017   -2.175149
     75          1           0       -3.846543   -5.959100   -0.566746
     76          1           0       -5.425972   -5.307013   -0.637010
     77          1           0       -1.510232    8.118172    1.421775
     78          1           0       -7.748388   -3.183005   -3.138986
     79          1           0       -6.523901   -4.418635   -2.677594
 ---------------------------------------------------------------------

 SCF Done:  E(RB3LYP) =  -1947.87869315     A.U. after   16 cycles

 Excitation energies and oscillator strengths:

 Excited State   1:      Singlet-A      2.1919 eV  565.65 nm  f=0.4211  <S**2>=0.000
     155 ->156         0.70112
 This state for optimization and/or second-order correction.
 Total Energy, E(TD-HF/TD-KS) =  -1947.79814264
 Copying the excited state density for this state as the 1-particle RhoCI density.

 The electronic state is 1-A.
 Alpha  occ. eigenvalues --  -19.19935 -19.17334 -19.12578 -19.11464 -19.10672
 Alpha  occ. eigenvalues --  -19.07706 -14.37549 -14.36237 -14.35882 -14.30294
 Alpha  occ. eigenvalues --  -10.31395 -10.31096 -10.28081 -10.27503 -10.24970
 Alpha  occ. eigenvalues --  -10.24342 -10.24317 -10.24127 -10.22883 -10.22811
 Alpha  occ. eigenvalues --  -10.22760 -10.22589 -10.22426 -10.21977 -10.21892
 Alpha  occ. eigenvalues --  -10.21864 -10.21584 -10.21490 -10.21043 -10.20683
 Alpha  occ. eigenvalues --  -10.20580 -10.20555 -10.20491 -10.20435 -10.20334
 Alpha  occ. eigenvalues --  -10.20281 -10.20229 -10.20188 -10.20038 -10.19457
 Alpha  occ. eigenvalues --  -10.19261 -10.18755 -10.18261  -1.10641  -1.08637
 Alpha  occ. eigenvalues --   -1.06550  -1.01032  -0.99846  -0.98024  -0.96730
 Alpha  occ. eigenvalues --   -0.96227  -0.93144  -0.92825  -0.82660  -0.82428
 Alpha  occ. eigenvalues --   -0.81340  -0.81249  -0.80565  -0.79096  -0.77363
 Alpha  occ. eigenvalues --   -0.76524  -0.75918  -0.75277  -0.73990  -0.72505
 Alpha  occ. eigenvalues --   -0.71927  -0.70708  -0.69752  -0.68882  -0.67622
 Alpha  occ. eigenvalues --   -0.66206  -0.65379  -0.63264  -0.61424  -0.60468
 Alpha  occ. eigenvalues --   -0.60211  -0.59170  -0.58003  -0.57562  -0.57208
 Alpha  occ. eigenvalues --   -0.55680  -0.55450  -0.54747  -0.53959  -0.53145
 Alpha  occ. eigenvalues --   -0.52622  -0.52052  -0.51116  -0.49930  -0.49813
 Alpha  occ. eigenvalues --   -0.48532  -0.48239  -0.47852  -0.47597  -0.47245
 Alpha  occ. eigenvalues --   -0.47187  -0.46875  -0.46397  -0.45982  -0.45624
 Alpha  occ. eigenvalues --   -0.44981  -0.44745  -0.44639  -0.44339  -0.43577
 Alpha  occ. eigenvalues --   -0.43445  -0.43156  -0.42842  -0.42629  -0.42284
 Alpha  occ. eigenvalues --   -0.41878  -0.41318  -0.41143  -0.40922  -0.40889
 Alpha  occ. eigenvalues --   -0.40817  -0.40428  -0.40372  -0.39794  -0.39496
 Alpha  occ. eigenvalues --   -0.39324  -0.38875  -0.38506  -0.38387  -0.38118
 Alpha  occ. eigenvalues --   -0.37730  -0.37672  -0.37255  -0.37055  -0.36271
 Alpha  occ. eigenvalues --   -0.36065  -0.35655  -0.35406  -0.35000  -0.34220
 Alpha  occ. eigenvalues --   -0.33743  -0.33093  -0.31853  -0.31466  -0.31177
 Alpha  occ. eigenvalues --   -0.30880  -0.30135  -0.29788  -0.28754  -0.27578
 Alpha  occ. eigenvalues --   -0.26127  -0.25540  -0.25453  -0.25215  -0.25064
 Alpha  occ. eigenvalues --   -0.24514  -0.23576  -0.23454  -0.22551  -0.19124
 Alpha virt. eigenvalues --   -0.10198  -0.06118  -0.05423  -0.00871   0.00284
 Alpha virt. eigenvalues --    0.00548   0.00874   0.01193   0.01329   0.03145
 Alpha virt. eigenvalues --    0.03565   0.04062   0.04918   0.05062   0.05320

 Mulliken charges:
               1
     1  O   -0.296362
     2  O   -0.197103
     3  O   -0.318733
     4  O   -0.196362
     5  O   -0.214199
     6  O   -0.111115
     7  N   -0.048239
     8  N   -0.106024
     9  N   -0.145212
    10  N   -0.301352
    11  C    0.036741
    12  C    0.281987
    13  C   -0.125086
    14  C   -0.178865
    15  C   -0.031939
    16  C   -0.003042
    17  C   -0.164851
    18  C    0.065611
    19  C    0.005432
    20  C   -0.135483
    21  C    0.131567
    22  C    0.113958
    23  C   -0.085430
    24  C    0.116750
    25  C    0.098653
    26  C   -0.085457
    27  C    0.022048
    28  C    0.112283
    29  C    0.100472
    30  C   -0.083904
    31  C   -0.049287
    32  C   -0.017498
    33  C   -0.130205
    34  C    0.143693
    35  C    0.086440
    36  C   -0.056746
    37  C    0.086919
    38  C    0.086535
    39  C   -0.159821
    40  C    0.162401
    41  C   -0.040705
    42  C   -0.032470
    43  C   -0.053956
    44  H    0.001597
    45  H   -0.041098
    46  H   -0.005060
    47  H    0.066344
    48  H    0.156536
    49  H    0.023263
    50  H    0.044043
    51  H    0.027457
    52  H   -0.027987
    53  H    0.022358
    54  H    0.044651
    55  H    0.010299
    56  H    0.013939
    57  H    0.050299
    58  H    0.033814
    59  H    0.014731
    60  H    0.198776
    61  H    0.043283
    62  H    0.027181
    63  H    0.070004
    64  H    0.078830
    65  H    0.058671
    66  H    0.012741
    67  H    0.031509
    68  H    0.046366
    69  H    0.006786
    70  H    0.041405
    71  H    0.024109
    72  H    0.244959
    73  H    0.026151
    74  H    0.051722
    75  H    0.030029
    76  H    0.030509
    77  H    0.207011
    78  H    0.025327
    79  H    0.027401
 Sum of Mulliken charges =   0.00000

 Dipole moment (field-independent basis, Debye):
    X=             -1.6343    Y=              0.2020    Z=              3.8690  Tot=              4.2049
 Quadrupole moment (field-independent basis, Debye-Ang):
   XX=           -215.5580   YY=           -237.1870   ZZ=           -268.3052
   XY=             -4.3969   XZ=             37.3406   YZ=              3.4570

 Normal termination of Gaussian 09 at Sun Jul  7 12:41:19 2019.
