 Gaussian 09, Revision D.01,
 Gaussian 09:  ES64L-G09RevD.01 24-Apr-2013

 --------------------------
 # td=(NStates=1) B3LYP/SVP
 --------------------------

 --
 TD
 --
 Symbolic Z-matrix:
 Charge =  0 Multiplicity = 1

                         Standard orientation:
 ---------------------------------------------------------------------
 Center     Atomic      Atomic             Coordinates (Angstroms)
 Number     Number       Type             X           Y           Z
 ---------------------------------------------------------------------
      1          8           0        5.266601   -0.075411   -3.275328
      2          8           0       -2.966603   -3.069805    3.377879
      3          8           0       -3.285029   -0.869646    3.250878
      4          8           0       -1.544739    7.264693    1.551615
      5          8           0       -0.299892    6.968376   -0.376513
      6          8           0       -2.037486   -4.035410   -0.034271
      7          7           0        2.369612    0.904686    0.659438
      8          7           0        4.411308   -0.587136   -1.244316
      9          7           0       -1.868962    0.679315   -0.411476
     10          7           0       -2.655220   -1.689110   -0.625219
     11          6           0        4.846154   -1.283469   -0.027330
     12          6           0        4.432419   -0.482533    1.211638
     13          6           0        3.039038   -0.099721    1.437925
     14          6           0        2.068717   -0.695381    2.172834
     15          6           0        0.716285   -0.221709    1.876996
     16          6           0        1.016294    0.802092    0.906503
     17          6           0        6.327573   -1.384162   -0.210387
     18          6           0       -0.587418   -0.518811    2.479826
     19          6           0        6.693256   -0.818326   -1.416612
     20          6           0        0.199932    1.834808    0.234926
     21          6           0       -0.998403    1.738005   -0.316155
     22          6           0        5.362632   -0.409950   -2.120101
     23          6           0       -1.783675    2.917397   -0.834940
     24          6           0        2.220141   -1.770628    3.191340
     25          6           0        7.154810   -2.122086    0.784958
     26          6           0       -3.022336    2.408246   -1.305436
     27          6           0       -1.181219   -1.937157    2.595411
     28          6           0       -3.048714    1.062057   -1.089611
     29          6           0       -1.307305    4.289174   -0.689325
     30          6           0        7.859339   -0.890702   -2.152035
     31          6           0       -1.503978    5.075172    0.535746
     32          6           0       -4.274596    3.077472   -1.847849
     33          6           0       -3.959371    0.123441   -1.481156
     34          6           0       -2.626597   -1.850255    3.086711
     35          6           0       -3.772758   -1.315122   -1.226433
     36          6           0        9.092466   -0.912390   -1.698399
     37          6           0       -0.999426    6.520253    0.558120
     38          6           0       -4.804427   -2.389430   -1.495353
     39          6           0       -4.164966   -3.601933   -1.148688
     40          6           0       -2.824407   -3.185536   -0.464614
     41          6           0       -6.137221   -2.054576   -2.181726
     42          6           0       -4.586498   -4.943894   -1.350751
     43          6           0       -6.918794   -3.004252   -2.670511
     44          1           0        4.272851   -2.316905   -0.087430
     45          1           0        5.240050    0.549679    1.200213
     46          1           0        4.740667   -0.804980    2.188291
     47          1           0        2.570952    1.630188    0.103052
     48          1           0        3.603911   -0.725773   -1.665554
     49          1           0       -0.500631   -0.045893    3.468005
     50          1           0       -1.289008    0.136963    2.126485
     51          1           0        0.708245    2.826108    0.045184
     52          1           0        3.295489   -1.988264    3.609847
     53          1           0        1.710700   -1.458047    4.155969
     54          1           0        1.883745   -2.819085    2.814266
     55          1           0        6.725065   -2.797015    1.250597
     56          1           0        7.547788   -1.332971    1.705951
     57          1           0        7.955565   -2.569874    0.181756
     58          1           0       -1.424345   -2.298721    1.498314
     59          1           0       -0.646634   -2.725756    3.236564
     60          1           0       -1.541970   -0.387120   -0.435575
     61          1           0       -1.758772    4.765749   -1.650771
     62          1           0       -0.331379    4.458420   -1.076602
     63          1           0        7.878798   -0.539066   -3.294975
     64          1           0       -0.957272    4.635843    1.466589
     65          1           0       -2.420345    5.123392    0.987357
     66          1           0       -4.254408    4.219858   -1.792348
     67          1           0       -5.280569    2.972947   -1.179852
     68          1           0       -4.570653    2.673817   -2.876544
     69          1           0       -4.706156    0.572968   -2.347651
     70          1           0        9.416428   -0.887542   -0.615787
     71          1           0       10.039944   -0.608746   -2.428389
     72          1           0       -3.940397   -2.932100    3.602998
     73          1           0       -6.287909   -0.965173   -2.309783
     74          1           0       -4.461390   -5.430920   -2.289029
     75          1           0       -3.967469   -5.653748   -0.855248
     76          1           0       -5.581943   -4.954721   -0.985824
     77          1           0       -1.293041    8.057184    1.284617
     78          1           0       -7.818226   -2.656204   -3.009693
     79          1           0       -6.579349   -4.077712   -2.701213
 ---------------------------------------------------------------------

 SCF Done:  E(RB3LYP) =  -1947.80406219     A.U. after   16 cycles

 Excitation energies and oscillator strengths:

 Excited State   1:      Singlet-A      2.0204 eV  613.65 nm  f=0.3610  <S**2>=0.000
     155 ->156         0.70069
 This state for optimization and/or second-order correction.
 Total Energy, E(TD-HF/TD-KS) =  -1947.72981272
 Copying the excited state density for this state as the 1-particle RhoCI density.

 The electronic state is 1-A.
 Alpha  occ. eigenvalues --  -19.19900 -19.18114 -19.13878 -19.12931 -19.11427
 Alpha  occ. eigenvalues --  -19.09247 -14.36586 -14.34787 -14.34442 -14.31116
 Alpha  occ. eigenvalues --  -10.33759 -10.30189 -10.29004 -10.27449 -10.25819
 Alpha  occ. eigenvalues --  -10.24629 -10.23396 -10.23055 -10.22672 -10.22520
 Alpha  occ. eigenvalues --  -10.22429 -10.22160 -10.22127 -10.21774 -10.21674
 Alpha  occ. eigenvalues --  -10.21443 -10.21181 -10.21119 -10.21043 -10.20963
 Alpha  occ. eigenvalues --  -10.20881 -10.20349 -10.20310 -10.20307 -10.20072
 Alpha  occ. eigenvalues --  -10.19787 -10.19612 -10.19447 -10.19440 -10.19177
 Alpha  occ. eigenvalues --  -10.18838 -10.18185 -10.17829  -1.12749  -1.10868
 Alpha  occ. eigenvalues --   -1.03409  -1.01993  -1.01096  -1.00676  -0.97248
 Alpha  occ. eigenvalues --   -0.96587  -0.95352  -0.91544  -0.83239  -0.82947
 Alpha  occ. eigenvalues --   -0.81867  -0.81344  -0.80893  -0.79808  -0.78079
 Alpha  occ. eigenvalues --   -0.77565  -0.77085  -0.75546  -0.74489  -0.72227
 Alpha  occ. eigenvalues --   -0.71972  -0.71046  -0.70701  -0.69323  -0.68302
 Alpha  occ. eigenvalues --   -0.67378  -0.65902  -0.63726  -0.61919  -0.61393
 Alpha  occ. eigenvalues --   -0.59859  -0.58550  -0.58406  -0.57280  -0.56553
 Alpha  occ. eigenvalues --   -0.56112  -0.55312  -0.54578  -0.53578  -0.53005
 Alpha  occ. eigenvalues --   -0.52280  -0.50784  -0.50717  -0.50406  -0.50079
 Alpha  occ. eigenvalues --   -0.49072  -0.48686  -0.48621  -0.48337  -0.48090
 Alpha  occ. eigenvalues --   -0.47644  -0.47400  -0.46727  -0.46356  -0.45980
 Alpha  occ. eigenvalues --   -0.45639  -0.45169  -0.44774  -0.44602  -0.43868
 Alpha  occ. eigenvalues --   -0.43469  -0.43170  -0.42988  -0.42801  -0.42507
 Alpha  occ. eigenvalues --   -0.42031  -0.41876  -0.41698  -0.41416  -0.41281
 Alpha  occ. eigenvalues --   -0.41144  -0.40885  -0.40756  -0.40186  -0.40071
 Alpha  occ. eigenvalues --   -0.39770  -0.38918  -0.38678  -0.38414  -0.37990
 Alpha  occ. eigenvalues --   -0.37743  -0.37520  -0.37356  -0.37140  -0.36300
 Alpha  occ. eigenvalues --   -0.36193  -0.35471  -0.34834  -0.34637  -0.34065
 Alpha  occ. eigenvalues --   -0.33533  -0.32907  -0.32808  -0.32797  -0.32239
 Alpha  occ. eigenvalues --   -0.31866  -0.31208  -0.29519  -0.29252  -0.28952
 Alpha  occ. eigenvalues --   -0.26999  -0.26929  -0.25639  -0.24934  -0.24809
 Alpha  occ. eigenvalues --   -0.24159  -0.23549  -0.23160  -0.22788  -0.19108
 Alpha virt. eigenvalues --   -0.10981  -0.06798  -0.05775  -0.01683  -0.00885
 Alpha virt. eigenvalues --    0.00630   0.02310   0.02832   0.03205   0.03255
 Alpha virt. eigenvalues --    0.04323   0.04680   0.04749   0.04785   0.05485

 Mulliken charges:
               1
     1  O   -0.217940
     2  O   -0.144404
     3  O   -0.220783
     4  O   -0.100619
     5  O   -0.261537
     6  O   -0.209056
     7  N   -0.048158
     8  N   -0.058329
     9  N   -0.153633
    10  N   -0.337033
    11  C    0.116128
    12  C    0.105959
    13  C   -0.000101
    14  C   -0.129090
    15  C   -0.060026
    16  C   -0.001167
    17  C   -0.195035
    18  C    0.160078
    19  C   -0.014989
    20  C   -0.132805
    21  C    0.132833
    22  C    0.064751
    23  C   -0.112123
    24  C    0.007501
    25  C    0.173207
    26  C   -0.069865
    27  C   -0.046452
    28  C    0.121835
    29  C    0.099611
    30  C   -0.040976
    31  C    0.083267
    32  C   -0.004091
    33  C   -0.154150
    34  C    0.083767
    35  C    0.087199
    36  C   -0.122485
    37  C    0.117015
    38  C    0.002722
    39  C   -0.198532
    40  C    0.218251
    41  C   -0.014430
    42  C    0.135139
    43  C    0.032577
    44  H    0.041958
    45  H    0.010331
    46  H   -0.003612
    47  H    0.066518
    48  H    0.075487
    49  H   -0.005644
    50  H   -0.038177
    51  H    0.000657
    52  H    0.002078
    53  H    0.031258
    54  H    0.052066
    55  H   -0.066728
    56  H    0.050481
    57  H    0.034593
    58  H    0.087970
    59  H    0.049036
    60  H    0.207512
    61  H    0.017452
    62  H    0.000160
    63  H    0.052258
    64  H    0.039272
    65  H   -0.007096
    66  H    0.024659
    67  H    0.046385
    68  H    0.049382
    69  H    0.026904
    70  H    0.030442
    71  H    0.045899
    72  H    0.176332
    73  H    0.005752
    74  H    0.023940
    75  H   -0.007223
    76  H    0.028140
    77  H    0.121377
    78  H   -0.001807
    79  H    0.037958
 Sum of Mulliken charges =   0.00000

 Dipole moment (field-independent basis, Debye):
    X=             -1.9471    Y=              0.7481    Z=              2.5819  Tot=              3.3192
 Quadrupole moment (field-independent basis, Debye-Ang):
   XX=           -226.2525   YY=           -239.5235   ZZ=           -262.5205
   XY=             -7.7256   XZ=             33.3633   YZ=              5.1381

 Normal termination of Gaussian 09 at Mon Jul  8 18:42:50 2019.
