 Gaussian 09, Revision D.01,
 Gaussian 09:  ES64L-G09RevD.01 24-Apr-2013

 --------------------------
 # td=(NStates=1) B3LYP/SVP
 --------------------------

 --
 TD
 --
 Symbolic Z-matrix:
 Charge =  0 Multiplicity = 1

                         Standard orientation:
 ---------------------------------------------------------------------
 Center     Atomic      Atomic             Coordinates (Angstroms)
 Number     Number       Type             X           Y           Z
 ---------------------------------------------------------------------
      1          8           0        5.384463   -0.165232   -3.368637
      2          8           0       -2.902721   -3.007695    3.420044
      3          8           0       -3.290028   -0.773743    3.083930
      4          8           0       -1.543990    7.154519    1.477822
      5          8           0       -0.396822    7.000866   -0.378148
      6          8           0       -1.811040   -3.979419   -0.092481
      7          7           0        2.307205    0.830442    0.696680
      8          7           0        4.384397   -0.719640   -1.305055
      9          7           0       -1.901104    0.701073   -0.414687
     10          7           0       -2.711118   -1.797996   -0.525009
     11          6           0        4.860610   -1.340183    0.068985
     12          6           0        4.484921   -0.371808    1.255585
     13          6           0        2.992432   -0.038859    1.395202
     14          6           0        2.040088   -0.710681    2.189576
     15          6           0        0.740646   -0.083810    1.859230
     16          6           0        0.965105    0.875189    0.830743
     17          6           0        6.317236   -1.464979   -0.166399
     18          6           0       -0.545953   -0.351757    2.617632
     19          6           0        6.635093   -0.924574   -1.489354
     20          6           0        0.224098    1.888380    0.194760
     21          6           0       -1.049455    1.866009   -0.381441
     22          6           0        5.442902   -0.487389   -2.214518
     23          6           0       -1.928825    2.997165   -0.836886
     24          6           0        2.281154   -1.706153    3.288374
     25          6           0        7.149311   -2.033177    0.902194
     26          6           0       -3.137054    2.418517   -1.261428
     27          6           0       -1.154416   -1.786213    2.445980
     28          6           0       -3.130198    0.943302   -0.973380
     29          6           0       -1.576611    4.352323   -0.967900
     30          6           0        7.923119   -0.667813   -2.207564
     31          6           0       -1.639041    5.029431    0.469538
     32          6           0       -4.302183    3.156231   -1.768931
     33          6           0       -4.077232    0.010379   -1.243205
     34          6           0       -2.512209   -1.772641    3.077570
     35          6           0       -3.809505   -1.402692   -1.093505
     36          6           0        9.097748   -0.504411   -1.592896
     37          6           0       -1.100568    6.453724    0.431046
     38          6           0       -4.764519   -2.500729   -1.557475
     39          6           0       -4.058307   -3.692305   -1.204872
     40          6           0       -2.722209   -3.198190   -0.493780
     41          6           0       -6.068241   -2.297004   -2.088699
     42          6           0       -4.321965   -5.102169   -1.253163
     43          6           0       -6.759981   -3.268147   -2.708916
     44          1           0        4.239008   -2.266272    0.174469
     45          1           0        5.064033    0.568344    1.104160
     46          1           0        4.986040   -0.826137    2.115974
     47          1           0        2.867949    1.423349   -0.119579
     48          1           0        3.323793   -1.027818   -1.545546
     49          1           0       -0.436124   -0.219830    3.602843
     50          1           0       -1.622883    0.370096    2.384249
     51          1           0        0.782973    2.773684    0.157722
     52          1           0        3.440933   -1.798111    3.424947
     53          1           0        1.878806   -1.390045    4.266284
     54          1           0        1.823134   -2.674362    2.911702
     55          1           0        6.450491   -2.847551    1.509558
     56          1           0        7.414606   -1.128275    1.578568
     57          1           0        8.066822   -2.577192    0.567935
     58          1           0       -1.422787   -2.015885    1.360739
     59          1           0       -0.626751   -2.773230    2.738429
     60          1           0       -1.764073   -0.269606   -0.127698
     61          1           0       -2.229970    4.906687   -1.765101
     62          1           0       -0.598406    4.591529   -1.443272
     63          1           0        7.874568   -0.406767   -3.244118
     64          1           0       -1.389034    4.235196    1.259153
     65          1           0       -2.681609    5.151858    0.676985
     66          1           0       -3.991318    4.190819   -1.946632
     67          1           0       -5.013428    3.130830   -1.048233
     68          1           0       -4.743211    2.812484   -2.807089
     69          1           0       -4.971299    0.340575   -1.884083
     70          1           0        9.131422   -0.735778   -0.542150
     71          1           0       10.068471   -0.238788   -2.117156
     72          1           0       -3.793888   -2.785317    3.853098
     73          1           0       -6.514626   -1.231277   -1.931019
     74          1           0       -4.452516   -5.564589   -2.374482
     75          1           0       -3.312957   -5.466268   -0.856262
     76          1           0       -5.234155   -5.369751   -0.712350
     77          1           0       -1.386415    7.972116    1.265261
     78          1           0       -7.839654   -3.075258   -2.951567
     79          1           0       -6.438445   -4.420810   -2.972101
 ---------------------------------------------------------------------

 SCF Done:  E(RB3LYP) =  -1947.88310499     A.U. after   16 cycles

 Excitation energies and oscillator strengths:

 Excited State   1:      Singlet-A      2.1376 eV  580.03 nm  f=0.4202  <S**2>=0.000
     154 ->156         0.14282
     155 ->156         0.68933
 This state for optimization and/or second-order correction.
 Total Energy, E(TD-HF/TD-KS) =  -1947.80455147
 Copying the excited state density for this state as the 1-particle RhoCI density.

 The electronic state is 1-A.
 Alpha  occ. eigenvalues --  -19.18405 -19.17974 -19.13805 -19.11701 -19.11409
 Alpha  occ. eigenvalues --  -19.10311 -14.38978 -14.35943 -14.35266 -14.30115
 Alpha  occ. eigenvalues --  -10.33248 -10.30933 -10.28391 -10.27963 -10.25723
 Alpha  occ. eigenvalues --  -10.25276 -10.24562 -10.24175 -10.23420 -10.23334
 Alpha  occ. eigenvalues --  -10.22935 -10.22860 -10.22413 -10.22191 -10.21538
 Alpha  occ. eigenvalues --  -10.21534 -10.21486 -10.21411 -10.21184 -10.21086
 Alpha  occ. eigenvalues --  -10.20852 -10.20630 -10.20513 -10.20235 -10.19869
 Alpha  occ. eigenvalues --  -10.19799 -10.19609 -10.19403 -10.19378 -10.19367
 Alpha  occ. eigenvalues --  -10.19352 -10.19124 -10.18751  -1.13307  -1.08487
 Alpha  occ. eigenvalues --   -1.02956  -1.02354  -1.00056  -0.99849  -0.97428
 Alpha  occ. eigenvalues --   -0.96429  -0.92675  -0.91171  -0.83602  -0.81623
 Alpha  occ. eigenvalues --   -0.80788  -0.80614  -0.79519  -0.79251  -0.78217
 Alpha  occ. eigenvalues --   -0.77518  -0.75877  -0.75388  -0.74857  -0.73026
 Alpha  occ. eigenvalues --   -0.71177  -0.70504  -0.69486  -0.68871  -0.68558
 Alpha  occ. eigenvalues --   -0.66098  -0.65909  -0.64171  -0.61941  -0.60285
 Alpha  occ. eigenvalues --   -0.59767  -0.58702  -0.57376  -0.56271  -0.56104
 Alpha  occ. eigenvalues --   -0.55471  -0.55056  -0.53741  -0.53539  -0.53244
 Alpha  occ. eigenvalues --   -0.52133  -0.51467  -0.51284  -0.49709  -0.49535
 Alpha  occ. eigenvalues --   -0.49409  -0.48289  -0.47971  -0.47688  -0.47474
 Alpha  occ. eigenvalues --   -0.47150  -0.46855  -0.46471  -0.45790  -0.45551
 Alpha  occ. eigenvalues --   -0.45077  -0.44496  -0.44136  -0.44013  -0.43803
 Alpha  occ. eigenvalues --   -0.43479  -0.43381  -0.42847  -0.42579  -0.42397
 Alpha  occ. eigenvalues --   -0.42151  -0.42051  -0.41824  -0.41326  -0.41039
 Alpha  occ. eigenvalues --   -0.40611  -0.40430  -0.40187  -0.39961  -0.39876
 Alpha  occ. eigenvalues --   -0.39598  -0.39362  -0.39087  -0.38763  -0.38468
 Alpha  occ. eigenvalues --   -0.38225  -0.37883  -0.37501  -0.37053  -0.36488
 Alpha  occ. eigenvalues --   -0.36372  -0.35986  -0.35288  -0.34549  -0.34215
 Alpha  occ. eigenvalues --   -0.33975  -0.33580  -0.33406  -0.31612  -0.31314
 Alpha  occ. eigenvalues --   -0.31083  -0.30395  -0.29678  -0.29132  -0.28215
 Alpha  occ. eigenvalues --   -0.26537  -0.26462  -0.25508  -0.25280  -0.24649
 Alpha  occ. eigenvalues --   -0.24303  -0.23461  -0.23224  -0.22075  -0.19342
 Alpha virt. eigenvalues --   -0.10823  -0.07070  -0.06577  -0.01327  -0.01050
 Alpha virt. eigenvalues --    0.00278   0.00748   0.01701   0.02425   0.02737
 Alpha virt. eigenvalues --    0.03624   0.03955   0.04031   0.04988   0.05095

 Mulliken charges:
               1
     1  O   -0.197468
     2  O   -0.172206
     3  O   -0.302514
     4  O   -0.091227
     5  O   -0.214070
     6  O   -0.255241
     7  N   -0.054582
     8  N   -0.329265
     9  N   -0.111646
    10  N   -0.260781
    11  C    0.056099
    12  C    0.174221
    13  C   -0.091970
    14  C   -0.162935
    15  C   -0.035986
    16  C    0.081672
    17  C   -0.130618
    18  C    0.011037
    19  C   -0.074329
    20  C   -0.118026
    21  C    0.154878
    22  C    0.191928
    23  C   -0.037757
    24  C    0.067502
    25  C    0.009543
    26  C   -0.145829
    27  C   -0.033531
    28  C    0.127398
    29  C   -0.008813
    30  C    0.009465
    31  C   -0.026861
    32  C    0.128907
    33  C   -0.129306
    34  C    0.133657
    35  C    0.061517
    36  C   -0.028682
    37  C    0.134513
    38  C    0.049999
    39  C   -0.183069
    40  C    0.199393
    41  C   -0.040934
    42  C    0.005233
    43  C   -0.081673
    44  H    0.036660
    45  H   -0.006305
    46  H    0.001698
    47  H    0.162901
    48  H    0.167451
    49  H   -0.033485
    50  H    0.077155
    51  H   -0.022800
    52  H    0.005173
    53  H    0.030945
    54  H    0.047789
    55  H    0.050655
    56  H    0.066627
    57  H    0.056963
    58  H    0.090305
    59  H    0.035281
    60  H    0.148184
    61  H    0.029206
    62  H    0.035183
    63  H    0.004868
    64  H    0.079483
    65  H    0.020573
    66  H   -0.006379
    67  H    0.010214
    68  H    0.040749
    69  H    0.000560
    70  H   -0.001934
    71  H    0.041751
    72  H    0.189841
    73  H    0.029359
    74  H    0.045138
    75  H    0.054215
    76  H    0.039559
    77  H    0.108205
    78  H    0.027735
    79  H    0.058834
 Sum of Mulliken charges =   0.00000

 Dipole moment (field-independent basis, Debye):
    X=             -0.0303    Y=              1.8321    Z=              3.2161  Tot=              3.7014
 Quadrupole moment (field-independent basis, Debye-Ang):
   XX=           -215.6320   YY=           -248.3557   ZZ=           -263.0624
   XY=            -13.2949   XZ=             30.8783   YZ=              0.0742

 Normal termination of Gaussian 09 at Mon Jul  8 21:24:42 2019.
