 Gaussian 09, Revision D.01,
 Gaussian 09:  ES64L-G09RevD.01 24-Apr-2013

 --------------------------
 # td=(NStates=1) B3LYP/SVP
 --------------------------

 --
 TD
 --
 Symbolic Z-matrix:
 Charge =  0 Multiplicity = 1

                         Standard orientation:
 ---------------------------------------------------------------------
 Center     Atomic      Atomic             Coordinates (Angstroms)
 Number     Number       Type             X           Y           Z
 ---------------------------------------------------------------------
      1          8           0        5.365960   -0.157762   -3.288529
      2          8           0       -3.053370   -3.265325    2.893233
      3          8           0       -3.290045   -1.021869    3.289423
      4          8           0       -0.999829    7.058458    1.739169
      5          8           0       -0.391323    7.022015   -0.409100
      6          8           0       -2.257666   -3.983207   -0.229299
      7          7           0        2.388448    0.789415    0.557419
      8          7           0        4.522977   -0.586335   -1.234820
      9          7           0       -1.849347    0.726716   -0.415235
     10          7           0       -2.646510   -1.715060   -0.590035
     11          6           0        4.897534   -1.308112   -0.117328
     12          6           0        4.437907   -0.542300    1.217988
     13          6           0        2.992566   -0.167457    1.347583
     14          6           0        1.967517   -0.900416    2.038053
     15          6           0        0.766251   -0.201753    1.754676
     16          6           0        1.067288    0.771274    0.869724
     17          6           0        6.336541   -1.569060   -0.198291
     18          6           0       -0.622496   -0.442374    2.411815
     19          6           0        6.811424   -0.926761   -1.373587
     20          6           0        0.280216    1.846850    0.101785
     21          6           0       -0.961499    1.816520   -0.286786
     22          6           0        5.592575   -0.615115   -2.100900
     23          6           0       -1.797498    2.949859   -0.776790
     24          6           0        1.978476   -2.080796    3.015608
     25          6           0        7.142052   -2.215152    0.868488
     26          6           0       -3.018066    2.460759   -1.068541
     27          6           0       -1.237880   -1.893128    2.261551
     28          6           0       -3.060432    1.082338   -0.890667
     29          6           0       -1.277928    4.366543   -0.783188
     30          6           0        8.124149   -0.873178   -2.032844
     31          6           0       -1.566099    5.121035    0.575735
     32          6           0       -4.293339    3.190790   -1.646191
     33          6           0       -3.923782    0.157901   -1.280691
     34          6           0       -2.621586   -1.938026    2.914116
     35          6           0       -3.898244   -1.200602   -1.031110
     36          6           0        9.235517   -0.663820   -1.360649
     37          6           0       -0.797810    6.494537    0.619635
     38          6           0       -4.883274   -2.216990   -1.350735
     39          6           0       -4.351038   -3.379987   -1.203568
     40          6           0       -3.027207   -3.142065   -0.583525
     41          6           0       -6.237938   -1.897945   -1.926552
     42          6           0       -4.847856   -4.748996   -1.228877
     43          6           0       -7.021678   -2.606914   -2.744372
     44          1           0        4.500990   -2.442406   -0.000889
     45          1           0        5.157400    0.345814    0.910845
     46          1           0        4.662397   -1.071079    1.995218
     47          1           0        2.979044    1.529648    0.027704
     48          1           0        3.671796   -0.659552   -1.670072
     49          1           0       -0.546419   -0.255182    3.592936
     50          1           0       -1.361816    0.232434    1.928357
     51          1           0        0.838144    2.760568   -0.186371
     52          1           0        3.058339   -2.457597    3.457257
     53          1           0        1.459626   -1.736399    3.845887
     54          1           0        1.676338   -2.985988    2.659280
     55          1           0        6.555983   -3.000419    1.143227
     56          1           0        7.361809   -1.452157    1.573271
     57          1           0        8.264515   -2.400026    0.423909
     58          1           0       -1.265247   -2.180679    1.277546
     59          1           0       -0.459574   -2.700229    2.702003
     60          1           0       -1.657284   -0.284285   -0.494877
     61          1           0       -1.889451    4.976678   -1.512491
     62          1           0       -0.261127    4.397673   -1.133148
     63          1           0        7.962194   -0.678195   -3.010179
     64          1           0       -1.191479    4.649583    1.528460
     65          1           0       -2.605318    5.272032    0.820808
     66          1           0       -4.023000    4.339807   -1.552814
     67          1           0       -5.147636    3.005928   -1.155356
     68          1           0       -4.231471    3.135725   -2.786667
     69          1           0       -4.851880    0.771411   -1.678981
     70          1           0        9.143185   -0.889134   -0.254262
     71          1           0       10.224837   -0.456937   -1.923762
     72          1           0       -4.072670   -3.307911    2.796116
     73          1           0       -6.656949   -1.024174   -1.647207
     74          1           0       -4.847529   -5.193210   -2.248727
     75          1           0       -4.373599   -5.398437   -0.675658
     76          1           0       -5.949316   -4.902819   -0.717782
     77          1           0       -0.547262    7.968857    1.941428
     78          1           0       -8.002749   -2.315109   -2.924850
     79          1           0       -6.579805   -3.680632   -3.300024
 ---------------------------------------------------------------------

 SCF Done:  E(RB3LYP) =  -1947.79572301     A.U. after   16 cycles

 Excitation energies and oscillator strengths:

 Excited State   1:      Singlet-A      2.1883 eV  566.59 nm  f=0.4040  <S**2>=0.000
     155 ->156         0.70056
 This state for optimization and/or second-order correction.
 Total Energy, E(TD-HF/TD-KS) =  -1947.71530609
 Copying the excited state density for this state as the 1-particle RhoCI density.

 The electronic state is 1-A.
 Alpha  occ. eigenvalues --  -19.20778 -19.15582 -19.12307 -19.12007 -19.10597
 Alpha  occ. eigenvalues --  -19.08864 -14.38587 -14.34821 -14.34815 -14.29643
 Alpha  occ. eigenvalues --  -10.32616 -10.30614 -10.27939 -10.26216 -10.25099
 Alpha  occ. eigenvalues --  -10.23477 -10.23422 -10.22900 -10.22818 -10.22734
 Alpha  occ. eigenvalues --  -10.22618 -10.21642 -10.21600 -10.21511 -10.21327
 Alpha  occ. eigenvalues --  -10.21173 -10.21144 -10.20911 -10.20868 -10.20820
 Alpha  occ. eigenvalues --  -10.20671 -10.20382 -10.20328 -10.19866 -10.19714
 Alpha  occ. eigenvalues --  -10.19451 -10.19420 -10.19356 -10.19329 -10.18756
 Alpha  occ. eigenvalues --  -10.18641 -10.18493 -10.18361  -1.12234  -1.06426
 Alpha  occ. eigenvalues --   -1.02769  -1.01215  -1.00642  -0.98594  -0.98470
 Alpha  occ. eigenvalues --   -0.98184  -0.93461  -0.90960  -0.83457  -0.82914
 Alpha  occ. eigenvalues --   -0.81509  -0.80714  -0.80370  -0.79622  -0.77897
 Alpha  occ. eigenvalues --   -0.77297  -0.76625  -0.75156  -0.74755  -0.73354
 Alpha  occ. eigenvalues --   -0.72191  -0.71310  -0.70967  -0.69249  -0.69003
 Alpha  occ. eigenvalues --   -0.66504  -0.65390  -0.64378  -0.62792  -0.61266
 Alpha  occ. eigenvalues --   -0.60406  -0.58308  -0.57972  -0.57441  -0.56700
 Alpha  occ. eigenvalues --   -0.56430  -0.55405  -0.55212  -0.54951  -0.53883
 Alpha  occ. eigenvalues --   -0.52248  -0.51782  -0.51348  -0.50124  -0.49279
 Alpha  occ. eigenvalues --   -0.48915  -0.48534  -0.48405  -0.48234  -0.47672
 Alpha  occ. eigenvalues --   -0.47444  -0.47199  -0.46559  -0.46377  -0.46141
 Alpha  occ. eigenvalues --   -0.45901  -0.45305  -0.44850  -0.44456  -0.44125
 Alpha  occ. eigenvalues --   -0.43660  -0.43453  -0.43319  -0.42365  -0.42019
 Alpha  occ. eigenvalues --   -0.41862  -0.41758  -0.41418  -0.41174  -0.40933
 Alpha  occ. eigenvalues --   -0.40745  -0.40596  -0.40301  -0.39929  -0.39348
 Alpha  occ. eigenvalues --   -0.38934  -0.38660  -0.38297  -0.37860  -0.37615
 Alpha  occ. eigenvalues --   -0.37376  -0.37315  -0.36670  -0.36540  -0.36046
 Alpha  occ. eigenvalues --   -0.35795  -0.35171  -0.34961  -0.34885  -0.34545
 Alpha  occ. eigenvalues --   -0.34346  -0.33585  -0.32773  -0.32110  -0.32027
 Alpha  occ. eigenvalues --   -0.31282  -0.30545  -0.29027  -0.28468  -0.27937
 Alpha  occ. eigenvalues --   -0.27155  -0.26303  -0.26031  -0.24964  -0.24671
 Alpha  occ. eigenvalues --   -0.24394  -0.24067  -0.23879  -0.22423  -0.19350
 Alpha virt. eigenvalues --   -0.10519  -0.06506  -0.05543  -0.00480  -0.00421
 Alpha virt. eigenvalues --   -0.00189   0.00680   0.01090   0.01358   0.03027
 Alpha virt. eigenvalues --    0.03787   0.04163   0.04405   0.04947   0.05224

 Mulliken charges:
               1
     1  O   -0.310047
     2  O   -0.259753
     3  O   -0.198005
     4  O   -0.152406
     5  O   -0.249309
     6  O   -0.163440
     7  N   -0.100056
     8  N   -0.070945
     9  N   -0.099667
    10  N   -0.377360
    11  C    0.031986
    12  C    0.244278
    13  C   -0.101801
    14  C   -0.125287
    15  C   -0.097284
    16  C    0.068104
    17  C   -0.233575
    18  C    0.042516
    19  C   -0.078060
    20  C   -0.102467
    21  C    0.157852
    22  C    0.123202
    23  C   -0.086322
    24  C    0.103671
    25  C    0.132862
    26  C   -0.136549
    27  C   -0.018955
    28  C    0.068672
    29  C    0.121524
    30  C    0.074262
    31  C   -0.035766
    32  C    0.110631
    33  C   -0.142485
    34  C    0.172874
    35  C    0.143294
    36  C   -0.038288
    37  C    0.125137
    38  C    0.098294
    39  C   -0.193280
    40  C    0.142088
    41  C    0.010198
    42  C    0.127380
    43  C   -0.033110
    44  H    0.026447
    45  H    0.004457
    46  H   -0.079945
    47  H    0.164228
    48  H    0.104902
    49  H    0.029425
    50  H    0.024098
    51  H   -0.014662
    52  H    0.000301
    53  H    0.015770
    54  H    0.025012
    55  H    0.011723
    56  H    0.038304
    57  H    0.053995
    58  H    0.033589
    59  H    0.034942
    60  H    0.149160
    61  H    0.019902
    62  H    0.017283
    63  H   -0.028848
    64  H    0.028951
    65  H    0.036249
    66  H    0.008986
    67  H    0.019086
    68  H    0.047285
    69  H   -0.010071
    70  H    0.022536
    71  H    0.052155
    72  H    0.199986
    73  H   -0.041587
    74  H    0.030745
    75  H   -0.034491
    76  H    0.028272
    77  H    0.224964
    78  H    0.011022
    79  H    0.051219
 Sum of Mulliken charges =   0.00000

 Dipole moment (field-independent basis, Debye):
    X=              0.1725    Y=              2.8684    Z=              3.4687  Tot=              4.5044
 Quadrupole moment (field-independent basis, Debye-Ang):
   XX=           -212.0086   YY=           -234.6793   ZZ=           -270.2680
   XY=             -9.7903   XZ=             34.7091   YZ=             14.5978

 Normal termination of Gaussian 09 at Sun Jul  7 22:10:46 2019.
