 Gaussian 09, Revision D.01,
 Gaussian 09:  ES64L-G09RevD.01 24-Apr-2013

 --------------------------
 # td=(NStates=1) B3LYP/SVP
 --------------------------

 --
 TD
 --
 Symbolic Z-matrix:
 Charge =  0 Multiplicity = 1

                         Standard orientation:
 ---------------------------------------------------------------------
 Center     Atomic      Atomic             Coordinates (Angstroms)
 Number     Number       Type             X           Y           Z
 ---------------------------------------------------------------------
      1          8           0        5.127591   -0.581605   -3.385988
      2          8           0       -2.661012   -3.107177    3.461666
      3          8           0       -3.107061   -0.927311    3.318729
      4          8           0       -1.597787    7.164890    1.429228
      5          8           0       -0.406547    6.915221   -0.392155
      6          8           0       -1.898179   -3.964836   -0.184303
      7          7           0        2.467813    0.918070    0.459247
      8          7           0        4.349973   -0.832234   -1.248617
      9          7           0       -1.782002    0.751915   -0.457245
     10          7           0       -2.686543   -1.827820   -0.513357
     11          6           0        4.799656   -1.281442    0.071292
     12          6           0        4.477282   -0.206655    1.207294
     13          6           0        3.009499    0.072528    1.346081
     14          6           0        2.093845   -0.477404    2.178851
     15          6           0        0.764249    0.029535    1.703386
     16          6           0        1.037498    0.924584    0.731780
     17          6           0        6.257997   -1.307661   -0.160583
     18          6           0       -0.623678   -0.241985    2.426529
     19          6           0        6.498367   -1.008201   -1.425363
     20          6           0        0.168519    2.017616    0.172861
     21          6           0       -1.023629    1.885819   -0.458600
     22          6           0        5.326777   -0.747478   -2.221109
     23          6           0       -1.907985    2.935864   -0.905492
     24          6           0        2.448159   -1.454791    3.275792
     25          6           0        7.184101   -1.640207    0.892908
     26          6           0       -3.075231    2.435549   -1.280096
     27          6           0       -1.058906   -1.680589    2.520787
     28          6           0       -3.031684    0.921513   -0.992003
     29          6           0       -1.513745    4.311146   -0.992944
     30          6           0        7.804094   -1.018904   -2.145855
     31          6           0       -1.789578    5.102169    0.356095
     32          6           0       -4.223182    3.038565   -1.915915
     33          6           0       -3.967821   -0.003843   -1.287496
     34          6           0       -2.399273   -1.899032    3.172313
     35          6           0       -3.828541   -1.409713   -1.012585
     36          6           0        9.123344   -0.838145   -1.652100
     37          6           0       -1.246006    6.527348    0.402220
     38          6           0       -4.772021   -2.453921   -1.325665
     39          6           0       -4.153020   -3.649785   -0.971890
     40          6           0       -2.809561   -3.233044   -0.431094
     41          6           0       -6.091188   -2.338115   -2.068130
     42          6           0       -4.573049   -5.125834   -1.085654
     43          6           0       -6.986365   -3.273969   -2.518239
     44          1           0        4.396280   -2.288572    0.188453
     45          1           0        4.984251    0.726531    1.184293
     46          1           0        4.908338   -0.557061    2.084218
     47          1           0        3.103315    1.271492   -0.317881
     48          1           0        3.301217   -1.177885   -1.555810
     49          1           0       -0.360963    0.121533    3.462368
     50          1           0       -1.297483    0.343943    2.003974
     51          1           0        0.824997    2.949328    0.140577
     52          1           0        3.396565   -1.323530    3.640249
     53          1           0        1.875111   -1.224407    4.246576
     54          1           0        2.248907   -2.474385    2.791411
     55          1           0        6.682642   -2.238523    1.641045
     56          1           0        7.559662   -0.752007    1.316377
     57          1           0        8.247741   -2.187604    0.620750
     58          1           0       -1.168404   -2.050054    1.566799
     59          1           0       -0.235486   -2.345184    3.018375
     60          1           0       -1.576276   -0.242629   -0.138103
     61          1           0       -1.960146    4.792972   -2.058110
     62          1           0       -0.435955    4.301722   -1.183072
     63          1           0        7.885113   -1.061210   -3.294408
     64          1           0       -1.491112    4.578934    1.203679
     65          1           0       -2.878185    5.206379    0.461566
     66          1           0       -4.038089    4.075078   -2.177645
     67          1           0       -5.025206    3.251265   -1.212995
     68          1           0       -4.805345    2.610033   -2.707609
     69          1           0       -4.837185    0.500193   -1.626644
     70          1           0        9.428955   -0.562651   -0.641491
     71          1           0        9.958341   -0.660573   -2.350711
     72          1           0       -3.677055   -3.095526    3.894004
     73          1           0       -6.298003   -1.256411   -2.213273
     74          1           0       -4.690813   -5.450795   -2.296490
     75          1           0       -3.805764   -5.720345   -0.568778
     76          1           0       -5.622564   -5.221371   -0.728909
     77          1           0       -1.097115    8.020147    1.402186
     78          1           0       -7.987231   -2.888835   -2.867674
     79          1           0       -7.127328   -4.502066   -2.229176
 ---------------------------------------------------------------------

 SCF Done:  E(RB3LYP) =  -1947.88372548     A.U. after   16 cycles

 Excitation energies and oscillator strengths:

 Excited State   1:      Singlet-A      2.0828 eV  595.27 nm  f=0.3173  <S**2>=0.000
     153 ->156         0.10863
     155 ->156         0.69433
 This state for optimization and/or second-order correction.
 Total Energy, E(TD-HF/TD-KS) =  -1947.80718293
 Copying the excited state density for this state as the 1-particle RhoCI density.

 The electronic state is 1-A.
 Alpha  occ. eigenvalues --  -19.20530 -19.19560 -19.11759 -19.11297 -19.10227
 Alpha  occ. eigenvalues --  -19.10006 -14.36555 -14.36077 -14.35011 -14.29229
 Alpha  occ. eigenvalues --  -10.31941 -10.30063 -10.27767 -10.26798 -10.24935
 Alpha  occ. eigenvalues --  -10.24127 -10.23834 -10.23540 -10.22065 -10.21916
 Alpha  occ. eigenvalues --  -10.21859 -10.21364 -10.21328 -10.21321 -10.21090
 Alpha  occ. eigenvalues --  -10.21078 -10.20940 -10.20847 -10.20793 -10.20749
 Alpha  occ. eigenvalues --  -10.20713 -10.20636 -10.20276 -10.20018 -10.19723
 Alpha  occ. eigenvalues --  -10.19559 -10.19323 -10.19142 -10.18782 -10.18436
 Alpha  occ. eigenvalues --  -10.18108 -10.17908 -10.17424  -1.14013  -1.10636
 Alpha  occ. eigenvalues --   -1.03534  -1.03447  -1.00596  -0.99480  -0.98120
 Alpha  occ. eigenvalues --   -0.96442  -0.94441  -0.93201  -0.83303  -0.81990
 Alpha  occ. eigenvalues --   -0.81379  -0.79827  -0.79443  -0.79184  -0.77470
 Alpha  occ. eigenvalues --   -0.76548  -0.76091  -0.74901  -0.73940  -0.73092
 Alpha  occ. eigenvalues --   -0.71453  -0.71073  -0.69735  -0.68705  -0.68236
 Alpha  occ. eigenvalues --   -0.66651  -0.66256  -0.64332  -0.62220  -0.60385
 Alpha  occ. eigenvalues --   -0.60325  -0.58794  -0.58542  -0.57612  -0.57018
 Alpha  occ. eigenvalues --   -0.55029  -0.54656  -0.54214  -0.53767  -0.52796
 Alpha  occ. eigenvalues --   -0.52295  -0.51436  -0.50896  -0.50756  -0.49879
 Alpha  occ. eigenvalues --   -0.49252  -0.49050  -0.48701  -0.48047  -0.47702
 Alpha  occ. eigenvalues --   -0.47314  -0.47015  -0.46733  -0.46260  -0.45183
 Alpha  occ. eigenvalues --   -0.44656  -0.44340  -0.44179  -0.44041  -0.43863
 Alpha  occ. eigenvalues --   -0.43557  -0.43452  -0.42943  -0.42624  -0.42278
 Alpha  occ. eigenvalues --   -0.42039  -0.41932  -0.41401  -0.41267  -0.40942
 Alpha  occ. eigenvalues --   -0.40583  -0.40407  -0.40128  -0.39975  -0.39621
 Alpha  occ. eigenvalues --   -0.39400  -0.39116  -0.38759  -0.38414  -0.38176
 Alpha  occ. eigenvalues --   -0.38113  -0.37893  -0.37479  -0.37234  -0.36976
 Alpha  occ. eigenvalues --   -0.36166  -0.35416  -0.35037  -0.34348  -0.34272
 Alpha  occ. eigenvalues --   -0.33992  -0.33874  -0.32647  -0.32611  -0.31167
 Alpha  occ. eigenvalues --   -0.30891  -0.30752  -0.28837  -0.28380  -0.27820
 Alpha  occ. eigenvalues --   -0.26716  -0.26057  -0.25787  -0.25570  -0.24634
 Alpha  occ. eigenvalues --   -0.24384  -0.23762  -0.23024  -0.22096  -0.19172
 Alpha virt. eigenvalues --   -0.10669  -0.05842  -0.05527  -0.01200   0.00095
 Alpha virt. eigenvalues --    0.00980   0.01231   0.02808   0.03328   0.03342
 Alpha virt. eigenvalues --    0.03604   0.04163   0.04465   0.04674   0.05343

 Mulliken charges:
               1
     1  O   -0.180003
     2  O   -0.162695
     3  O   -0.253816
     4  O   -0.095907
     5  O   -0.254605
     6  O   -0.169273
     7  N   -0.125554
     8  N   -0.285828
     9  N   -0.091123
    10  N   -0.274710
    11  C    0.129686
    12  C    0.245026
    13  C   -0.097636
    14  C   -0.182072
    15  C   -0.118271
    16  C    0.014053
    17  C   -0.179147
    18  C    0.201948
    19  C   -0.023181
    20  C   -0.144075
    21  C    0.175069
    22  C    0.146254
    23  C   -0.080366
    24  C    0.113337
    25  C    0.084346
    26  C   -0.087981
    27  C    0.015302
    28  C    0.052306
    29  C    0.033351
    30  C   -0.048934
    31  C    0.041734
    32  C    0.137937
    33  C   -0.083007
    34  C    0.097873
    35  C    0.133264
    36  C   -0.077575
    37  C    0.088514
    38  C   -0.001806
    39  C   -0.203915
    40  C    0.137852
    41  C    0.026286
    42  C    0.041537
    43  C   -0.100981
    44  H    0.028591
    45  H   -0.020671
    46  H   -0.050316
    47  H    0.145550
    48  H    0.167956
    49  H    0.009762
    50  H   -0.048296
    51  H    0.025630
    52  H   -0.028135
    53  H    0.016304
    54  H    0.051122
    55  H    0.017457
    56  H    0.024026
    57  H    0.054643
    58  H    0.018916
    59  H    0.025686
    60  H    0.173313
    61  H    0.047846
    62  H    0.008336
    63  H    0.041925
    64  H    0.025482
    65  H    0.018894
    66  H   -0.016012
    67  H    0.001576
    68  H    0.022003
    69  H   -0.057038
    70  H    0.010923
    71  H    0.029974
    72  H    0.231859
    73  H    0.005503
    74  H    0.055784
    75  H    0.044748
    76  H    0.037536
    77  H    0.190617
    78  H    0.036007
    79  H    0.059284
 Sum of Mulliken charges =   0.00000

 Dipole moment (field-independent basis, Debye):
    X=             -1.0867    Y=              1.9507    Z=              4.3935  Tot=              4.9284
 Quadrupole moment (field-independent basis, Debye-Ang):
   XX=           -211.5159   YY=           -237.3629   ZZ=           -262.8287
   XY=             -3.4697   XZ=             29.2086   YZ=              0.6414

 Normal termination of Gaussian 09 at Wed Jul 10 19:02:06 2019.
