 Gaussian 09, Revision D.01,
 Gaussian 09:  ES64L-G09RevD.01 24-Apr-2013

 --------------------------
 # td=(NStates=1) B3LYP/SVP
 --------------------------

 --
 TD
 --
 Symbolic Z-matrix:
 Charge =  0 Multiplicity = 1

                         Standard orientation:
 ---------------------------------------------------------------------
 Center     Atomic      Atomic             Coordinates (Angstroms)
 Number     Number       Type             X           Y           Z
 ---------------------------------------------------------------------
      1          8           0        5.336613   -0.197208   -3.319846
      2          8           0       -2.983641   -2.823720    3.539235
      3          8           0       -3.275295   -0.643364    3.162286
      4          8           0       -1.403323    7.129002    1.547927
      5          8           0       -0.455304    6.801231   -0.414259
      6          8           0       -2.024621   -4.094757    0.038572
      7          7           0        2.398589    0.891384    0.619445
      8          7           0        4.381929   -0.579074   -1.226774
      9          7           0       -1.866931    0.607218   -0.461841
     10          7           0       -2.654057   -1.891340   -0.498039
     11          6           0        4.824755   -1.210338    0.013580
     12          6           0        4.484579   -0.265008    1.257616
     13          6           0        2.955431   -0.075017    1.329654
     14          6           0        2.007395   -0.629036    2.244813
     15          6           0        0.784256   -0.054305    1.939592
     16          6           0        1.007174    0.899454    0.866048
     17          6           0        6.299561   -1.391960   -0.156624
     18          6           0       -0.555856   -0.124755    2.616909
     19          6           0        6.595891   -1.026096   -1.498743
     20          6           0        0.196996    1.898632    0.091513
     21          6           0       -1.148485    1.868989   -0.413215
     22          6           0        5.374504   -0.532445   -2.123767
     23          6           0       -1.909733    2.930662   -0.959975
     24          6           0        2.245507   -1.636632    3.259936
     25          6           0        7.112220   -1.907782    0.937340
     26          6           0       -3.056933    2.325611   -1.389977
     27          6           0       -1.183558   -1.573219    2.711862
     28          6           0       -3.004911    0.878311   -1.009380
     29          6           0       -1.500219    4.321726   -0.962963
     30          6           0        7.863061   -0.838069   -2.166806
     31          6           0       -1.830152    5.001499    0.312461
     32          6           0       -4.171088    3.110089   -2.114934
     33          6           0       -3.967918   -0.059787   -1.417714
     34          6           0       -2.553521   -1.631476    3.098212
     35          6           0       -3.652800   -1.450881   -1.089416
     36          6           0        9.106592   -0.964870   -1.681896
     37          6           0       -1.226133    6.418297    0.395039
     38          6           0       -4.658433   -2.540104   -1.569676
     39          6           0       -4.084289   -3.682489   -1.035967
     40          6           0       -2.812414   -3.255881   -0.450506
     41          6           0       -5.921589   -2.281779   -2.207871
     42          6           0       -4.375450   -5.084386   -1.198873
     43          6           0       -6.761775   -3.273995   -2.654414
     44          1           0        4.313414   -2.188549    0.180821
     45          1           0        4.967841    0.675303    1.078775
     46          1           0        4.995572   -0.819797    2.130507
     47          1           0        2.823648    1.338481   -0.284428
     48          1           0        3.372717   -0.342457   -1.434609
     49          1           0       -0.452289    0.020768    3.774763
     50          1           0       -1.203832    0.567048    2.256354
     51          1           0        0.547969    2.805545   -0.109800
     52          1           0        3.371105   -1.845715    3.794676
     53          1           0        1.600637   -1.148495    3.944544
     54          1           0        2.036526   -2.637351    3.037699
     55          1           0        6.325837   -2.546519    1.483399
     56          1           0        7.278739   -0.894550    1.660154
     57          1           0        8.081450   -2.410824    0.484977
     58          1           0       -1.273677   -2.084678    1.722362
     59          1           0       -0.607618   -2.133785    3.280660
     60          1           0       -1.523339   -0.286101   -0.096021
     61          1           0       -2.040152    4.964792   -1.805202
     62          1           0       -0.445396    4.431910   -1.323402
     63          1           0        7.743900   -0.527843   -3.355407
     64          1           0       -1.367341    4.556793    1.374541
     65          1           0       -3.004370    5.412968    0.479251
     66          1           0       -3.818604    4.149364   -2.247618
     67          1           0       -5.065713    3.070056   -1.450044
     68          1           0       -4.403006    2.440445   -3.003095
     69          1           0       -5.005980    0.128298   -1.603124
     70          1           0        9.361787   -1.371281   -0.584004
     71          1           0        9.983838   -0.827441   -2.266889
     72          1           0       -4.007522   -2.731691    3.812319
     73          1           0       -6.403205   -1.328170   -2.207250
     74          1           0       -4.160657   -5.613604   -2.237927
     75          1           0       -3.784528   -5.578911   -0.353656
     76          1           0       -5.522449   -5.255762   -0.779225
     77          1           0       -0.759491    7.895907    1.282438
     78          1           0       -7.766230   -3.030402   -3.212881
     79          1           0       -6.457726   -4.398303   -2.715664
 ---------------------------------------------------------------------

 SCF Done:  E(RB3LYP) =  -1947.83954948     A.U. after   18 cycles

 Excitation energies and oscillator strengths:

 Excited State   1:      Singlet-A      2.1829 eV  567.99 nm  f=0.5030  <S**2>=0.000
     155 ->156         0.69812
 This state for optimization and/or second-order correction.
 Total Energy, E(TD-HF/TD-KS) =  -1947.75933046
 Copying the excited state density for this state as the 1-particle RhoCI density.

 The electronic state is 1-A.
 Alpha  occ. eigenvalues --  -19.19176 -19.17408 -19.13745 -19.10344 -19.10223
 Alpha  occ. eigenvalues --  -19.08885 -14.40206 -14.37397 -14.36630 -14.29418
 Alpha  occ. eigenvalues --  -10.32596 -10.30151 -10.27806 -10.26264 -10.25618
 Alpha  occ. eigenvalues --  -10.24950 -10.24919 -10.24781 -10.24255 -10.23962
 Alpha  occ. eigenvalues --  -10.23772 -10.23056 -10.23004 -10.22745 -10.22599
 Alpha  occ. eigenvalues --  -10.21985 -10.21446 -10.21281 -10.21038 -10.20992
 Alpha  occ. eigenvalues --  -10.20639 -10.20532 -10.20472 -10.20276 -10.20273
 Alpha  occ. eigenvalues --  -10.20108 -10.19998 -10.19878 -10.19821 -10.19742
 Alpha  occ. eigenvalues --  -10.18737 -10.18279 -10.18233  -1.11403  -1.07568
 Alpha  occ. eigenvalues --   -1.01591  -1.01492  -1.00823  -0.99732  -0.99458
 Alpha  occ. eigenvalues --   -0.97720  -0.94346  -0.94317  -0.84911  -0.82824
 Alpha  occ. eigenvalues --   -0.82518  -0.80691  -0.80649  -0.79086  -0.78618
 Alpha  occ. eigenvalues --   -0.78361  -0.76717  -0.75628  -0.74273  -0.72969
 Alpha  occ. eigenvalues --   -0.71829  -0.71621  -0.69358  -0.69116  -0.68429
 Alpha  occ. eigenvalues --   -0.68025  -0.65704  -0.63794  -0.61481  -0.60120
 Alpha  occ. eigenvalues --   -0.59109  -0.58499  -0.58325  -0.57852  -0.57196
 Alpha  occ. eigenvalues --   -0.56688  -0.55555  -0.55199  -0.54258  -0.53414
 Alpha  occ. eigenvalues --   -0.52704  -0.52270  -0.51027  -0.50761  -0.50373
 Alpha  occ. eigenvalues --   -0.50230  -0.49515  -0.48843  -0.48612  -0.47853
 Alpha  occ. eigenvalues --   -0.47559  -0.46838  -0.46489  -0.46389  -0.46238
 Alpha  occ. eigenvalues --   -0.45602  -0.44661  -0.44542  -0.44181  -0.44110
 Alpha  occ. eigenvalues --   -0.43822  -0.43512  -0.43205  -0.42703  -0.42595
 Alpha  occ. eigenvalues --   -0.42455  -0.42398  -0.41955  -0.41860  -0.41518
 Alpha  occ. eigenvalues --   -0.41304  -0.40975  -0.40546  -0.40167  -0.39889
 Alpha  occ. eigenvalues --   -0.39570  -0.39409  -0.38941  -0.38926  -0.38440
 Alpha  occ. eigenvalues --   -0.38073  -0.37721  -0.37597  -0.37543  -0.37453
 Alpha  occ. eigenvalues --   -0.37237  -0.35546  -0.34802  -0.34663  -0.34325
 Alpha  occ. eigenvalues --   -0.33600  -0.33450  -0.33133  -0.32861  -0.31456
 Alpha  occ. eigenvalues --   -0.31101  -0.30366  -0.29515  -0.28873  -0.27355
 Alpha  occ. eigenvalues --   -0.26798  -0.26466  -0.26139  -0.25900  -0.24710
 Alpha  occ. eigenvalues --   -0.24405  -0.23648  -0.23131  -0.22426  -0.19029
 Alpha virt. eigenvalues --   -0.10371  -0.06800  -0.06469  -0.00921  -0.00305
 Alpha virt. eigenvalues --   -0.00045   0.01125   0.01814   0.01882   0.02125
 Alpha virt. eigenvalues --    0.02279   0.03027   0.04007   0.04240   0.04555

 Mulliken charges:
               1
     1  O   -0.261326
     2  O   -0.226237
     3  O   -0.263674
     4  O   -0.224110
     5  O   -0.216997
     6  O   -0.235977
     7  N   -0.085930
     8  N   -0.192271
     9  N   -0.046261
    10  N   -0.169391
    11  C    0.038529
    12  C    0.163703
    13  C   -0.086145
    14  C   -0.083732
    15  C   -0.075988
    16  C    0.067872
    17  C   -0.148066
    18  C    0.110113
    19  C   -0.034797
    20  C   -0.012653
    21  C   -0.009788
    22  C    0.138376
    23  C    0.027760
    24  C    0.023762
    25  C    0.002170
    26  C   -0.197488
    27  C    0.075987
    28  C    0.149179
    29  C    0.048597
    30  C   -0.038825
    31  C   -0.082214
    32  C    0.108724
    33  C   -0.131327
    34  C    0.102738
    35  C   -0.014115
    36  C   -0.071050
    37  C    0.117922
    38  C    0.060026
    39  C   -0.169549
    40  C    0.140650
    41  C   -0.019655
    42  C   -0.006550
    43  C   -0.097986
    44  H    0.039623
    45  H   -0.006622
    46  H    0.015540
    47  H    0.158191
    48  H    0.143818
    49  H    0.022410
    50  H   -0.021158
    51  H   -0.077905
    52  H    0.020506
    53  H    0.023354
    54  H    0.035615
    55  H    0.046350
    56  H    0.075200
    57  H    0.082121
    58  H    0.065576
    59  H   -0.029485
    60  H    0.158995
    61  H    0.033140
    62  H    0.044947
    63  H    0.060628
    64  H    0.090954
    65  H    0.072087
    66  H    0.020250
    67  H    0.034020
    68  H    0.046674
    69  H   -0.015599
    70  H    0.023614
    71  H    0.020220
    72  H    0.223693
    73  H   -0.008526
    74  H    0.068826
    75  H    0.037544
    76  H    0.030284
    77  H    0.201299
    78  H    0.041595
    79  H    0.048217
 Sum of Mulliken charges =   0.00000

 Dipole moment (field-independent basis, Debye):
    X=              0.1506    Y=              2.9388    Z=              3.3169  Tot=              4.4341
 Quadrupole moment (field-independent basis, Debye-Ang):
   XX=           -227.8587   YY=           -250.0295   ZZ=           -266.8366
   XY=            -10.8644   XZ=             34.5037   YZ=             -3.3996

 Normal termination of Gaussian 09 at Tue Jul  9 23:48:01 2019.
