 Gaussian 09, Revision D.01,
 Gaussian 09:  ES64L-G09RevD.01 24-Apr-2013

 --------------------------
 # td=(NStates=1) B3LYP/SVP
 --------------------------

 --
 TD
 --
 Symbolic Z-matrix:
 Charge =  0 Multiplicity = 1

                         Standard orientation:
 ---------------------------------------------------------------------
 Center     Atomic      Atomic             Coordinates (Angstroms)
 Number     Number       Type             X           Y           Z
 ---------------------------------------------------------------------
      1          8           0        5.131281   -0.643684   -3.374893
      2          8           0       -2.863146   -3.079767    3.341204
      3          8           0       -3.307446   -0.844833    3.100053
      4          8           0       -1.430476    7.248646    1.397096
      5          8           0       -0.409902    7.018153   -0.523441
      6          8           0       -1.987503   -4.036827    0.001685
      7          7           0        2.400751    0.894265    0.503796
      8          7           0        4.340585   -0.881916   -1.291391
      9          7           0       -1.910187    0.662134   -0.318027
     10          7           0       -2.764110   -1.842413   -0.471152
     11          6           0        4.901211   -1.298530    0.112634
     12          6           0        4.443663   -0.202116    1.117951
     13          6           0        2.970516    0.005117    1.313965
     14          6           0        2.108602   -0.725489    2.100390
     15          6           0        0.874017   -0.063122    1.820231
     16          6           0        1.012345    0.900076    0.773419
     17          6           0        6.391498   -1.228754   -0.140240
     18          6           0       -0.475781   -0.330517    2.553608
     19          6           0        6.586936   -0.857898   -1.410338
     20          6           0        0.103326    1.797212    0.131020
     21          6           0       -1.135568    1.813034   -0.204615
     22          6           0        5.351123   -0.745250   -2.172915
     23          6           0       -1.864678    2.985393   -0.769483
     24          6           0        2.364546   -1.731489    3.104604
     25          6           0        7.355004   -1.643187    0.927352
     26          6           0       -3.171404    2.408533   -1.167995
     27          6           0       -1.060037   -1.706122    2.532394
     28          6           0       -3.093600    0.918489   -0.982527
     29          6           0       -1.386379    4.321775   -0.849032
     30          6           0        7.853025   -0.687970   -2.075918
     31          6           0       -1.568313    5.082798    0.473091
     32          6           0       -4.283161    3.100789   -1.950040
     33          6           0       -4.100209   -0.048110   -1.258890
     34          6           0       -2.532117   -1.788419    3.075660
     35          6           0       -3.808727   -1.407810   -1.021123
     36          6           0        9.160394   -0.841623   -1.696680
     37          6           0       -1.066460    6.536508    0.373504
     38          6           0       -4.878686   -2.469762   -1.366725
     39          6           0       -4.167072   -3.595316   -1.075630
     40          6           0       -2.817814   -3.280007   -0.455217
     41          6           0       -6.166999   -2.192739   -1.972764
     42          6           0       -4.438639   -5.040254   -1.250344
     43          6           0       -6.905610   -2.986070   -2.669909
     44          1           0        4.619897   -2.258588    0.525781
     45          1           0        4.971477    0.780081    0.578435
     46          1           0        4.914129   -0.384706    2.122535
     47          1           0        2.886735    1.555339   -0.207291
     48          1           0        3.399461   -1.128500   -1.508137
     49          1           0       -0.400759   -0.006836    3.573849
     50          1           0       -1.207202    0.425551    2.124197
     51          1           0        0.557078    2.832298    0.040861
     52          1           0        3.486711   -1.635560    3.504276
     53          1           0        1.523678   -1.769311    4.022278
     54          1           0        2.563556   -2.854431    2.611614
     55          1           0        6.682437   -1.871330    1.752716
     56          1           0        8.303050   -0.866876    1.332154
     57          1           0        7.974253   -2.584877    0.359001
     58          1           0       -0.857880   -1.862671    1.400525
     59          1           0       -0.444334   -2.525876    3.006062
     60          1           0       -1.797269   -0.281905   -0.012891
     61          1           0       -2.006284    4.664667   -1.751024
     62          1           0       -0.347831    4.273907   -1.035774
     63          1           0        7.642499   -0.529033   -3.189717
     64          1           0       -0.988559    4.618461    1.308588
     65          1           0       -2.648073    5.030859    0.828918
     66          1           0       -4.159306    4.193264   -2.060340
     67          1           0       -5.177716    3.183970   -1.274796
     68          1           0       -4.392862    2.660053   -3.054819
     69          1           0       -5.081989    0.136888   -1.668434
     70          1           0        9.452354   -1.096814   -0.634518
     71          1           0        9.851971   -0.873704   -2.541927
     72          1           0       -3.708544   -2.999864    3.802345
     73          1           0       -6.663715   -1.208059   -1.711675
     74          1           0       -4.290944   -5.493844   -2.235066
     75          1           0       -3.840132   -5.528459   -0.522866
     76          1           0       -5.587961   -5.442038   -1.165821
     77          1           0       -1.414150    8.329634    1.460726
     78          1           0       -8.150051   -2.596166   -2.743960
     79          1           0       -6.525173   -3.998551   -3.048640
 ---------------------------------------------------------------------

 SCF Done:  E(RB3LYP) =  -1947.85549651     A.U. after   16 cycles

 Excitation energies and oscillator strengths:

 Excited State   1:      Singlet-A      2.2584 eV  548.99 nm  f=0.4941  <S**2>=0.000
     155 ->156         0.69979
 This state for optimization and/or second-order correction.
 Total Energy, E(TD-HF/TD-KS) =  -1947.77250228
 Copying the excited state density for this state as the 1-particle RhoCI density.

 The electronic state is 1-A.
 Alpha  occ. eigenvalues --  -19.18903 -19.17808 -19.12289 -19.12038 -19.11347
 Alpha  occ. eigenvalues --  -19.09422 -14.39081 -14.35723 -14.35228 -14.28357
 Alpha  occ. eigenvalues --  -10.32480 -10.31656 -10.28035 -10.27066 -10.25579
 Alpha  occ. eigenvalues --  -10.25089 -10.24349 -10.23519 -10.23078 -10.22956
 Alpha  occ. eigenvalues --  -10.22943 -10.22925 -10.22545 -10.22286 -10.22123
 Alpha  occ. eigenvalues --  -10.22071 -10.22066 -10.21466 -10.21000 -10.20856
 Alpha  occ. eigenvalues --  -10.20853 -10.20176 -10.20124 -10.19906 -10.19838
 Alpha  occ. eigenvalues --  -10.19713 -10.19713 -10.19461 -10.19377 -10.19009
 Alpha  occ. eigenvalues --  -10.18786 -10.18381 -10.18169  -1.09983  -1.08611
 Alpha  occ. eigenvalues --   -1.02197  -1.02068  -0.99856  -0.99730  -0.98890
 Alpha  occ. eigenvalues --   -0.97109  -0.92925  -0.92898  -0.83782  -0.82825
 Alpha  occ. eigenvalues --   -0.81614  -0.81258  -0.80559  -0.79259  -0.77315
 Alpha  occ. eigenvalues --   -0.77078  -0.76367  -0.75408  -0.74254  -0.72382
 Alpha  occ. eigenvalues --   -0.71757  -0.70834  -0.69329  -0.68653  -0.68339
 Alpha  occ. eigenvalues --   -0.66070  -0.65487  -0.63212  -0.62035  -0.61455
 Alpha  occ. eigenvalues --   -0.59833  -0.58890  -0.58361  -0.57310  -0.56637
 Alpha  occ. eigenvalues --   -0.56008  -0.55717  -0.54940  -0.53367  -0.52498
 Alpha  occ. eigenvalues --   -0.51878  -0.51430  -0.50826  -0.50407  -0.49996
 Alpha  occ. eigenvalues --   -0.49004  -0.48689  -0.48221  -0.47584  -0.47559
 Alpha  occ. eigenvalues --   -0.47448  -0.46812  -0.46590  -0.45768  -0.45206
 Alpha  occ. eigenvalues --   -0.45164  -0.44487  -0.43973  -0.43655  -0.43278
 Alpha  occ. eigenvalues --   -0.43006  -0.42621  -0.42367  -0.42261  -0.42099
 Alpha  occ. eigenvalues --   -0.41911  -0.41864  -0.41674  -0.41128  -0.40823
 Alpha  occ. eigenvalues --   -0.40454  -0.40390  -0.40013  -0.39851  -0.39524
 Alpha  occ. eigenvalues --   -0.39124  -0.39000  -0.38764  -0.38234  -0.38145
 Alpha  occ. eigenvalues --   -0.37680  -0.37527  -0.36727  -0.36515  -0.36401
 Alpha  occ. eigenvalues --   -0.36095  -0.35451  -0.34609  -0.34513  -0.34124
 Alpha  occ. eigenvalues --   -0.34016  -0.32902  -0.32249  -0.31978  -0.31756
 Alpha  occ. eigenvalues --   -0.31329  -0.31094  -0.29586  -0.27985  -0.27502
 Alpha  occ. eigenvalues --   -0.27478  -0.26714  -0.25281  -0.24932  -0.24694
 Alpha  occ. eigenvalues --   -0.24237  -0.23905  -0.23517  -0.22552  -0.19035
 Alpha virt. eigenvalues --   -0.09958  -0.06508  -0.05920  -0.00737  -0.00234
 Alpha virt. eigenvalues --    0.00157   0.00743   0.00914   0.01345   0.01908
 Alpha virt. eigenvalues --    0.02873   0.03505   0.03602   0.03801   0.04084

 Mulliken charges:
               1
     1  O   -0.228966
     2  O   -0.165293
     3  O   -0.232008
     4  O   -0.226153
     5  O   -0.225357
     6  O   -0.179801
     7  N   -0.081037
     8  N   -0.186102
     9  N   -0.075958
    10  N   -0.246582
    11  C    0.100190
    12  C    0.057647
    13  C   -0.043705
    14  C   -0.046701
    15  C   -0.145985
    16  C    0.087515
    17  C   -0.148414
    18  C    0.073252
    19  C   -0.028415
    20  C   -0.102269
    21  C    0.118735
    22  C    0.151650
    23  C   -0.110334
    24  C   -0.039816
    25  C   -0.034328
    26  C   -0.142252
    27  C   -0.051995
    28  C    0.126387
    29  C    0.150985
    30  C   -0.049079
    31  C   -0.043428
    32  C    0.052931
    33  C   -0.098478
    34  C    0.167173
    35  C    0.018235
    36  C   -0.033107
    37  C    0.137651
    38  C    0.078027
    39  C   -0.209559
    40  C    0.179978
    41  C   -0.016373
    42  C    0.043846
    43  C   -0.102527
    44  H    0.017126
    45  H    0.012555
    46  H    0.014526
    47  H    0.159080
    48  H    0.124383
    49  H   -0.015752
    50  H    0.015985
    51  H   -0.008088
    52  H    0.013225
    53  H    0.071754
    54  H    0.041465
    55  H    0.023589
    56  H    0.081575
    57  H    0.083251
    58  H    0.088109
    59  H    0.025214
    60  H    0.125450
    61  H    0.040785
    62  H    0.000417
    63  H    0.024871
    64  H    0.048393
    65  H    0.044776
    66  H   -0.000575
    67  H    0.029805
    68  H    0.070399
    69  H   -0.036565
    70  H    0.020004
    71  H    0.035428
    72  H    0.170370
    73  H    0.020492
    74  H    0.027803
    75  H    0.023538
    76  H    0.014519
    77  H    0.252857
    78  H    0.049498
    79  H    0.039557
 Sum of Mulliken charges =   0.00000

 Dipole moment (field-independent basis, Debye):
    X=              0.0697    Y=              3.5195    Z=              4.6643  Tot=              5.8436
 Quadrupole moment (field-independent basis, Debye-Ang):
   XX=           -222.7823   YY=           -236.4573   ZZ=           -262.6274
   XY=            -18.0103   XZ=             28.7595   YZ=              5.1608

 Normal termination of Gaussian 09 at Mon Jul  8 16:56:35 2019.
