 Gaussian 09, Revision D.01,
 Gaussian 09:  ES64L-G09RevD.01 24-Apr-2013

 --------------------------
 # td=(NStates=1) B3LYP/SVP
 --------------------------

 --
 TD
 --
 Symbolic Z-matrix:
 Charge =  0 Multiplicity = 1

                         Standard orientation:
 ---------------------------------------------------------------------
 Center     Atomic      Atomic             Coordinates (Angstroms)
 Number     Number       Type             X           Y           Z
 ---------------------------------------------------------------------
      1          8           0        5.562403   -0.066995   -3.271617
      2          8           0       -2.883810   -3.207760    3.450893
      3          8           0       -3.460078   -1.023110    3.104945
      4          8           0       -1.144014    7.113559    1.766410
      5          8           0       -0.104639    6.848402   -0.211149
      6          8           0       -2.303792   -3.944298   -0.183132
      7          7           0        2.384003    0.789212    0.607625
      8          7           0        4.487350   -0.601904   -1.309051
      9          7           0       -1.879466    0.679878   -0.378915
     10          7           0       -2.824249   -1.727993   -0.627993
     11          6           0        4.780054   -1.208228   -0.106729
     12          6           0        4.509984   -0.475498    1.217606
     13          6           0        2.977767   -0.193709    1.318861
     14          6           0        1.958482   -0.872177    2.059598
     15          6           0        0.696355   -0.306929    1.573820
     16          6           0        1.038656    0.751033    0.709870
     17          6           0        6.355742   -1.414386   -0.204236
     18          6           0       -0.585684   -0.376789    2.429037
     19          6           0        6.754412   -1.022706   -1.370508
     20          6           0        0.263577    1.813878    0.110779
     21          6           0       -0.987727    1.788174   -0.320142
     22          6           0        5.553871   -0.510482   -2.128118
     23          6           0       -1.859314    2.967834   -0.763478
     24          6           0        2.217237   -1.891890    3.095772
     25          6           0        7.110907   -1.884075    0.877481
     26          6           0       -3.043898    2.472678   -1.127730
     27          6           0       -1.145857   -1.722981    2.524829
     28          6           0       -3.052619    1.072747   -0.980029
     29          6           0       -1.275544    4.329039   -0.816383
     30          6           0        8.078384   -1.052630   -2.025144
     31          6           0       -1.686194    5.174041    0.404894
     32          6           0       -4.113798    3.361463   -1.818161
     33          6           0       -4.178901    0.181337   -1.248551
     34          6           0       -2.544845   -1.908518    3.018045
     35          6           0       -3.936370   -1.195122   -1.054532
     36          6           0        9.329403   -1.061853   -1.542723
     37          6           0       -0.889814    6.415667    0.611876
     38          6           0       -4.992992   -2.277223   -1.436357
     39          6           0       -4.373821   -3.507832   -1.128902
     40          6           0       -3.051301   -3.096374   -0.590156
     41          6           0       -6.290276   -1.974550   -2.004441
     42          6           0       -4.853379   -4.929639   -1.233535
     43          6           0       -6.972018   -2.694856   -2.871602
     44          1           0        4.293375   -2.195898   -0.189603
     45          1           0        5.162404    0.536177    1.270969
     46          1           0        4.666331   -1.094503    2.218303
     47          1           0        2.924225    1.222390   -0.228346
     48          1           0        3.592905   -0.594054   -1.709613
     49          1           0       -0.472642   -0.039549    3.507874
     50          1           0       -1.343249    0.155991    1.878261
     51          1           0        0.819287    2.694199   -0.030396
     52          1           0        3.313742   -1.783688    3.329057
     53          1           0        1.808508   -1.556487    3.885263
     54          1           0        1.906969   -2.989267    3.002145
     55          1           0        6.902870   -2.717214    1.653773
     56          1           0        7.720188   -1.156187    1.487260
     57          1           0        8.054559   -2.436153    0.514138
     58          1           0       -1.175075   -2.082932    1.473492
     59          1           0       -0.451900   -2.501692    3.021100
     60          1           0       -1.544910   -0.278713   -0.393617
     61          1           0       -1.637356    4.819390   -1.724445
     62          1           0       -0.158451    4.362425   -0.915343
     63          1           0        7.781808   -1.006127   -3.120483
     64          1           0       -1.629853    4.347650    1.307593
     65          1           0       -2.977017    5.401743    0.421399
     66          1           0       -3.751803    4.265533   -1.894994
     67          1           0       -5.039832    3.156253   -1.160998
     68          1           0       -4.136074    2.927056   -2.756752
     69          1           0       -5.024397    0.563193   -1.644800
     70          1           0        9.478639   -1.040334   -0.567365
     71          1           0       10.076443   -1.043443   -2.154728
     72          1           0       -3.822349   -3.136405    3.603747
     73          1           0       -6.728082   -1.004254   -1.582786
     74          1           0       -4.468198   -5.243177   -2.191260
     75          1           0       -4.338011   -5.476365   -0.224118
     76          1           0       -5.929466   -4.931147   -1.194325
     77          1           0       -0.721495    7.781189    1.497095
     78          1           0       -7.840047   -2.385854   -3.334361
     79          1           0       -6.556938   -3.769149   -3.431659
 ---------------------------------------------------------------------

 SCF Done:  E(RB3LYP) =  -1947.82687495     A.U. after   18 cycles

 Excitation energies and oscillator strengths:

 Excited State   1:      Singlet-A      2.3450 eV  528.73 nm  f=0.4706  <S**2>=0.000
     154 ->156         0.15264
     155 ->156         0.68453
 This state for optimization and/or second-order correction.
 Total Energy, E(TD-HF/TD-KS) =  -1947.74069912
 Copying the excited state density for this state as the 1-particle RhoCI density.

 The electronic state is 1-A.
 Alpha  occ. eigenvalues --  -19.18608 -19.16062 -19.14847 -19.11163 -19.10491
 Alpha  occ. eigenvalues --  -19.09786 -14.39357 -14.36851 -14.36573 -14.28936
 Alpha  occ. eigenvalues --  -10.34057 -10.31303 -10.28990 -10.25708 -10.25447
 Alpha  occ. eigenvalues --  -10.25364 -10.24863 -10.24209 -10.24183 -10.23385
 Alpha  occ. eigenvalues --  -10.23320 -10.23167 -10.21854 -10.21707 -10.21583
 Alpha  occ. eigenvalues --  -10.21542 -10.21363 -10.20674 -10.20511 -10.20402
 Alpha  occ. eigenvalues --  -10.20036 -10.19950 -10.19889 -10.19883 -10.19798
 Alpha  occ. eigenvalues --  -10.19782 -10.19361 -10.19359 -10.19206 -10.19159
 Alpha  occ. eigenvalues --  -10.18942 -10.18780 -10.17935  -1.13934  -1.05679
 Alpha  occ. eigenvalues --   -1.03673  -1.03155  -1.02146  -0.99844  -0.97958
 Alpha  occ. eigenvalues --   -0.96789  -0.95906  -0.92356  -0.84261  -0.83810
 Alpha  occ. eigenvalues --   -0.82431  -0.81562  -0.79964  -0.79806  -0.78435
 Alpha  occ. eigenvalues --   -0.77829  -0.76909  -0.76056  -0.74743  -0.73398
 Alpha  occ. eigenvalues --   -0.72985  -0.72395  -0.70530  -0.69767  -0.68493
 Alpha  occ. eigenvalues --   -0.66585  -0.66106  -0.64100  -0.63739  -0.60838
 Alpha  occ. eigenvalues --   -0.60114  -0.59946  -0.58676  -0.57723  -0.57592
 Alpha  occ. eigenvalues --   -0.56368  -0.55465  -0.54979  -0.54719  -0.53246
 Alpha  occ. eigenvalues --   -0.52539  -0.52131  -0.51802  -0.51133  -0.50897
 Alpha  occ. eigenvalues --   -0.50145  -0.49616  -0.49221  -0.48723  -0.47778
 Alpha  occ. eigenvalues --   -0.47742  -0.47152  -0.46776  -0.46419  -0.46083
 Alpha  occ. eigenvalues --   -0.45787  -0.45629  -0.44927  -0.44696  -0.44190
 Alpha  occ. eigenvalues --   -0.43866  -0.43672  -0.43528  -0.43411  -0.43054
 Alpha  occ. eigenvalues --   -0.42687  -0.42634  -0.42329  -0.42041  -0.41505
 Alpha  occ. eigenvalues --   -0.41487  -0.41037  -0.40636  -0.40490  -0.40356
 Alpha  occ. eigenvalues --   -0.40220  -0.39652  -0.39506  -0.38963  -0.38747
 Alpha  occ. eigenvalues --   -0.38155  -0.37694  -0.37521  -0.37472  -0.36968
 Alpha  occ. eigenvalues --   -0.36338  -0.35375  -0.34462  -0.34266  -0.34160
 Alpha  occ. eigenvalues --   -0.33954  -0.33379  -0.33137  -0.32342  -0.31863
 Alpha  occ. eigenvalues --   -0.31177  -0.30502  -0.29655  -0.29412  -0.27554
 Alpha  occ. eigenvalues --   -0.27447  -0.27099  -0.26331  -0.26128  -0.25423
 Alpha  occ. eigenvalues --   -0.25090  -0.23938  -0.23567  -0.22217  -0.19666
 Alpha virt. eigenvalues --   -0.10308  -0.05664  -0.05273  -0.03400  -0.00529
 Alpha virt. eigenvalues --    0.00013   0.00497   0.01323   0.01912   0.02550
 Alpha virt. eigenvalues --    0.02964   0.03909   0.05095   0.05280   0.05693

 Mulliken charges:
               1
     1  O   -0.228574
     2  O   -0.205192
     3  O   -0.291877
     4  O   -0.088633
     5  O   -0.232687
     6  O   -0.187649
     7  N   -0.055580
     8  N   -0.106838
     9  N   -0.092843
    10  N   -0.245982
    11  C    0.104361
    12  C    0.111917
    13  C   -0.125189
    14  C   -0.166932
    15  C   -0.122081
    16  C    0.042616
    17  C   -0.138132
    18  C    0.122382
    19  C   -0.030772
    20  C   -0.080792
    21  C    0.126883
    22  C    0.106757
    23  C   -0.073180
    24  C    0.198043
    25  C   -0.026975
    26  C   -0.203043
    27  C   -0.031658
    28  C    0.109166
    29  C    0.115041
    30  C   -0.034219
    31  C   -0.146384
    32  C    0.221377
    33  C   -0.071329
    34  C    0.173463
    35  C    0.107275
    36  C    0.124692
    37  C    0.177184
    38  C    0.002833
    39  C   -0.212707
    40  C    0.119406
    41  C   -0.026883
    42  C    0.081989
    43  C   -0.055773
    44  H    0.018832
    45  H    0.031910
    46  H    0.039220
    47  H    0.146757
    48  H    0.114949
    49  H    0.025633
    50  H    0.001222
    51  H   -0.042227
    52  H   -0.022367
    53  H   -0.049380
    54  H    0.055830
    55  H    0.035945
    56  H    0.037732
    57  H    0.019078
    58  H    0.062502
    59  H    0.027683
    60  H    0.153616
    61  H    0.016152
    62  H    0.031253
    63  H    0.024242
    64  H    0.082050
    65  H    0.083823
    66  H   -0.039597
    67  H    0.052218
    68  H    0.014298
    69  H   -0.078941
    70  H   -0.037288
    71  H   -0.021498
    72  H    0.168119
    73  H    0.025119
    74  H    0.037620
    75  H    0.065727
    76  H    0.021451
    77  H    0.084241
    78  H    0.003748
    79  H    0.046845
 Sum of Mulliken charges =   0.00000

 Dipole moment (field-independent basis, Debye):
    X=              1.6393    Y=              2.6321    Z=              1.6722  Tot=              3.5230
 Quadrupole moment (field-independent basis, Debye-Ang):
   XX=           -224.9536   YY=           -253.9761   ZZ=           -264.0613
   XY=            -19.3048   XZ=             38.2568   YZ=              0.0404

 Normal termination of Gaussian 09 at Sun Jul  7 15:02:25 2019.
