 Gaussian 09, Revision D.01,
 Gaussian 09:  ES64L-G09RevD.01 24-Apr-2013

 --------------------------
 # td=(NStates=1) B3LYP/SVP
 --------------------------

 --
 TD
 --
 Symbolic Z-matrix:
 Charge =  0 Multiplicity = 1

                         Standard orientation:
 ---------------------------------------------------------------------
 Center     Atomic      Atomic             Coordinates (Angstroms)
 Number     Number       Type             X           Y           Z
 ---------------------------------------------------------------------
      1          8           0        5.308040   -0.204037   -3.353349
      2          8           0       -2.914535   -3.016135    3.509161
      3          8           0       -3.254561   -0.762006    3.158001
      4          8           0       -1.269602    6.986756    1.688046
      5          8           0       -0.778679    7.114794   -0.713237
      6          8           0       -1.912557   -4.016845    0.043553
      7          7           0        2.342608    1.022711    0.654450
      8          7           0        4.421779   -0.422473   -1.229987
      9          7           0       -1.904616    0.634264   -0.369699
     10          7           0       -2.716324   -1.792775   -0.396502
     11          6           0        4.774546   -1.101622   -0.013087
     12          6           0        4.388172   -0.214421    1.267087
     13          6           0        2.965544    0.027356    1.418305
     14          6           0        2.058876   -0.633551    2.138638
     15          6           0        0.720538   -0.154344    1.723968
     16          6           0        1.013383    0.907185    0.802586
     17          6           0        6.342945   -1.265445   -0.225111
     18          6           0       -0.561873   -0.342391    2.482350
     19          6           0        6.710671   -0.941282   -1.411660
     20          6           0        0.153515    1.847149    0.130194
     21          6           0       -1.122498    1.801967   -0.316867
     22          6           0        5.468099   -0.577009   -2.230870
     23          6           0       -1.925974    2.883396   -0.753903
     24          6           0        2.274008   -1.643079    3.148275
     25          6           0        7.211794   -1.929098    0.855246
     26          6           0       -3.124007    2.377269   -1.251410
     27          6           0       -1.068677   -1.742237    2.510928
     28          6           0       -3.084247    0.995963   -0.989177
     29          6           0       -1.470473    4.265600   -0.962652
     30          6           0        7.914499   -0.944345   -2.043233
     31          6           0       -1.741528    5.054576    0.299949
     32          6           0       -4.335694    3.053504   -1.847668
     33          6           0       -4.057216    0.054880   -1.219208
     34          6           0       -2.419074   -1.674071    3.058911
     35          6           0       -3.785853   -1.373441   -1.023142
     36          6           0        9.242826   -1.017123   -1.583495
     37          6           0       -1.186503    6.522272    0.349331
     38          6           0       -4.670764   -2.514544   -1.485281
     39          6           0       -4.065325   -3.673638   -1.175213
     40          6           0       -2.786633   -3.256265   -0.409503
     41          6           0       -5.980550   -2.320790   -2.251413
     42          6           0       -4.455432   -5.125315   -1.289948
     43          6           0       -6.844584   -3.318424   -2.691135
     44          1           0        4.415666   -2.086788    0.037429
     45          1           0        5.004769    0.772138    1.102044
     46          1           0        4.882167   -0.524753    2.104899
     47          1           0        2.803654    1.519762   -0.053529
     48          1           0        3.405038   -0.685625   -1.536823
     49          1           0       -0.650386    0.127158    3.568492
     50          1           0       -1.335695    0.265790    1.923025
     51          1           0        0.682162    2.948662   -0.189570
     52          1           0        3.351456   -1.616348    3.718721
     53          1           0        1.419344   -1.628696    3.878116
     54          1           0        2.336062   -2.738072    2.735672
     55          1           0        6.788204   -2.407514    1.535184
     56          1           0        7.896017   -1.165180    1.634265
     57          1           0        7.982616   -2.534954    0.331818
     58          1           0       -1.079096   -2.154524    1.611333
     59          1           0       -0.398161   -2.448482    3.111983
     60          1           0       -1.869635   -0.362804   -0.123084
     61          1           0       -2.138393    4.928456   -1.729125
     62          1           0       -0.356625    4.327070   -1.237822
     63          1           0        7.890505   -0.769951   -3.183831
     64          1           0       -1.318988    4.661103    1.310937
     65          1           0       -2.741107    5.124080    0.573712
     66          1           0       -3.973683    4.057399   -1.932724
     67          1           0       -5.288544    3.356555   -1.000275
     68          1           0       -4.911540    2.472335   -2.671887
     69          1           0       -5.000641   -0.120314   -1.676892
     70          1           0        9.704221   -0.866287   -0.427106
     71          1           0       10.054300   -0.881874   -2.489823
     72          1           0       -3.857270   -2.971909    3.781503
     73          1           0       -6.199179   -1.286713   -2.637986
     74          1           0       -4.323012   -5.722057   -2.213900
     75          1           0       -3.812028   -5.903459   -0.510771
     76          1           0       -5.526607   -5.219507   -0.852137
     77          1           0       -0.966881    7.918812    1.597512
     78          1           0       -7.779338   -2.947398   -3.023877
     79          1           0       -6.833420   -4.520515   -2.401476
 ---------------------------------------------------------------------

 SCF Done:  E(RB3LYP) =  -1947.77822242     A.U. after   16 cycles

 Excitation energies and oscillator strengths:

 Excited State   1:      Singlet-A      2.1073 eV  588.35 nm  f=0.4753  <S**2>=0.000
     155 ->156         0.70380
     155 <-156        -0.11215
 This state for optimization and/or second-order correction.
 Total Energy, E(TD-HF/TD-KS) =  -1947.70077925
 Copying the excited state density for this state as the 1-particle RhoCI density.

 The electronic state is 1-A.
 Alpha  occ. eigenvalues --  -19.20456 -19.14788 -19.13710 -19.12515 -19.12412
 Alpha  occ. eigenvalues --  -19.11651 -14.38008 -14.35510 -14.35135 -14.30108
 Alpha  occ. eigenvalues --  -10.34330 -10.31443 -10.29921 -10.28002 -10.24688
 Alpha  occ. eigenvalues --  -10.24170 -10.23908 -10.23671 -10.23550 -10.23111
 Alpha  occ. eigenvalues --  -10.22904 -10.22587 -10.22476 -10.22357 -10.22351
 Alpha  occ. eigenvalues --  -10.22281 -10.21677 -10.21443 -10.21435 -10.21332
 Alpha  occ. eigenvalues --  -10.21301 -10.21259 -10.21257 -10.21233 -10.21180
 Alpha  occ. eigenvalues --  -10.20769 -10.20729 -10.20101 -10.19930 -10.19851
 Alpha  occ. eigenvalues --  -10.18895 -10.18788 -10.18621  -1.07798  -1.04901
 Alpha  occ. eigenvalues --   -1.03819  -1.00671  -0.99679  -0.99407  -0.97915
 Alpha  occ. eigenvalues --   -0.95435  -0.93818  -0.92219  -0.83700  -0.83626
 Alpha  occ. eigenvalues --   -0.82344  -0.81839  -0.80177  -0.79825  -0.78087
 Alpha  occ. eigenvalues --   -0.77768  -0.76350  -0.75349  -0.74114  -0.72468
 Alpha  occ. eigenvalues --   -0.71613  -0.71022  -0.69324  -0.68921  -0.68510
 Alpha  occ. eigenvalues --   -0.66960  -0.65980  -0.63906  -0.61463  -0.60124
 Alpha  occ. eigenvalues --   -0.59744  -0.58991  -0.58138  -0.57334  -0.56656
 Alpha  occ. eigenvalues --   -0.56213  -0.56138  -0.55250  -0.53559  -0.52340
 Alpha  occ. eigenvalues --   -0.52044  -0.51801  -0.50694  -0.50248  -0.49881
 Alpha  occ. eigenvalues --   -0.49563  -0.49107  -0.48052  -0.47830  -0.47336
 Alpha  occ. eigenvalues --   -0.46738  -0.46567  -0.46200  -0.46001  -0.45465
 Alpha  occ. eigenvalues --   -0.45213  -0.44942  -0.44463  -0.43729  -0.43602
 Alpha  occ. eigenvalues --   -0.43451  -0.43336  -0.42789  -0.42664  -0.42483
 Alpha  occ. eigenvalues --   -0.41889  -0.41606  -0.40780  -0.40635  -0.40423
 Alpha  occ. eigenvalues --   -0.40384  -0.39950  -0.39865  -0.39773  -0.39419
 Alpha  occ. eigenvalues --   -0.39364  -0.39129  -0.38653  -0.38552  -0.38129
 Alpha  occ. eigenvalues --   -0.37968  -0.37737  -0.37282  -0.37124  -0.36895
 Alpha  occ. eigenvalues --   -0.36536  -0.35870  -0.35127  -0.34446  -0.34383
 Alpha  occ. eigenvalues --   -0.34110  -0.33484  -0.33303  -0.33098  -0.32095
 Alpha  occ. eigenvalues --   -0.31239  -0.29287  -0.29008  -0.28936  -0.28680
 Alpha  occ. eigenvalues --   -0.28240  -0.26876  -0.26679  -0.25608  -0.24858
 Alpha  occ. eigenvalues --   -0.24588  -0.24509  -0.24125  -0.23397  -0.19115
 Alpha virt. eigenvalues --   -0.10896  -0.07080  -0.06837  -0.02818  -0.01650
 Alpha virt. eigenvalues --   -0.00909  -0.00578   0.00913   0.02110   0.02446
 Alpha virt. eigenvalues --    0.02928   0.03673   0.04052   0.04313   0.04905

 Mulliken charges:
               1
     1  O   -0.164799
     2  O   -0.302208
     3  O   -0.234959
     4  O   -0.217600
     5  O   -0.274537
     6  O   -0.215897
     7  N   -0.023537
     8  N   -0.262358
     9  N   -0.105118
    10  N   -0.306936
    11  C    0.112558
    12  C    0.192019
    13  C   -0.050287
    14  C   -0.085773
    15  C   -0.069242
    16  C    0.070476
    17  C   -0.207979
    18  C   -0.026262
    19  C    0.054878
    20  C   -0.147219
    21  C    0.138147
    22  C    0.165516
    23  C   -0.041661
    24  C   -0.005777
    25  C    0.116911
    26  C   -0.107021
    27  C    0.132811
    28  C    0.209412
    29  C    0.039531
    30  C   -0.087703
    31  C   -0.035121
    32  C    0.054380
    33  C   -0.040454
    34  C    0.168860
    35  C   -0.056861
    36  C   -0.128266
    37  C    0.200481
    38  C    0.050049
    39  C   -0.141218
    40  C    0.192616
    41  C   -0.043967
    42  C   -0.033457
    43  C   -0.057215
    44  H    0.004339
    45  H   -0.001623
    46  H   -0.040744
    47  H    0.100218
    48  H    0.154261
    49  H    0.035425
    50  H    0.024122
    51  H    0.021319
    52  H    0.023375
    53  H    0.041191
    54  H    0.039365
    55  H   -0.057149
    56  H    0.037554
    57  H    0.042614
    58  H   -0.003239
    59  H    0.037455
    60  H    0.140404
    61  H    0.060475
    62  H    0.043454
    63  H    0.039606
    64  H    0.047940
    65  H    0.019043
    66  H   -0.007066
    67  H    0.038494
    68  H    0.063465
    69  H   -0.082909
    70  H    0.066846
    71  H    0.055317
    72  H    0.179709
    73  H    0.030214
    74  H    0.049999
    75  H    0.049255
    76  H    0.048936
    77  H    0.190563
    78  H    0.020364
    79  H    0.062192
 Sum of Mulliken charges =   0.00000

 Dipole moment (field-independent basis, Debye):
    X=              1.2284    Y=              1.7608    Z=              2.1437  Tot=              3.0339
 Quadrupole moment (field-independent basis, Debye-Ang):
   XX=           -216.6378   YY=           -247.7990   ZZ=           -266.4609
   XY=             -7.7361   XZ=             30.9626   YZ=             10.9878

 Normal termination of Gaussian 09 at Tue Jul  9 12:04:56 2019.
