 Gaussian 09, Revision D.01,
 Gaussian 09:  ES64L-G09RevD.01 24-Apr-2013

 --------------------------
 # td=(NStates=1) B3LYP/SVP
 --------------------------

 --
 TD
 --
 Symbolic Z-matrix:
 Charge =  0 Multiplicity = 1

                         Standard orientation:
 ---------------------------------------------------------------------
 Center     Atomic      Atomic             Coordinates (Angstroms)
 Number     Number       Type             X           Y           Z
 ---------------------------------------------------------------------
      1          8           0        5.471472    0.025620   -3.342418
      2          8           0       -2.682254   -3.207732    3.071694
      3          8           0       -3.087788   -0.997464    3.472481
      4          8           0       -1.562447    7.179774    1.618774
      5          8           0       -0.437248    6.948864   -0.386723
      6          8           0       -2.041676   -4.043287   -0.205556
      7          7           0        2.306003    0.786475    0.571153
      8          7           0        4.382949   -0.665242   -1.280699
      9          7           0       -1.824485    0.670175   -0.390037
     10          7           0       -2.735171   -1.862278   -0.514313
     11          6           0        4.878935   -1.256921    0.014989
     12          6           0        4.505294   -0.335965    1.180343
     13          6           0        2.963572   -0.138240    1.308039
     14          6           0        2.017420   -0.651379    2.131048
     15          6           0        0.737821   -0.078155    1.861812
     16          6           0        1.042538    0.867912    0.763826
     17          6           0        6.282710   -1.364338   -0.218429
     18          6           0       -0.510998   -0.288390    2.508601
     19          6           0        6.663259   -0.910927   -1.421481
     20          6           0        0.226462    1.798478    0.128813
     21          6           0       -1.068946    1.911159   -0.292406
     22          6           0        5.478711   -0.398045   -2.132050
     23          6           0       -1.844643    2.962841   -0.897063
     24          6           0        2.273925   -1.743915    3.128274
     25          6           0        7.174936   -2.035320    0.798505
     26          6           0       -3.060125    2.455353   -1.261180
     27          6           0       -0.981563   -1.752225    2.429555
     28          6           0       -2.988289    1.018342   -1.012091
     29          6           0       -1.382208    4.339802   -0.793870
     30          6           0        7.991392   -0.912518   -2.147244
     31          6           0       -1.768381    5.078084    0.410853
     32          6           0       -4.315429    3.125691   -1.767284
     33          6           0       -4.013330    0.003898   -1.189144
     34          6           0       -2.385368   -1.973735    3.050674
     35          6           0       -3.873359   -1.367558   -1.021839
     36          6           0        9.140432   -0.819113   -1.479825
     37          6           0       -1.157200    6.493529    0.476064
     38          6           0       -4.933401   -2.378724   -1.414880
     39          6           0       -4.177635   -3.531689   -1.186118
     40          6           0       -2.851164   -3.217790   -0.550758
     41          6           0       -6.234073   -2.097523   -1.956077
     42          6           0       -4.603715   -5.067698   -1.459219
     43          6           0       -7.088902   -3.011564   -2.415791
     44          1           0        4.377869   -2.297693    0.426774
     45          1           0        4.859653    0.697077    1.150386
     46          1           0        4.891973   -0.750295    2.105928
     47          1           0        2.887206    1.337195   -0.127587
     48          1           0        3.375830   -0.622293   -1.678046
     49          1           0       -0.577716    0.173831    3.644485
     50          1           0       -1.322753    0.210377    2.056152
     51          1           0        0.942623    2.698808    0.017033
     52          1           0        3.469672   -1.639856    3.275357
     53          1           0        1.722674   -1.401794    3.993262
     54          1           0        2.171272   -2.754282    2.436359
     55          1           0        6.707823   -2.776632    1.425049
     56          1           0        7.429268   -1.116087    1.517659
     57          1           0        7.820485   -2.541130    0.083575
     58          1           0       -0.993717   -2.074206    1.542338
     59          1           0       -0.392998   -2.716845    3.080553
     60          1           0       -1.692295   -0.415957   -0.321563
     61          1           0       -1.754563    4.842516   -1.833300
     62          1           0       -0.336906    4.779209   -0.823808
     63          1           0        7.821626   -0.595352   -3.218866
     64          1           0       -1.204635    4.662361    1.248751
     65          1           0       -2.972970    5.325128    0.552158
     66          1           0       -4.203699    4.107340   -1.810597
     67          1           0       -5.405155    3.005012   -1.165671
     68          1           0       -4.420042    2.719827   -2.834331
     69          1           0       -5.219552    0.335554   -1.483114
     70          1           0        9.301574   -0.931416   -0.423387
     71          1           0        9.941169   -0.690853   -2.027305
     72          1           0       -3.562826   -3.250547    3.494162
     73          1           0       -6.357230   -0.976485   -2.287105
     74          1           0       -4.946855   -5.415092   -2.426741
     75          1           0       -3.828224   -5.799549   -1.012052
     76          1           0       -5.486539   -5.373441   -0.663697
     77          1           0       -1.051307    8.049501    1.313156
     78          1           0       -7.968562   -2.722707   -2.965440
     79          1           0       -7.039808   -4.171475   -2.237172
 ---------------------------------------------------------------------

 SCF Done:  E(RB3LYP) =  -1947.76941868     A.U. after   18 cycles

 Excitation energies and oscillator strengths:

 Excited State   1:      Singlet-A      2.1118 eV  587.11 nm  f=0.4350  <S**2>=0.000
     154 ->156         0.14022
     155 ->156         0.69138
     155 <-156        -0.10982
 This state for optimization and/or second-order correction.
 Total Energy, E(TD-HF/TD-KS) =  -1947.69181210
 Copying the excited state density for this state as the 1-particle RhoCI density.

 The electronic state is 1-A.
 Alpha  occ. eigenvalues --  -19.20363 -19.19270 -19.15407 -19.10580 -19.10243
 Alpha  occ. eigenvalues --  -19.08922 -14.39401 -14.37028 -14.36487 -14.28493
 Alpha  occ. eigenvalues --  -10.33805 -10.30655 -10.29319 -10.26933 -10.25284
 Alpha  occ. eigenvalues --  -10.25115 -10.24979 -10.23214 -10.23126 -10.23097
 Alpha  occ. eigenvalues --  -10.22862 -10.22718 -10.22699 -10.22291 -10.21971
 Alpha  occ. eigenvalues --  -10.21875 -10.21846 -10.21774 -10.21383 -10.21287
 Alpha  occ. eigenvalues --  -10.20857 -10.20679 -10.20427 -10.20041 -10.19947
 Alpha  occ. eigenvalues --  -10.19857 -10.19762 -10.19714 -10.19282 -10.19204
 Alpha  occ. eigenvalues --  -10.18883 -10.18808 -10.18560  -1.11666  -1.10320
 Alpha  occ. eigenvalues --   -1.02048  -1.01996  -1.00970  -0.99800  -0.97166
 Alpha  occ. eigenvalues --   -0.96595  -0.93485  -0.91903  -0.84324  -0.82830
 Alpha  occ. eigenvalues --   -0.82627  -0.81886  -0.79965  -0.79718  -0.79160
 Alpha  occ. eigenvalues --   -0.77794  -0.76386  -0.75434  -0.73483  -0.72704
 Alpha  occ. eigenvalues --   -0.72268  -0.71500  -0.70046  -0.68272  -0.68184
 Alpha  occ. eigenvalues --   -0.67762  -0.66401  -0.63806  -0.61251  -0.60982
 Alpha  occ. eigenvalues --   -0.60347  -0.59277  -0.58245  -0.57788  -0.56389
 Alpha  occ. eigenvalues --   -0.55692  -0.54902  -0.54672  -0.54266  -0.53330
 Alpha  occ. eigenvalues --   -0.51891  -0.51603  -0.50849  -0.50762  -0.50542
 Alpha  occ. eigenvalues --   -0.50151  -0.49211  -0.48899  -0.48615  -0.48219
 Alpha  occ. eigenvalues --   -0.47705  -0.47398  -0.47005  -0.46461  -0.46046
 Alpha  occ. eigenvalues --   -0.45224  -0.45156  -0.44903  -0.44652  -0.44185
 Alpha  occ. eigenvalues --   -0.43658  -0.43463  -0.43290  -0.43270  -0.42567
 Alpha  occ. eigenvalues --   -0.42321  -0.42280  -0.41937  -0.41662  -0.41183
 Alpha  occ. eigenvalues --   -0.40992  -0.40381  -0.40110  -0.39742  -0.39471
 Alpha  occ. eigenvalues --   -0.39155  -0.38959  -0.38577  -0.38399  -0.38103
 Alpha  occ. eigenvalues --   -0.37635  -0.37549  -0.37065  -0.36854  -0.36025
 Alpha  occ. eigenvalues --   -0.35540  -0.34784  -0.34680  -0.34627  -0.34525
 Alpha  occ. eigenvalues --   -0.34059  -0.32987  -0.32832  -0.31901  -0.31778
 Alpha  occ. eigenvalues --   -0.31145  -0.30134  -0.30052  -0.28933  -0.27863
 Alpha  occ. eigenvalues --   -0.26788  -0.26710  -0.25698  -0.25576  -0.25017
 Alpha  occ. eigenvalues --   -0.24599  -0.23408  -0.23062  -0.21871  -0.19061
 Alpha virt. eigenvalues --   -0.10689  -0.06344  -0.06116  -0.01509  -0.00807
 Alpha virt. eigenvalues --   -0.00531   0.00781   0.01337   0.01840   0.02341
 Alpha virt. eigenvalues --    0.03108   0.03219   0.03546   0.04317   0.04670

 Mulliken charges:
               1
     1  O   -0.287731
     2  O   -0.082119
     3  O   -0.313362
     4  O   -0.236242
     5  O   -0.229238
     6  O   -0.200684
     7  N    0.018785
     8  N   -0.283052
     9  N   -0.155860
    10  N   -0.282226
    11  C    0.084586
    12  C    0.203212
    13  C   -0.127924
    14  C   -0.181821
    15  C   -0.057239
    16  C    0.028604
    17  C   -0.175973
    18  C    0.090581
    19  C   -0.066053
    20  C   -0.124146
    21  C    0.124707
    22  C    0.193373
    23  C    0.042150
    24  C    0.061072
    25  C    0.076981
    26  C   -0.124552
    27  C    0.004235
    28  C    0.080492
    29  C   -0.043974
    30  C   -0.008114
    31  C    0.021882
    32  C    0.105101
    33  C   -0.161989
    34  C    0.133589
    35  C    0.060421
    36  C    0.045260
    37  C    0.131976
    38  C    0.060429
    39  C   -0.187917
    40  C    0.137109
    41  C   -0.024375
    42  C   -0.002218
    43  C   -0.054644
    44  H    0.053893
    45  H   -0.007175
    46  H   -0.008807
    47  H    0.127573
    48  H    0.165402
    49  H    0.035284
    50  H   -0.011439
    51  H    0.002843
    52  H   -0.000528
    53  H    0.044560
    54  H    0.076352
    55  H    0.010553
    56  H    0.063662
    57  H    0.055677
    58  H   -0.032721
    59  H    0.044263
    60  H    0.190841
    61  H    0.032384
    62  H    0.035976
    63  H    0.042001
    64  H    0.038583
    65  H    0.072781
    66  H   -0.033108
    67  H    0.062766
    68  H    0.046258
    69  H    0.025767
    70  H    0.022498
    71  H   -0.017441
    72  H    0.179998
    73  H    0.019787
    74  H    0.039255
    75  H    0.035438
    76  H    0.025250
    77  H    0.206461
    78  H    0.015672
    79  H    0.046349
 Sum of Mulliken charges =   0.00000

 Dipole moment (field-independent basis, Debye):
    X=              1.8753    Y=              3.1209    Z=              2.9605  Tot=              4.6927
 Quadrupole moment (field-independent basis, Debye-Ang):
   XX=           -222.2111   YY=           -243.8876   ZZ=           -269.2606
   XY=            -11.3201   XZ=             35.0504   YZ=             -2.1363

 Normal termination of Gaussian 09 at Tue Jul  9 04:31:48 2019.
