 Gaussian 09, Revision D.01,
 Gaussian 09:  ES64L-G09RevD.01 24-Apr-2013

 --------------------------
 # td=(NStates=1) B3LYP/SVP
 --------------------------

 --
 TD
 --
 Symbolic Z-matrix:
 Charge =  0 Multiplicity = 1

                         Standard orientation:
 ---------------------------------------------------------------------
 Center     Atomic      Atomic             Coordinates (Angstroms)
 Number     Number       Type             X           Y           Z
 ---------------------------------------------------------------------
      1          8           0        5.186063   -0.017697   -3.317166
      2          8           0       -2.987819   -2.992910    3.257683
      3          8           0       -3.191627   -0.816419    3.273607
      4          8           0       -1.363997    7.269222    1.619017
      5          8           0       -0.515250    7.138174   -0.456873
      6          8           0       -2.161800   -4.048387    0.017471
      7          7           0        2.405392    0.790567    0.612246
      8          7           0        4.345612   -0.713572   -1.316838
      9          7           0       -1.838046    0.669647   -0.343045
     10          7           0       -2.707306   -1.845032   -0.476940
     11          6           0        4.766690   -1.363056   -0.055058
     12          6           0        4.430265   -0.613212    1.226826
     13          6           0        2.989095   -0.225114    1.288815
     14          6           0        2.048034   -0.823036    2.084917
     15          6           0        0.855112   -0.197251    1.856869
     16          6           0        1.038053    0.804280    0.859999
     17          6           0        6.361554   -1.490653   -0.226625
     18          6           0       -0.507375   -0.339066    2.518909
     19          6           0        6.645572   -0.892277   -1.456097
     20          6           0        0.271363    1.784951    0.256921
     21          6           0       -0.950221    1.702848   -0.287864
     22          6           0        5.399913   -0.514078   -2.188786
     23          6           0       -1.781658    2.924386   -0.706089
     24          6           0        2.238130   -1.866162    3.170372
     25          6           0        7.209314   -2.050245    0.787215
     26          6           0       -3.042585    2.393776   -1.199710
     27          6           0       -1.093876   -1.775006    2.517937
     28          6           0       -2.949269    1.005366   -1.035709
     29          6           0       -1.428424    4.361894   -0.852402
     30          6           0        7.841157   -0.582290   -2.095906
     31          6           0       -1.590382    5.137475    0.602533
     32          6           0       -4.232803    3.133133   -1.668880
     33          6           0       -3.859202    0.049111   -1.400626
     34          6           0       -2.531294   -1.773507    3.023235
     35          6           0       -3.786709   -1.366300   -1.152793
     36          6           0        9.152177   -0.656688   -1.607605
     37          6           0       -1.136340    6.561858    0.401723
     38          6           0       -4.799182   -2.398379   -1.551470
     39          6           0       -4.242875   -3.571520   -1.088544
     40          6           0       -2.843783   -3.237860   -0.402277
     41          6           0       -6.124031   -2.136032   -2.162129
     42          6           0       -4.687700   -4.997213   -1.340617
     43          6           0       -6.924101   -2.968589   -2.816410
     44          1           0        4.220231   -2.502195   -0.089360
     45          1           0        5.007921    0.342487    1.125075
     46          1           0        4.718683   -0.933627    2.125603
     47          1           0        2.901633    1.216139   -0.162732
     48          1           0        3.371886   -0.879203   -1.690603
     49          1           0       -0.478301    0.260995    3.538441
     50          1           0       -1.178838    0.245220    1.736901
     51          1           0        0.721300    2.844770    0.056753
     52          1           0        3.352286   -2.210362    3.240131
     53          1           0        1.770206   -1.693043    4.259482
     54          1           0        1.707817   -2.921785    2.691528
     55          1           0        6.755084   -2.812518    1.492731
     56          1           0        7.724006   -1.199083    1.393573
     57          1           0        8.144392   -2.606062    0.406143
     58          1           0       -1.044709   -2.190668    1.456987
     59          1           0       -0.375277   -2.302977    3.253876
     60          1           0       -1.679504   -0.305070    0.018440
     61          1           0       -2.193713    4.707251   -1.521003
     62          1           0       -0.383083    4.681755   -1.298280
     63          1           0        7.765938   -0.218481   -3.137649
     64          1           0       -0.776865    4.672322    1.337980
     65          1           0       -2.659992    5.140674    0.875556
     66          1           0       -4.001651    4.180763   -1.757431
     67          1           0       -5.244154    3.254644   -1.094086
     68          1           0       -4.285920    2.720019   -2.734175
     69          1           0       -4.659329    0.489162   -1.885066
     70          1           0        9.398453   -1.263259   -0.508529
     71          1           0       10.075410   -0.621619   -2.353421
     72          1           0       -3.868686   -3.167305    3.594294
     73          1           0       -6.505455   -0.966420   -1.866981
     74          1           0       -4.502971   -5.551156   -2.331307
     75          1           0       -4.079603   -5.548908   -0.459611
     76          1           0       -5.746534   -5.195778   -1.039762
     77          1           0       -1.055383    8.068853    1.349659
     78          1           0       -7.897037   -2.601279   -3.319640
     79          1           0       -6.590077   -3.830651   -2.985440
 ---------------------------------------------------------------------

 SCF Done:  E(RB3LYP) =  -1947.84232492     A.U. after   16 cycles

 Excitation energies and oscillator strengths:

 Excited State   1:      Singlet-A      2.1839 eV  567.71 nm  f=0.4870  <S**2>=0.000
     155 ->156         0.70032
     155 <-156        -0.10833
 This state for optimization and/or second-order correction.
 Total Energy, E(TD-HF/TD-KS) =  -1947.76206649
 Copying the excited state density for this state as the 1-particle RhoCI density.

 The electronic state is 1-A.
 Alpha  occ. eigenvalues --  -19.16649 -19.15889 -19.14888 -19.11339 -19.10487
 Alpha  occ. eigenvalues --  -19.10356 -14.38290 -14.36374 -14.35910 -14.29100
 Alpha  occ. eigenvalues --  -10.33276 -10.30301 -10.29273 -10.27387 -10.26624
 Alpha  occ. eigenvalues --  -10.24105 -10.24023 -10.23916 -10.23817 -10.23616
 Alpha  occ. eigenvalues --  -10.23081 -10.22707 -10.22622 -10.22595 -10.22446
 Alpha  occ. eigenvalues --  -10.22333 -10.22247 -10.21490 -10.21464 -10.21458
 Alpha  occ. eigenvalues --  -10.21400 -10.21386 -10.21078 -10.20861 -10.20093
 Alpha  occ. eigenvalues --  -10.20075 -10.19827 -10.19752 -10.19691 -10.18798
 Alpha  occ. eigenvalues --  -10.18457 -10.18270 -10.17830  -1.10134  -1.08609
 Alpha  occ. eigenvalues --   -1.06224  -1.01604  -1.01288  -0.99400  -0.99226
 Alpha  occ. eigenvalues --   -0.98527  -0.93155  -0.91198  -0.83065  -0.82709
 Alpha  occ. eigenvalues --   -0.82268  -0.81547  -0.80412  -0.79679  -0.78075
 Alpha  occ. eigenvalues --   -0.77125  -0.75828  -0.75781  -0.74370  -0.72431
 Alpha  occ. eigenvalues --   -0.71439  -0.70908  -0.69588  -0.68830  -0.68250
 Alpha  occ. eigenvalues --   -0.67082  -0.65983  -0.63446  -0.61236  -0.60953
 Alpha  occ. eigenvalues --   -0.59643  -0.58929  -0.58412  -0.58034  -0.57380
 Alpha  occ. eigenvalues --   -0.55995  -0.55210  -0.54675  -0.53496  -0.52563
 Alpha  occ. eigenvalues --   -0.52052  -0.51201  -0.50328  -0.50195  -0.49691
 Alpha  occ. eigenvalues --   -0.49054  -0.48777  -0.48653  -0.48232  -0.47528
 Alpha  occ. eigenvalues --   -0.47203  -0.46885  -0.46611  -0.45898  -0.45516
 Alpha  occ. eigenvalues --   -0.45302  -0.45049  -0.44939  -0.44110  -0.43877
 Alpha  occ. eigenvalues --   -0.43745  -0.43544  -0.43183  -0.42899  -0.42431
 Alpha  occ. eigenvalues --   -0.42209  -0.41968  -0.41758  -0.41641  -0.41383
 Alpha  occ. eigenvalues --   -0.40892  -0.40400  -0.40251  -0.39941  -0.39734
 Alpha  occ. eigenvalues --   -0.39421  -0.39203  -0.38427  -0.38303  -0.38107
 Alpha  occ. eigenvalues --   -0.37880  -0.37539  -0.37040  -0.36781  -0.36621
 Alpha  occ. eigenvalues --   -0.36282  -0.36093  -0.35364  -0.35145  -0.34433
 Alpha  occ. eigenvalues --   -0.33373  -0.33208  -0.32836  -0.32419  -0.31473
 Alpha  occ. eigenvalues --   -0.30890  -0.30753  -0.29818  -0.29174  -0.28687
 Alpha  occ. eigenvalues --   -0.26773  -0.26253  -0.26110  -0.25310  -0.24985
 Alpha  occ. eigenvalues --   -0.24112  -0.23854  -0.23395  -0.22338  -0.18933
 Alpha virt. eigenvalues --   -0.10420  -0.08038  -0.05772  -0.02061  -0.00532
 Alpha virt. eigenvalues --   -0.00434   0.00400   0.02242   0.02696   0.02744
 Alpha virt. eigenvalues --    0.03512   0.04048   0.04455   0.05016   0.05035

 Mulliken charges:
               1
     1  O   -0.250675
     2  O   -0.174195
     3  O   -0.207447
     4  O   -0.191782
     5  O   -0.210498
     6  O   -0.109011
     7  N   -0.040393
     8  N   -0.211852
     9  N   -0.073672
    10  N   -0.322860
    11  C    0.000595
    12  C    0.307060
    13  C   -0.161591
    14  C   -0.083536
    15  C   -0.074017
    16  C    0.092558
    17  C   -0.108166
    18  C    0.009268
    19  C   -0.012560
    20  C   -0.160912
    21  C    0.105725
    22  C    0.170065
    23  C   -0.069419
    24  C   -0.039242
    25  C    0.002680
    26  C   -0.115722
    27  C   -0.052117
    28  C    0.109503
    29  C    0.004422
    30  C   -0.032691
    31  C   -0.016921
    32  C    0.066329
    33  C   -0.092100
    34  C    0.133306
    35  C    0.112223
    36  C   -0.121095
    37  C    0.138317
    38  C    0.069386
    39  C   -0.231824
    40  C    0.149461
    41  C   -0.074897
    42  C   -0.004855
    43  C    0.055937
    44  H    0.046859
    45  H   -0.014985
    46  H   -0.041153
    47  H    0.115542
    48  H    0.155861
    49  H    0.041009
    50  H    0.020069
    51  H    0.012851
    52  H    0.012469
    53  H    0.066209
    54  H    0.057644
    55  H    0.039386
    56  H    0.059109
    57  H    0.052998
    58  H    0.085851
    59  H    0.039234
    60  H    0.164555
    61  H    0.010201
    62  H    0.062370
    63  H    0.025747
    64  H    0.093492
    65  H    0.058986
    66  H   -0.016628
    67  H    0.062624
    68  H    0.048870
    69  H   -0.082038
    70  H    0.037105
    71  H    0.059562
    72  H    0.178826
    73  H    0.032778
    74  H    0.061793
    75  H    0.037564
    76  H    0.024146
    77  H    0.125109
    78  H    0.043894
    79  H   -0.060692
 Sum of Mulliken charges =   0.00000

 Dipole moment (field-independent basis, Debye):
    X=              1.5392    Y=              0.3206    Z=              2.6893  Tot=              3.1151
 Quadrupole moment (field-independent basis, Debye-Ang):
   XX=           -218.4792   YY=           -252.5207   ZZ=           -264.4994
   XY=            -17.1634   XZ=             31.3136   YZ=             -2.3438

 Normal termination of Gaussian 09 at Sun Jul  7 15:56:17 2019.
