 Gaussian 09, Revision D.01,
 Gaussian 09:  ES64L-G09RevD.01 24-Apr-2013

 --------------------------
 # td=(NStates=1) B3LYP/SVP
 --------------------------

 --
 TD
 --
 Symbolic Z-matrix:
 Charge =  0 Multiplicity = 1

                         Standard orientation:
 ---------------------------------------------------------------------
 Center     Atomic      Atomic             Coordinates (Angstroms)
 Number     Number       Type             X           Y           Z
 ---------------------------------------------------------------------
      1          8           0        5.508680   -0.147145   -3.342391
      2          8           0       -2.800319   -3.199693    3.316101
      3          8           0       -3.104949   -0.930053    3.300491
      4          8           0       -1.441878    7.296552    1.479461
      5          8           0       -0.318803    7.004033   -0.475877
      6          8           0       -2.278310   -3.970904   -0.045549
      7          7           0        2.408799    0.870181    0.546713
      8          7           0        4.481005   -0.698332   -1.236791
      9          7           0       -1.961760    0.707521   -0.361624
     10          7           0       -2.732987   -1.868360   -0.760024
     11          6           0        4.878240   -1.347794    0.033076
     12          6           0        4.465133   -0.442365    1.089866
     13          6           0        2.996497   -0.161971    1.285636
     14          6           0        2.051661   -0.786820    2.037567
     15          6           0        0.782862   -0.197132    1.723334
     16          6           0        1.026454    0.866671    0.772164
     17          6           0        6.388149   -1.447163   -0.207211
     18          6           0       -0.536072   -0.402632    2.468421
     19          6           0        6.772595   -0.996578   -1.451133
     20          6           0        0.270253    1.852636    0.062359
     21          6           0       -1.100250    1.861983   -0.275866
     22          6           0        5.525355   -0.618332   -2.185782
     23          6           0       -1.851766    2.972227   -0.720126
     24          6           0        2.312120   -1.820588    3.099787
     25          6           0        7.385376   -1.963266    0.859684
     26          6           0       -3.174113    2.519796   -1.034187
     27          6           0       -1.043238   -1.823476    2.352187
     28          6           0       -3.113892    1.063059   -0.870191
     29          6           0       -1.447492    4.366076   -0.760702
     30          6           0        8.026445   -0.775682   -2.046936
     31          6           0       -1.565570    5.167926    0.535192
     32          6           0       -4.429087    3.266265   -1.582108
     33          6           0       -4.089838    0.104730   -1.223967
     34          6           0       -2.443733   -1.890525    3.045553
     35          6           0       -3.863334   -1.333662   -1.193858
     36          6           0        9.252717   -0.838370   -1.558559
     37          6           0       -0.999211    6.582645    0.366590
     38          6           0       -4.952214   -2.386572   -1.437256
     39          6           0       -4.430886   -3.605625   -1.151294
     40          6           0       -3.028499   -3.165569   -0.495311
     41          6           0       -6.264220   -2.134234   -2.022495
     42          6           0       -4.746369   -5.078845   -1.167134
     43          6           0       -7.018006   -3.035036   -2.837705
     44          1           0        4.558344   -2.319863    0.308699
     45          1           0        5.216589    0.490754    1.211999
     46          1           0        4.795155   -1.025087    2.126372
     47          1           0        2.716191    1.135534   -0.640619
     48          1           0        3.483810   -0.617886   -1.360360
     49          1           0       -0.451767   -0.215820    3.608378
     50          1           0       -1.305147    0.316163    2.077999
     51          1           0        0.662224    2.874035    0.157032
     52          1           0        3.435343   -1.781531    3.149195
     53          1           0        1.710217   -1.412221    4.092699
     54          1           0        1.929241   -2.796502    2.754672
     55          1           0        6.920683   -2.587541    1.710316
     56          1           0        7.685526   -0.997588    1.500336
     57          1           0        8.111715   -2.417458    0.320920
     58          1           0       -1.200915   -2.226613    1.367970
     59          1           0       -0.549172   -2.774650    2.690152
     60          1           0       -1.681271   -0.286986   -0.177309
     61          1           0       -2.028319    4.960094   -1.622838
     62          1           0       -0.420179    4.330101   -1.041624
     63          1           0        8.051867   -0.268006   -3.214587
     64          1           0       -1.053830    4.622561    1.426461
     65          1           0       -2.750401    5.340199    0.777897
     66          1           0       -4.128396    4.402751   -1.120447
     67          1           0       -5.359608    3.159878   -0.837683
     68          1           0       -4.648445    3.049068   -2.569124
     69          1           0       -4.920890    0.478838   -1.785550
     70          1           0        9.579210   -1.018707   -0.514228
     71          1           0       10.335018   -0.903111   -2.028802
     72          1           0       -3.819948   -3.147974    3.542970
     73          1           0       -6.822315   -1.160433   -1.557677
     74          1           0       -4.649428   -5.543236   -2.204965
     75          1           0       -4.127796   -5.643079   -0.610289
     76          1           0       -5.958657   -5.273032   -1.017848
     77          1           0       -0.837658    8.154894    1.566064
     78          1           0       -8.009522   -2.702997   -2.996884
     79          1           0       -6.564651   -3.924584   -3.322681
 ---------------------------------------------------------------------

 SCF Done:  E(RB3LYP) =  -1947.82385325     A.U. after   16 cycles

 Excitation energies and oscillator strengths:

 Excited State   1:      Singlet-A      2.2150 eV  559.76 nm  f=0.4872  <S**2>=0.000
     154 ->156        -0.17206
     155 ->156         0.68185
     155 <-156        -0.11328
 This state for optimization and/or second-order correction.
 Total Energy, E(TD-HF/TD-KS) =  -1947.74245483
 Copying the excited state density for this state as the 1-particle RhoCI density.

 The electronic state is 1-A.
 Alpha  occ. eigenvalues --  -19.18407 -19.17316 -19.14901 -19.12230 -19.10643
 Alpha  occ. eigenvalues --  -19.10184 -14.39248 -14.36995 -14.36288 -14.29420
 Alpha  occ. eigenvalues --  -10.32968 -10.30837 -10.29608 -10.26132 -10.25186
 Alpha  occ. eigenvalues --  -10.25037 -10.24580 -10.24236 -10.23686 -10.23532
 Alpha  occ. eigenvalues --  -10.23470 -10.23411 -10.23076 -10.22873 -10.22571
 Alpha  occ. eigenvalues --  -10.21978 -10.21888 -10.21839 -10.21595 -10.21494
 Alpha  occ. eigenvalues --  -10.21418 -10.21296 -10.20816 -10.20650 -10.20638
 Alpha  occ. eigenvalues --  -10.20424 -10.20102 -10.20044 -10.19951 -10.19914
 Alpha  occ. eigenvalues --  -10.19910 -10.19055 -10.18771  -1.10549  -1.07483
 Alpha  occ. eigenvalues --   -1.03040  -1.01659  -1.01109  -0.99507  -0.98886
 Alpha  occ. eigenvalues --   -0.97310  -0.94098  -0.92744  -0.83828  -0.82544
 Alpha  occ. eigenvalues --   -0.81701  -0.80841  -0.79665  -0.79543  -0.77693
 Alpha  occ. eigenvalues --   -0.77340  -0.75861  -0.75165  -0.73663  -0.72240
 Alpha  occ. eigenvalues --   -0.71657  -0.70905  -0.69331  -0.68923  -0.68308
 Alpha  occ. eigenvalues --   -0.65928  -0.65801  -0.63126  -0.62092  -0.60042
 Alpha  occ. eigenvalues --   -0.59048  -0.58677  -0.57902  -0.57234  -0.56524
 Alpha  occ. eigenvalues --   -0.55527  -0.55001  -0.54257  -0.53735  -0.52851
 Alpha  occ. eigenvalues --   -0.52495  -0.51299  -0.51060  -0.50471  -0.50094
 Alpha  occ. eigenvalues --   -0.49127  -0.48813  -0.48705  -0.48040  -0.47368
 Alpha  occ. eigenvalues --   -0.47258  -0.46871  -0.46675  -0.46299  -0.45921
 Alpha  occ. eigenvalues --   -0.45428  -0.44899  -0.44342  -0.44080  -0.43696
 Alpha  occ. eigenvalues --   -0.43539  -0.43400  -0.42746  -0.42615  -0.42393
 Alpha  occ. eigenvalues --   -0.42274  -0.41825  -0.41383  -0.41293  -0.40828
 Alpha  occ. eigenvalues --   -0.40532  -0.40501  -0.40414  -0.40142  -0.39785
 Alpha  occ. eigenvalues --   -0.39711  -0.39506  -0.39372  -0.38801  -0.38592
 Alpha  occ. eigenvalues --   -0.37925  -0.37777  -0.37457  -0.37310  -0.36288
 Alpha  occ. eigenvalues --   -0.35710  -0.35414  -0.35262  -0.35145  -0.34215
 Alpha  occ. eigenvalues --   -0.33582  -0.33513  -0.33455  -0.32833  -0.31585
 Alpha  occ. eigenvalues --   -0.31389  -0.30561  -0.29951  -0.28534  -0.27967
 Alpha  occ. eigenvalues --   -0.27437  -0.27211  -0.26121  -0.26006  -0.25525
 Alpha  occ. eigenvalues --   -0.24297  -0.23916  -0.23736  -0.22205  -0.19497
 Alpha virt. eigenvalues --   -0.10961  -0.06638  -0.06271  -0.02940  -0.01613
 Alpha virt. eigenvalues --   -0.00692   0.00048   0.01248   0.01493   0.01808
 Alpha virt. eigenvalues --    0.02155   0.03154   0.03655   0.04428   0.04636

 Mulliken charges:
               1
     1  O   -0.243959
     2  O   -0.240421
     3  O   -0.210388
     4  O   -0.269497
     5  O   -0.150338
     6  O   -0.185626
     7  N   -0.198066
     8  N   -0.247146
     9  N   -0.080224
    10  N   -0.224222
    11  C    0.213438
    12  C    0.020505
    13  C   -0.049771
    14  C   -0.122644
    15  C   -0.077111
    16  C    0.070134
    17  C   -0.212410
    18  C    0.084700
    19  C    0.005324
    20  C   -0.087405
    21  C    0.070934
    22  C    0.208414
    23  C   -0.063409
    24  C    0.078403
    25  C    0.075423
    26  C   -0.134503
    27  C   -0.032111
    28  C    0.087381
    29  C    0.061656
    30  C   -0.019452
    31  C   -0.080725
    32  C    0.042172
    33  C   -0.090117
    34  C    0.130914
    35  C    0.072354
    36  C   -0.133516
    37  C    0.150290
    38  C   -0.006163
    39  C   -0.152843
    40  C    0.087693
    41  C   -0.102466
    42  C    0.095794
    43  C   -0.013295
    44  H    0.001605
    45  H    0.036055
    46  H    0.005664
    47  H    0.199641
    48  H    0.118962
    49  H    0.027909
    50  H    0.032543
    51  H    0.017725
    52  H    0.006145
    53  H    0.053737
    54  H    0.050238
    55  H    0.025827
    56  H    0.053642
    57  H    0.031277
    58  H    0.033596
    59  H    0.023302
    60  H    0.164506
    61  H    0.043244
    62  H    0.004480
    63  H    0.069822
    64  H    0.068756
    65  H    0.066143
    66  H    0.036645
    67  H    0.050447
    68  H    0.049641
    69  H   -0.032983
    70  H    0.007208
    71  H    0.043939
    72  H    0.206625
    73  H    0.038502
    74  H    0.031018
    75  H    0.000141
    76  H    0.035599
    77  H    0.212618
    78  H    0.018440
    79  H    0.039640
 Sum of Mulliken charges =   0.00000

 Dipole moment (field-independent basis, Debye):
    X=              0.6601    Y=              2.0698    Z=              3.6057  Tot=              4.2096
 Quadrupole moment (field-independent basis, Debye-Ang):
   XX=           -227.0237   YY=           -243.7863   ZZ=           -268.5503
   XY=            -11.9486   XZ=             32.5452   YZ=              5.1996

 Normal termination of Gaussian 09 at Sun Jul  7 23:56:33 2019.
