 Gaussian 09, Revision D.01,
 Gaussian 09:  ES64L-G09RevD.01 24-Apr-2013

 --------------------------
 # td=(NStates=1) B3LYP/SVP
 --------------------------

 --
 TD
 --
 Symbolic Z-matrix:
 Charge =  0 Multiplicity = 1

                         Standard orientation:
 ---------------------------------------------------------------------
 Center     Atomic      Atomic             Coordinates (Angstroms)
 Number     Number       Type             X           Y           Z
 ---------------------------------------------------------------------
      1          8           0        5.410303   -0.044184   -3.370792
      2          8           0       -2.752247   -3.213214    3.336720
      3          8           0       -3.247326   -0.999694    3.258533
      4          8           0       -1.568243    7.202983    1.632552
      5          8           0       -0.735069    7.087571   -0.549558
      6          8           0       -2.007960   -4.034255   -0.095218
      7          7           0        2.327227    0.813655    0.729611
      8          7           0        4.344261   -0.453063   -1.323895
      9          7           0       -1.908480    0.602602   -0.330771
     10          7           0       -2.725594   -1.947710   -0.496948
     11          6           0        4.826993   -1.153785   -0.056429
     12          6           0        4.464830   -0.351034    1.211654
     13          6           0        2.960851   -0.142569    1.319633
     14          6           0        1.976548   -0.842008    2.096322
     15          6           0        0.766769   -0.154228    1.887745
     16          6           0        0.979072    0.859934    0.941339
     17          6           0        6.331003   -1.371688   -0.255391
     18          6           0       -0.526158   -0.383386    2.593762
     19          6           0        6.705499   -0.903152   -1.426977
     20          6           0        0.124147    1.862272    0.299564
     21          6           0       -1.139233    1.814065   -0.185672
     22          6           0        5.444481   -0.394962   -2.205943
     23          6           0       -1.898044    2.937353   -0.708416
     24          6           0        2.138678   -1.728966    3.305892
     25          6           0        7.228558   -1.949882    0.870526
     26          6           0       -3.042335    2.396833   -1.281994
     27          6           0       -1.079679   -1.839518    2.524037
     28          6           0       -3.037557    1.041576   -0.971513
     29          6           0       -1.356798    4.415498   -0.782626
     30          6           0        8.059197   -0.785154   -2.218338
     31          6           0       -1.575111    5.055076    0.589936
     32          6           0       -4.213315    3.067673   -1.895200
     33          6           0       -3.915115    0.021128   -1.385392
     34          6           0       -2.501241   -1.863064    3.056360
     35          6           0       -3.759437   -1.340932   -1.057055
     36          6           0        9.236790   -0.780506   -1.638883
     37          6           0       -1.325046    6.574949    0.436990
     38          6           0       -4.737303   -2.417086   -1.466316
     39          6           0       -4.142292   -3.617662   -1.152119
     40          6           0       -2.881001   -3.255649   -0.477231
     41          6           0       -6.013037   -2.227960   -2.215895
     42          6           0       -4.647532   -4.977293   -1.321696
     43          6           0       -6.734880   -3.004586   -2.991619
     44          1           0        4.247176   -2.000739    0.100484
     45          1           0        4.959091    0.584470    1.145132
     46          1           0        4.770952   -0.964726    2.017326
     47          1           0        2.637378    1.468000    0.051648
     48          1           0        3.421305   -0.358012   -1.724053
     49          1           0       -0.330968   -0.408431    3.563537
     50          1           0       -1.224631    0.387605    2.103232
     51          1           0        0.605544    2.743199    0.020510
     52          1           0        3.264389   -1.698127    3.781727
     53          1           0        1.370921   -1.573016    4.190181
     54          1           0        2.054081   -2.843786    2.785152
     55          1           0        6.607980   -2.585715    1.404296
     56          1           0        7.677463   -1.134501    1.386128
     57          1           0        8.050081   -2.531933    0.393286
     58          1           0       -1.159248   -2.340802    1.556586
     59          1           0       -0.446528   -2.336182    3.309208
     60          1           0       -1.715255   -0.304532   -0.130827
     61          1           0       -1.698944    4.991166   -1.473628
     62          1           0       -0.373557    4.545917   -0.941443
     63          1           0        7.844345   -0.687620   -3.346207
     64          1           0       -0.724511    4.767313    1.138143
     65          1           0       -2.756847    4.724868    0.920051
     66          1           0       -4.151634    4.203805   -1.999759
     67          1           0       -5.109188    3.112154   -1.472968
     68          1           0       -4.462117    2.378243   -2.657207
     69          1           0       -4.817299    0.330738   -1.929598
     70          1           0        9.269735   -0.739036   -0.447692
     71          1           0       10.182444   -0.788039   -2.102044
     72          1           0       -3.732620   -3.248348    3.574367
     73          1           0       -6.334072   -1.197372   -2.251033
     74          1           0       -4.552913   -5.395809   -2.368183
     75          1           0       -3.922883   -5.724018   -0.927640
     76          1           0       -5.669932   -5.267810   -0.904504
     77          1           0       -1.177610    8.068515    1.467231
     78          1           0       -7.571261   -2.661062   -3.462521
     79          1           0       -6.398242   -3.986154   -3.147141
 ---------------------------------------------------------------------

 SCF Done:  E(RB3LYP) =  -1947.85754920     A.U. after   19 cycles

 Excitation energies and oscillator strengths:

 Excited State   1:      Singlet-A      2.1581 eV  574.49 nm  f=0.4441  <S**2>=0.000
     154 ->156         0.17709
     155 ->156         0.68195
     155 <-156        -0.11429
 This state for optimization and/or second-order correction.
 Total Energy, E(TD-HF/TD-KS) =  -1947.77823888
 Copying the excited state density for this state as the 1-particle RhoCI density.

 The electronic state is 1-A.
 Alpha  occ. eigenvalues --  -19.20581 -19.15226 -19.15219 -19.12130 -19.10592
 Alpha  occ. eigenvalues --  -19.08860 -14.39322 -14.36414 -14.35764 -14.27818
 Alpha  occ. eigenvalues --  -10.34518 -10.29788 -10.28952 -10.25320 -10.24874
 Alpha  occ. eigenvalues --  -10.24720 -10.24665 -10.23926 -10.23282 -10.23178
 Alpha  occ. eigenvalues --  -10.22924 -10.22808 -10.22717 -10.22260 -10.22236
 Alpha  occ. eigenvalues --  -10.21761 -10.21593 -10.21350 -10.20936 -10.20834
 Alpha  occ. eigenvalues --  -10.20173 -10.19831 -10.19797 -10.19411 -10.19167
 Alpha  occ. eigenvalues --  -10.19054 -10.19000 -10.18739 -10.18423 -10.18402
 Alpha  occ. eigenvalues --  -10.18218 -10.18117 -10.17327  -1.10609  -1.08078
 Alpha  occ. eigenvalues --   -1.02390  -1.01914  -1.01269  -1.00417  -0.99200
 Alpha  occ. eigenvalues --   -0.98501  -0.92646  -0.92326  -0.84153  -0.82812
 Alpha  occ. eigenvalues --   -0.82171  -0.81843  -0.80848  -0.79804  -0.79464
 Alpha  occ. eigenvalues --   -0.77268  -0.76367  -0.76021  -0.75007  -0.73827
 Alpha  occ. eigenvalues --   -0.72090  -0.71983  -0.70062  -0.69627  -0.68839
 Alpha  occ. eigenvalues --   -0.67023  -0.66202  -0.64631  -0.60798  -0.60659
 Alpha  occ. eigenvalues --   -0.59691  -0.59353  -0.58590  -0.58477  -0.57944
 Alpha  occ. eigenvalues --   -0.57329  -0.56594  -0.55312  -0.53622  -0.53222
 Alpha  occ. eigenvalues --   -0.52525  -0.52298  -0.51524  -0.50988  -0.50739
 Alpha  occ. eigenvalues --   -0.50310  -0.49682  -0.48853  -0.48525  -0.47970
 Alpha  occ. eigenvalues --   -0.47411  -0.47048  -0.46659  -0.46537  -0.46353
 Alpha  occ. eigenvalues --   -0.45667  -0.45509  -0.45173  -0.44734  -0.44343
 Alpha  occ. eigenvalues --   -0.44051  -0.43869  -0.43453  -0.43261  -0.43203
 Alpha  occ. eigenvalues --   -0.42960  -0.42524  -0.42098  -0.41970  -0.41179
 Alpha  occ. eigenvalues --   -0.40917  -0.40618  -0.40120  -0.39845  -0.39511
 Alpha  occ. eigenvalues --   -0.39241  -0.39152  -0.38916  -0.38715  -0.38622
 Alpha  occ. eigenvalues --   -0.38160  -0.38129  -0.37635  -0.36972  -0.36895
 Alpha  occ. eigenvalues --   -0.36766  -0.36673  -0.36242  -0.35347  -0.34506
 Alpha  occ. eigenvalues --   -0.34051  -0.33588  -0.33097  -0.32856  -0.31716
 Alpha  occ. eigenvalues --   -0.31271  -0.30915  -0.30149  -0.28827  -0.27118
 Alpha  occ. eigenvalues --   -0.26848  -0.26746  -0.26029  -0.25702  -0.25444
 Alpha  occ. eigenvalues --   -0.24664  -0.23701  -0.23403  -0.22048  -0.19336
 Alpha virt. eigenvalues --   -0.10991  -0.06172  -0.04574  -0.03252  -0.00012
 Alpha virt. eigenvalues --    0.01219   0.01400   0.02238   0.02628   0.03272
 Alpha virt. eigenvalues --    0.03467   0.04130   0.04687   0.04827   0.05786

 Mulliken charges:
               1
     1  O   -0.220685
     2  O   -0.249292
     3  O   -0.163902
     4  O   -0.169611
     5  O   -0.268184
     6  O   -0.219813
     7  N    0.064706
     8  N   -0.254020
     9  N   -0.054077
    10  N   -0.198741
    11  C    0.110415
    12  C    0.298426
    13  C   -0.168919
    14  C   -0.087691
    15  C   -0.115405
    16  C    0.000417
    17  C   -0.193479
    18  C    0.182408
    19  C   -0.082609
    20  C   -0.070434
    21  C    0.121032
    22  C    0.153196
    23  C   -0.079680
    24  C   -0.065603
    25  C    0.136935
    26  C   -0.111135
    27  C   -0.037970
    28  C    0.127733
    29  C    0.266173
    30  C    0.024306
    31  C   -0.054842
    32  C    0.135524
    33  C   -0.140739
    34  C    0.116153
    35  C    0.107877
    36  C   -0.040803
    37  C    0.161625
    38  C    0.032517
    39  C   -0.177848
    40  C    0.099180
    41  C   -0.035380
    42  C    0.055332
    43  C    0.049949
    44  H   -0.007022
    45  H   -0.025993
    46  H   -0.027969
    47  H    0.093475
    48  H    0.131647
    49  H   -0.062377
    50  H    0.030217
    51  H   -0.051723
    52  H    0.033502
    53  H    0.061810
    54  H    0.061594
    55  H    0.006849
    56  H    0.040352
    57  H    0.039093
    58  H    0.078544
    59  H    0.024442
    60  H    0.089629
    61  H   -0.053911
    62  H   -0.039166
    63  H    0.046457
    64  H    0.034796
    65  H    0.090364
    66  H    0.023963
    67  H   -0.014562
    68  H    0.017811
    69  H   -0.031760
    70  H    0.031883
    71  H    0.019452
    72  H    0.179536
    73  H   -0.032489
    74  H    0.023280
    75  H    0.006330
    76  H    0.042541
    77  H    0.174918
    78  H   -0.007604
    79  H   -0.010951
 Sum of Mulliken charges =   0.00000

 Dipole moment (field-independent basis, Debye):
    X=              1.7618    Y=              4.5359    Z=              3.1034  Tot=              5.7714
 Quadrupole moment (field-independent basis, Debye-Ang):
   XX=           -219.1849   YY=           -247.5439   ZZ=           -265.0976
   XY=            -14.5992   XZ=             32.6104   YZ=              6.1933

 Normal termination of Gaussian 09 at Sun Jul  7 18:55:26 2019.
