 Gaussian 09, Revision D.01,
 Gaussian 09:  ES64L-G09RevD.01 24-Apr-2013

 --------------------------
 # td=(NStates=1) B3LYP/SVP
 --------------------------

 --
 TD
 --
 Symbolic Z-matrix:
 Charge =  0 Multiplicity = 1

                         Standard orientation:
 ---------------------------------------------------------------------
 Center     Atomic      Atomic             Coordinates (Angstroms)
 Number     Number       Type             X           Y           Z
 ---------------------------------------------------------------------
      1          8           0        5.350601   -0.174393   -3.327909
      2          8           0       -2.787908   -3.082348    3.632376
      3          8           0       -3.118112   -0.872188    3.372569
      4          8           0       -1.703627    7.315564    1.490308
      5          8           0       -0.228321    6.920141   -0.254008
      6          8           0       -2.129420   -3.938187   -0.024679
      7          7           0        2.347784    0.737175    0.579387
      8          7           0        4.373504   -0.694643   -1.291790
      9          7           0       -1.944588    0.700887   -0.400349
     10          7           0       -2.817582   -1.858249   -0.538548
     11          6           0        4.814213   -1.280392   -0.009973
     12          6           0        4.442313   -0.371709    1.225224
     13          6           0        2.926302   -0.207333    1.262649
     14          6           0        1.932986   -0.759800    2.140656
     15          6           0        0.726512   -0.063106    1.732149
     16          6           0        1.006534    0.857838    0.741908
     17          6           0        6.410495   -1.439651   -0.192370
     18          6           0       -0.551063   -0.409894    2.548508
     19          6           0        6.668849   -0.822436   -1.439226
     20          6           0        0.244653    1.880130    0.154140
     21          6           0       -1.137624    1.791809   -0.251929
     22          6           0        5.461659   -0.512852   -2.141686
     23          6           0       -1.918747    2.902800   -0.825330
     24          6           0        2.204074   -1.735188    3.156899
     25          6           0        7.274947   -1.884657    0.898337
     26          6           0       -3.109758    2.425329   -1.328573
     27          6           0       -1.027353   -1.779451    2.594431
     28          6           0       -3.043971    1.025111   -1.042927
     29          6           0       -1.412808    4.275974   -0.773429
     30          6           0        8.017111   -0.762840   -2.225341
     31          6           0       -1.793740    5.126997    0.461446
     32          6           0       -4.122558    3.240562   -1.984312
     33          6           0       -3.964860   -0.006500   -1.409599
     34          6           0       -2.343957   -1.784880    3.273489
     35          6           0       -3.894955   -1.394597   -1.130359
     36          6           0        9.198717   -0.821812   -1.599302
     37          6           0       -1.105753    6.602593    0.479581
     38          6           0       -4.740063   -2.422839   -1.604426
     39          6           0       -4.169322   -3.587445   -1.211989
     40          6           0       -2.960526   -3.213689   -0.482209
     41          6           0       -6.018751   -2.183058   -2.317939
     42          6           0       -4.679258   -5.070310   -1.267861
     43          6           0       -6.940481   -3.197619   -2.665268
     44          1           0        4.433126   -2.213089    0.051502
     45          1           0        4.818743    0.802532    1.018394
     46          1           0        4.905175   -0.739084    2.105778
     47          1           0        2.757082    1.290605   -0.196077
     48          1           0        3.429942   -0.702684   -1.497318
     49          1           0       -0.250886    0.003609    3.502761
     50          1           0       -1.293489    0.260922    2.177493
     51          1           0        0.766286    2.901903   -0.018966
     52          1           0        3.257951   -2.034696    3.222862
     53          1           0        1.885114   -1.588526    4.168147
     54          1           0        1.625134   -2.731080    2.904450
     55          1           0        6.703648   -2.528957    1.450148
     56          1           0        7.939367   -1.058746    1.186293
     57          1           0        8.091695   -2.575378    0.540217
     58          1           0       -1.139633   -2.390704    1.604280
     59          1           0       -0.427553   -2.552816    3.237621
     60          1           0       -1.885914   -0.356434   -0.253742
     61          1           0       -1.817316    4.828049   -1.779886
     62          1           0       -0.325591    4.418486   -0.788064
     63          1           0        7.977831   -0.624387   -3.332598
     64          1           0       -1.236305    4.786492    1.347444
     65          1           0       -2.846540    5.384652    0.720561
     66          1           0       -3.905530    4.178834   -2.259101
     67          1           0       -5.052312    3.341185   -1.343636
     68          1           0       -4.434738    2.475630   -2.812785
     69          1           0       -4.939617    0.615243   -1.650398
     70          1           0        9.477168   -1.055289   -0.439097
     71          1           0       10.072962   -0.848505   -2.383842
     72          1           0       -3.621964   -2.891340    4.085708
     73          1           0       -6.134634   -1.165124   -2.563257
     74          1           0       -4.789104   -5.451552   -2.345053
     75          1           0       -3.914775   -5.686071   -0.860664
     76          1           0       -5.701019   -5.221081   -0.647018
     77          1           0       -1.055996    8.129610    1.619049
     78          1           0       -7.829773   -2.868400   -3.331481
     79          1           0       -6.680989   -4.181218   -2.582098
 ---------------------------------------------------------------------

 SCF Done:  E(RB3LYP) =  -1947.88911503     A.U. after   19 cycles

 Excitation energies and oscillator strengths:

 Excited State   1:      Singlet-A      2.0547 eV  603.41 nm  f=0.4864  <S**2>=0.000
     154 ->156         0.14299
     155 ->156         0.69098
     155 <-156        -0.12567
 This state for optimization and/or second-order correction.
 Total Energy, E(TD-HF/TD-KS) =  -1947.81360516
 Copying the excited state density for this state as the 1-particle RhoCI density.

 The electronic state is 1-A.
 Alpha  occ. eigenvalues --  -19.20242 -19.15239 -19.14747 -19.11695 -19.09547
 Alpha  occ. eigenvalues --  -19.09246 -14.38984 -14.36297 -14.35111 -14.27917
 Alpha  occ. eigenvalues --  -10.33298 -10.30322 -10.28244 -10.25149 -10.25008
 Alpha  occ. eigenvalues --  -10.24818 -10.24097 -10.23685 -10.23642 -10.23519
 Alpha  occ. eigenvalues --  -10.23469 -10.22685 -10.22386 -10.21940 -10.21881
 Alpha  occ. eigenvalues --  -10.21538 -10.21391 -10.21268 -10.21219 -10.20863
 Alpha  occ. eigenvalues --  -10.20521 -10.20347 -10.20260 -10.19836 -10.19803
 Alpha  occ. eigenvalues --  -10.19772 -10.19621 -10.19445 -10.19305 -10.19096
 Alpha  occ. eigenvalues --  -10.19056 -10.18941 -10.18513  -1.10081  -1.07029
 Alpha  occ. eigenvalues --   -1.02692  -1.02509  -1.01490  -1.01104  -0.99929
 Alpha  occ. eigenvalues --   -0.98267  -0.93617  -0.93210  -0.83189  -0.82197
 Alpha  occ. eigenvalues --   -0.82180  -0.81583  -0.79663  -0.79320  -0.77671
 Alpha  occ. eigenvalues --   -0.77539  -0.76874  -0.75443  -0.73662  -0.73118
 Alpha  occ. eigenvalues --   -0.72370  -0.71893  -0.70219  -0.68983  -0.68260
 Alpha  occ. eigenvalues --   -0.67085  -0.66283  -0.64229  -0.60707  -0.60293
 Alpha  occ. eigenvalues --   -0.59792  -0.58816  -0.58414  -0.57803  -0.57091
 Alpha  occ. eigenvalues --   -0.56026  -0.55642  -0.54733  -0.54041  -0.53398
 Alpha  occ. eigenvalues --   -0.52555  -0.51782  -0.51236  -0.50153  -0.49966
 Alpha  occ. eigenvalues --   -0.49262  -0.49070  -0.48754  -0.47987  -0.47717
 Alpha  occ. eigenvalues --   -0.47361  -0.46833  -0.46691  -0.46513  -0.46279
 Alpha  occ. eigenvalues --   -0.45452  -0.45183  -0.44709  -0.44568  -0.44424
 Alpha  occ. eigenvalues --   -0.43997  -0.43569  -0.42933  -0.42766  -0.42514
 Alpha  occ. eigenvalues --   -0.41859  -0.41697  -0.41602  -0.41366  -0.40974
 Alpha  occ. eigenvalues --   -0.40722  -0.40640  -0.40191  -0.40097  -0.39740
 Alpha  occ. eigenvalues --   -0.39597  -0.39499  -0.39243  -0.39009  -0.38794
 Alpha  occ. eigenvalues --   -0.38703  -0.38358  -0.38159  -0.37628  -0.37201
 Alpha  occ. eigenvalues --   -0.37167  -0.36002  -0.35322  -0.34808  -0.34329
 Alpha  occ. eigenvalues --   -0.34251  -0.33843  -0.33094  -0.31781  -0.30993
 Alpha  occ. eigenvalues --   -0.30491  -0.30433  -0.28841  -0.28508  -0.27502
 Alpha  occ. eigenvalues --   -0.26944  -0.26309  -0.25684  -0.25196  -0.24810
 Alpha  occ. eigenvalues --   -0.24479  -0.23970  -0.23433  -0.22048  -0.18767
 Alpha virt. eigenvalues --   -0.10901  -0.06597  -0.06360  -0.00881   0.00237
 Alpha virt. eigenvalues --    0.00557   0.00770   0.01112   0.01868   0.03002
 Alpha virt. eigenvalues --    0.03377   0.03818   0.04112   0.05176   0.05363

 Mulliken charges:
               1
     1  O   -0.247937
     2  O   -0.230099
     3  O   -0.220562
     4  O   -0.233715
     5  O   -0.187351
     6  O   -0.181823
     7  N    0.008618
     8  N   -0.198399
     9  N   -0.020001
    10  N   -0.259664
    11  C    0.120942
    12  C    0.138351
    13  C   -0.106227
    14  C   -0.109380
    15  C   -0.132093
    16  C    0.056800
    17  C   -0.202926
    18  C    0.164899
    19  C   -0.060761
    20  C   -0.133749
    21  C    0.083870
    22  C    0.162219
    23  C   -0.059450
    24  C    0.079428
    25  C    0.146230
    26  C   -0.088811
    27  C   -0.030334
    28  C   -0.045166
    29  C    0.035017
    30  C    0.010993
    31  C   -0.017559
    32  C    0.127171
    33  C   -0.124727
    34  C    0.127383
    35  C    0.105493
    36  C   -0.098450
    37  C    0.121396
    38  C    0.036913
    39  C   -0.207807
    40  C    0.109174
    41  C   -0.003438
    42  C    0.054987
    43  C    0.012705
    44  H   -0.009280
    45  H    0.032754
    46  H    0.001149
    47  H    0.120563
    48  H    0.104047
    49  H    0.003605
    50  H   -0.008671
    51  H    0.025791
    52  H   -0.009811
    53  H    0.008565
    54  H    0.038576
    55  H    0.001275
    56  H    0.056992
    57  H    0.028231
    58  H    0.105894
    59  H    0.031114
    60  H    0.161544
    61  H    0.035391
    62  H    0.013778
    63  H    0.042678
    64  H    0.033530
    65  H    0.044924
    66  H   -0.021162
    67  H    0.032562
    68  H    0.041076
    69  H    0.009400
    70  H    0.045445
    71  H    0.042345
    72  H    0.167347
    73  H   -0.029769
    74  H    0.038664
    75  H    0.011196
    76  H    0.055731
    77  H    0.211091
    78  H    0.040407
    79  H   -0.009131
 Sum of Mulliken charges =   0.00000

 Dipole moment (field-independent basis, Debye):
    X=              2.6570    Y=              3.2251    Z=              4.0304  Tot=              5.8056
 Quadrupole moment (field-independent basis, Debye-Ang):
   XX=           -224.0789   YY=           -240.6804   ZZ=           -262.4310
   XY=            -18.2785   XZ=             35.1035   YZ=              5.1146

 Normal termination of Gaussian 09 at Tue Jul  9 11:11:46 2019.
