 Gaussian 09, Revision D.01,
 Gaussian 09:  ES64L-G09RevD.01 24-Apr-2013

 --------------------------
 # td=(NStates=1) B3LYP/SVP
 --------------------------

 --
 TD
 --
 Symbolic Z-matrix:
 Charge =  0 Multiplicity = 1

                         Standard orientation:
 ---------------------------------------------------------------------
 Center     Atomic      Atomic             Coordinates (Angstroms)
 Number     Number       Type             X           Y           Z
 ---------------------------------------------------------------------
      1          8           0        5.214575   -0.225417   -3.422229
      2          8           0       -2.828429   -3.153439    3.147079
      3          8           0       -3.209359   -0.883430    3.535124
      4          8           0       -1.441179    7.216158    1.291030
      5          8           0       -0.316852    6.860556   -0.685811
      6          8           0       -1.836159   -4.042201   -0.231808
      7          7           0        2.324293    0.984612    0.608792
      8          7           0        4.295012   -0.655951   -1.299213
      9          7           0       -1.983853    0.659593   -0.226360
     10          7           0       -2.588766   -1.887978   -0.607196
     11          6           0        4.840774   -1.144714   -0.003709
     12          6           0        4.380318   -0.273292    1.238925
     13          6           0        2.990304    0.051027    1.464473
     14          6           0        1.988802   -0.599517    2.199292
     15          6           0        0.653919   -0.030580    1.889616
     16          6           0        0.965965    0.954276    0.832118
     17          6           0        6.289538   -1.310368   -0.188708
     18          6           0       -0.621794   -0.239223    2.594970
     19          6           0        6.553334   -0.951342   -1.447274
     20          6           0        0.141364    1.911337    0.190306
     21          6           0       -1.096445    1.784146   -0.237353
     22          6           0        5.377791   -0.488694   -2.222117
     23          6           0       -1.937057    2.948289   -0.843505
     24          6           0        2.375547   -1.512051    3.312834
     25          6           0        7.131278   -1.868792    0.809070
     26          6           0       -3.176060    2.360797   -1.112757
     27          6           0       -1.125108   -1.697181    2.506873
     28          6           0       -3.166729    0.992970   -0.775811
     29          6           0       -1.467807    4.306181   -0.911716
     30          6           0        7.882171   -0.837445   -2.074843
     31          6           0       -1.677344    5.105154    0.335859
     32          6           0       -4.341653    3.112410   -1.703771
     33          6           0       -4.174922   -0.014212   -1.188640
     34          6           0       -2.575624   -1.856906    3.103663
     35          6           0       -3.772290   -1.395150   -1.100016
     36          6           0        9.163828   -1.071645   -1.492337
     37          6           0       -1.021992    6.480987    0.287886
     38          6           0       -4.678869   -2.493649   -1.392251
     39          6           0       -4.046977   -3.634545   -1.166798
     40          6           0       -2.653696   -3.200172   -0.619500
     41          6           0       -5.998905   -2.336664   -1.983007
     42          6           0       -4.433646   -5.035352   -1.256151
     43          6           0       -6.661580   -3.202342   -2.784049
     44          1           0        4.444411   -2.285763    0.188581
     45          1           0        4.988221    0.563024    1.539518
     46          1           0        4.701374   -0.938107    2.084309
     47          1           0        2.799957    1.544917    0.026452
     48          1           0        3.347688   -0.770743   -1.763909
     49          1           0       -0.299262   -0.017821    3.514763
     50          1           0       -1.350678    0.420427    2.278462
     51          1           0        0.570281    2.929454   -0.215633
     52          1           0        3.333209   -1.626457    3.843910
     53          1           0        1.697947   -1.262579    4.261797
     54          1           0        2.248659   -2.286608    3.081251
     55          1           0        6.685053   -2.681347    1.512867
     56          1           0        7.569004   -1.026797    1.321714
     57          1           0        8.010122   -2.606038    0.282144
     58          1           0       -1.164295   -2.151553    1.390538
     59          1           0       -0.448355   -2.182103    3.114406
     60          1           0       -1.630649   -0.373461   -0.235824
     61          1           0       -2.059686    4.785823   -1.852777
     62          1           0       -0.452049    4.196100   -1.151160
     63          1           0        7.864740   -0.728850   -3.176620
     64          1           0       -1.008991    4.468860    1.116421
     65          1           0       -2.541483    5.018238    0.697507
     66          1           0       -4.203876    4.081279   -1.919912
     67          1           0       -5.414433    3.102453   -1.071985
     68          1           0       -4.672469    2.525422   -2.678622
     69          1           0       -5.080571    0.333089   -1.755691
     70          1           0        9.300625   -1.057186   -0.613784
     71          1           0        9.998081   -1.005532   -2.311209
     72          1           0       -3.722781   -3.087144    3.738029
     73          1           0       -6.573389   -1.466733   -2.001936
     74          1           0       -4.267243   -5.442342   -2.333578
     75          1           0       -3.831914   -5.568449   -0.540241
     76          1           0       -5.566353   -5.039696   -1.024799
     77          1           0       -1.004009    8.193968    1.050198
     78          1           0       -7.640221   -2.992468   -3.269320
     79          1           0       -6.252856   -4.327478   -3.094541
 ---------------------------------------------------------------------

 SCF Done:  E(RB3LYP) =  -1947.70625101     A.U. after   18 cycles

 Excitation energies and oscillator strengths:

 Excited State   1:      Singlet-A      2.2492 eV  551.24 nm  f=0.4145  <S**2>=0.000
     153 ->156        -0.15599
     154 ->156         0.15157
     155 ->156         0.67129
 This state for optimization and/or second-order correction.
 Total Energy, E(TD-HF/TD-KS) =  -1947.62359468
 Copying the excited state density for this state as the 1-particle RhoCI density.

 The electronic state is 1-A.
 Alpha  occ. eigenvalues --  -19.21825 -19.19561 -19.13775 -19.12097 -19.10649
 Alpha  occ. eigenvalues --  -19.08643 -14.37729 -14.37028 -14.35361 -14.28644
 Alpha  occ. eigenvalues --  -10.33873 -10.31321 -10.28872 -10.26746 -10.25468
 Alpha  occ. eigenvalues --  -10.24875 -10.24368 -10.23854 -10.23593 -10.23007
 Alpha  occ. eigenvalues --  -10.22828 -10.22479 -10.22227 -10.22086 -10.21895
 Alpha  occ. eigenvalues --  -10.21664 -10.21555 -10.21491 -10.21199 -10.20994
 Alpha  occ. eigenvalues --  -10.20845 -10.20501 -10.20259 -10.20062 -10.19885
 Alpha  occ. eigenvalues --  -10.19345 -10.19061 -10.18553 -10.18337 -10.18129
 Alpha  occ. eigenvalues --  -10.17954 -10.17875 -10.17313  -1.11126  -1.09000
 Alpha  occ. eigenvalues --   -1.01358  -1.00051  -0.99569  -0.99244  -0.97847
 Alpha  occ. eigenvalues --   -0.97393  -0.93033  -0.91926  -0.84406  -0.83084
 Alpha  occ. eigenvalues --   -0.82323  -0.81976  -0.80327  -0.79806  -0.78701
 Alpha  occ. eigenvalues --   -0.77335  -0.76052  -0.75435  -0.74194  -0.72961
 Alpha  occ. eigenvalues --   -0.72268  -0.72133  -0.69874  -0.69053  -0.68857
 Alpha  occ. eigenvalues --   -0.67318  -0.66229  -0.63660  -0.61184  -0.61018
 Alpha  occ. eigenvalues --   -0.59145  -0.58465  -0.58272  -0.58033  -0.57028
 Alpha  occ. eigenvalues --   -0.56652  -0.55898  -0.55408  -0.54275  -0.53389
 Alpha  occ. eigenvalues --   -0.52388  -0.51944  -0.51118  -0.50958  -0.50301
 Alpha  occ. eigenvalues --   -0.50187  -0.49470  -0.48587  -0.48469  -0.47608
 Alpha  occ. eigenvalues --   -0.47117  -0.46712  -0.46515  -0.46127  -0.45956
 Alpha  occ. eigenvalues --   -0.45162  -0.45095  -0.44904  -0.44500  -0.44098
 Alpha  occ. eigenvalues --   -0.43706  -0.43687  -0.43227  -0.43177  -0.42835
 Alpha  occ. eigenvalues --   -0.42603  -0.41953  -0.41794  -0.41616  -0.41416
 Alpha  occ. eigenvalues --   -0.41305  -0.40853  -0.40528  -0.39762  -0.39676
 Alpha  occ. eigenvalues --   -0.39244  -0.38869  -0.38818  -0.38452  -0.38232
 Alpha  occ. eigenvalues --   -0.38050  -0.37567  -0.37369  -0.37281  -0.36839
 Alpha  occ. eigenvalues --   -0.36378  -0.36018  -0.34689  -0.34467  -0.33872
 Alpha  occ. eigenvalues --   -0.33492  -0.33293  -0.33134  -0.33082  -0.31693
 Alpha  occ. eigenvalues --   -0.31336  -0.31060  -0.29332  -0.28345  -0.27018
 Alpha  occ. eigenvalues --   -0.26733  -0.26379  -0.26017  -0.25789  -0.24367
 Alpha  occ. eigenvalues --   -0.24112  -0.23259  -0.22613  -0.21987  -0.19577
 Alpha virt. eigenvalues --   -0.10596  -0.06776  -0.05393  -0.02002  -0.00747
 Alpha virt. eigenvalues --   -0.00525   0.00127   0.00694   0.01166   0.02546
 Alpha virt. eigenvalues --    0.02824   0.03006   0.03680   0.04299   0.04596

 Mulliken charges:
               1
     1  O   -0.237407
     2  O   -0.175059
     3  O   -0.263185
     4  O   -0.192844
     5  O   -0.275671
     6  O   -0.242968
     7  N   -0.050592
     8  N   -0.270272
     9  N   -0.115079
    10  N   -0.253155
    11  C    0.104638
    12  C    0.189550
    13  C   -0.071405
    14  C   -0.143127
    15  C   -0.127671
    16  C    0.056503
    17  C   -0.120610
    18  C    0.258467
    19  C   -0.051569
    20  C   -0.115304
    21  C    0.085298
    22  C    0.182333
    23  C   -0.111323
    24  C    0.252092
    25  C   -0.003944
    26  C   -0.119368
    27  C   -0.068201
    28  C    0.116213
    29  C    0.104559
    30  C   -0.056447
    31  C    0.076257
    32  C    0.060374
    33  C   -0.125058
    34  C    0.163317
    35  C    0.109351
    36  C    0.080440
    37  C    0.174451
    38  C    0.099566
    39  C   -0.222586
    40  C    0.114848
    41  C   -0.006766
    42  C    0.068403
    43  C   -0.116739
    44  H    0.047562
    45  H   -0.009617
    46  H   -0.020378
    47  H    0.069483
    48  H    0.157368
    49  H   -0.033781
    50  H   -0.019785
    51  H    0.014466
    52  H    0.010576
    53  H    0.018190
    54  H   -0.138660
    55  H    0.046513
    56  H    0.049737
    57  H    0.067101
    58  H    0.110365
    59  H   -0.002969
    60  H    0.195906
    61  H    0.042166
    62  H    0.000378
    63  H    0.020266
    64  H    0.050394
    65  H   -0.046533
    66  H   -0.019740
    67  H    0.042956
    68  H    0.041356
    69  H    0.007764
    70  H   -0.096983
    71  H    0.051886
    72  H    0.206534
    73  H   -0.034661
    74  H    0.048355
    75  H    0.028205
    76  H    0.034431
    77  H    0.237288
    78  H    0.027474
    79  H    0.036078
 Sum of Mulliken charges =   0.00000

 Dipole moment (field-independent basis, Debye):
    X=              1.2219    Y=              4.1338    Z=              4.4947  Tot=              6.2277
 Quadrupole moment (field-independent basis, Debye-Ang):
   XX=           -223.4878   YY=           -240.4493   ZZ=           -262.8938
   XY=            -16.9760   XZ=             33.6629   YZ=              0.1093

 Normal termination of Gaussian 09 at Tue Jul  9 14:35:55 2019.
