 Gaussian 09, Revision D.01,
 Gaussian 09:  ES64L-G09RevD.01 24-Apr-2013

 --------------------------
 # td=(NStates=1) B3LYP/SVP
 --------------------------

 --
 TD
 --
 Symbolic Z-matrix:
 Charge =  0 Multiplicity = 1

                         Standard orientation:
 ---------------------------------------------------------------------
 Center     Atomic      Atomic             Coordinates (Angstroms)
 Number     Number       Type             X           Y           Z
 ---------------------------------------------------------------------
      1          8           0        5.350438   -0.378675   -3.443758
      2          8           0       -2.688954   -3.123152    3.226704
      3          8           0       -3.086245   -0.940269    3.726757
      4          8           0       -1.825603    7.207363    1.275263
      5          8           0       -0.512054    6.880096   -0.478493
      6          8           0       -1.846975   -4.163173   -0.143752
      7          7           0        2.357546    0.941405    0.490732
      8          7           0        4.458815   -0.686660   -1.329173
      9          7           0       -1.987552    0.744013   -0.379304
     10          7           0       -2.674190   -1.914182   -0.473489
     11          6           0        4.800053   -1.178292   -0.007991
     12          6           0        4.497576   -0.195319    1.125991
     13          6           0        3.023111    0.011521    1.238065
     14          6           0        2.128839   -0.403488    2.221091
     15          6           0        0.754667    0.054414    1.834279
     16          6           0        0.971795    0.894237    0.784466
     17          6           0        6.337782   -1.285137   -0.164219
     18          6           0       -0.440552   -0.232541    2.522774
     19          6           0        6.729486   -0.863602   -1.461257
     20          6           0        0.164947    1.877542    0.223881
     21          6           0       -1.138708    1.919665   -0.268230
     22          6           0        5.444742   -0.597113   -2.236619
     23          6           0       -1.988016    2.913389   -0.905487
     24          6           0        2.437458   -1.429066    3.267180
     25          6           0        7.260715   -1.634504    0.980927
     26          6           0       -3.214202    2.402727   -1.209313
     27          6           0       -1.122907   -1.679019    2.486773
     28          6           0       -3.142572    0.891842   -0.959607
     29          6           0       -1.614369    4.329815   -0.998128
     30          6           0        7.991671   -0.862798   -2.098656
     31          6           0       -1.871596    5.037263    0.370180
     32          6           0       -4.384613    3.040848   -1.845029
     33          6           0       -4.094703   -0.123061   -1.217623
     34          6           0       -2.379830   -1.813493    3.157870
     35          6           0       -3.771317   -1.451636   -0.968027
     36          6           0        9.165772   -0.745758   -1.488405
     37          6           0       -1.287202    6.468561    0.329101
     38          6           0       -4.668925   -2.586970   -1.499642
     39          6           0       -4.083739   -3.773785   -1.131207
     40          6           0       -2.752658   -3.319421   -0.458315
     41          6           0       -6.020745   -2.349093   -1.992186
     42          6           0       -4.528434   -5.164365   -1.298757
     43          6           0       -6.911094   -3.250492   -2.591690
     44          1           0        4.308095   -2.260641    0.251422
     45          1           0        4.746798    0.725825    0.894306
     46          1           0        5.012379   -0.529470    2.053672
     47          1           0        2.743576    1.412427   -0.091062
     48          1           0        3.569176   -1.103871   -1.457546
     49          1           0       -0.236191    0.093050    3.661584
     50          1           0       -1.119948    0.516577    1.983905
     51          1           0        0.689681    2.751519   -0.298738
     52          1           0        3.398658   -1.296941    3.484199
     53          1           0        1.867517   -1.161737    4.264233
     54          1           0        2.156657   -2.541631    2.904382
     55          1           0        6.760114   -2.391381    1.658439
     56          1           0        7.778691   -0.763133    1.476523
     57          1           0        8.043442   -2.279912    0.639325
     58          1           0       -1.273501   -1.998218    1.452514
     59          1           0       -0.334054   -2.437771    3.022766
     60          1           0       -1.660633   -0.115093   -0.182715
     61          1           0       -2.084832    4.816762   -1.813826
     62          1           0       -0.639275    4.295413   -1.233423
     63          1           0        7.990550   -0.876181   -3.305537
     64          1           0       -1.297230    4.521796    1.071985
     65          1           0       -2.824358    5.322931    0.448697
     66          1           0       -4.202100    4.208395   -1.824414
     67          1           0       -5.317713    2.872499   -1.215104
     68          1           0       -4.444660    2.738229   -2.999946
     69          1           0       -5.147478    0.397049   -1.840594
     70          1           0        9.133810   -0.654921   -0.542416
     71          1           0       10.126041   -0.979960   -2.225959
     72          1           0       -3.673375   -3.154549    3.668060
     73          1           0       -6.371048   -1.410469   -1.843772
     74          1           0       -4.674108   -5.274752   -2.531949
     75          1           0       -3.810149   -5.912938   -0.737338
     76          1           0       -5.620007   -5.326378   -0.627687
     77          1           0       -1.045792    7.941951    1.416268
     78          1           0       -7.972354   -2.783023   -2.694448
     79          1           0       -6.538182   -4.228219   -2.802086
 ---------------------------------------------------------------------

 SCF Done:  E(RB3LYP) =  -1947.74872411     A.U. after   16 cycles

 Excitation energies and oscillator strengths:

 Excited State   1:      Singlet-A      2.2979 eV  539.57 nm  f=0.4323  <S**2>=0.000
     154 ->156        -0.26577
     155 ->156         0.65044
 This state for optimization and/or second-order correction.
 Total Energy, E(TD-HF/TD-KS) =  -1947.66427951
 Copying the excited state density for this state as the 1-particle RhoCI density.

 The electronic state is 1-A.
 Alpha  occ. eigenvalues --  -19.20031 -19.17489 -19.13303 -19.10960 -19.10551
 Alpha  occ. eigenvalues --  -19.10249 -14.37239 -14.36747 -14.36075 -14.29573
 Alpha  occ. eigenvalues --  -10.32176 -10.30663 -10.29261 -10.27158 -10.26747
 Alpha  occ. eigenvalues --  -10.25499 -10.25243 -10.23647 -10.23577 -10.23426
 Alpha  occ. eigenvalues --  -10.23308 -10.23301 -10.22393 -10.22002 -10.21805
 Alpha  occ. eigenvalues --  -10.21795 -10.21229 -10.21126 -10.21062 -10.20773
 Alpha  occ. eigenvalues --  -10.20743 -10.20528 -10.20486 -10.20316 -10.20304
 Alpha  occ. eigenvalues --  -10.19840 -10.19666 -10.19462 -10.19450 -10.19418
 Alpha  occ. eigenvalues --  -10.19253 -10.19232 -10.19071  -1.11519  -1.06835
 Alpha  occ. eigenvalues --   -1.02714  -1.01832  -1.00253  -0.99571  -0.98310
 Alpha  occ. eigenvalues --   -0.96574  -0.95653  -0.92270  -0.84545  -0.83843
 Alpha  occ. eigenvalues --   -0.82807  -0.82315  -0.80395  -0.79653  -0.78782
 Alpha  occ. eigenvalues --   -0.77751  -0.77053  -0.76115  -0.74424  -0.73206
 Alpha  occ. eigenvalues --   -0.72281  -0.72232  -0.70478  -0.69614  -0.69410
 Alpha  occ. eigenvalues --   -0.68071  -0.66961  -0.64238  -0.62888  -0.60199
 Alpha  occ. eigenvalues --   -0.59701  -0.58849  -0.58257  -0.57917  -0.57536
 Alpha  occ. eigenvalues --   -0.56678  -0.55921  -0.54768  -0.54514  -0.53516
 Alpha  occ. eigenvalues --   -0.53347  -0.52421  -0.51977  -0.51383  -0.49894
 Alpha  occ. eigenvalues --   -0.49634  -0.49362  -0.48966  -0.48281  -0.47883
 Alpha  occ. eigenvalues --   -0.47333  -0.46899  -0.46760  -0.46454  -0.45928
 Alpha  occ. eigenvalues --   -0.45734  -0.45088  -0.44851  -0.44680  -0.43824
 Alpha  occ. eigenvalues --   -0.43637  -0.43052  -0.42745  -0.42664  -0.42150
 Alpha  occ. eigenvalues --   -0.41825  -0.41601  -0.41444  -0.41375  -0.40764
 Alpha  occ. eigenvalues --   -0.40595  -0.40555  -0.40385  -0.39979  -0.39788
 Alpha  occ. eigenvalues --   -0.39668  -0.39339  -0.38819  -0.38493  -0.38434
 Alpha  occ. eigenvalues --   -0.38270  -0.38051  -0.37848  -0.37668  -0.37299
 Alpha  occ. eigenvalues --   -0.36777  -0.36427  -0.36107  -0.35140  -0.34549
 Alpha  occ. eigenvalues --   -0.33941  -0.33598  -0.33306  -0.32339  -0.32230
 Alpha  occ. eigenvalues --   -0.31129  -0.30060  -0.28997  -0.28706  -0.27939
 Alpha  occ. eigenvalues --   -0.27047  -0.26401  -0.26329  -0.25847  -0.24807
 Alpha  occ. eigenvalues --   -0.24298  -0.23766  -0.23646  -0.21799  -0.19737
 Alpha virt. eigenvalues --   -0.10588  -0.06855  -0.06498  -0.00958  -0.00249
 Alpha virt. eigenvalues --    0.00093   0.00322   0.00472   0.01467   0.02086
 Alpha virt. eigenvalues --    0.02845   0.03392   0.03958   0.04443   0.04911

 Mulliken charges:
               1
     1  O   -0.223050
     2  O   -0.228421
     3  O   -0.282418
     4  O   -0.206799
     5  O   -0.208074
     6  O   -0.266105
     7  N    0.038714
     8  N   -0.125706
     9  N   -0.003243
    10  N   -0.245700
    11  C   -0.048934
    12  C    0.326683
    13  C   -0.109812
    14  C   -0.184662
    15  C   -0.039819
    16  C    0.099533
    17  C   -0.176230
    18  C   -0.003742
    19  C   -0.029890
    20  C   -0.077067
    21  C    0.046828
    22  C    0.150313
    23  C   -0.102988
    24  C    0.105861
    25  C    0.074931
    26  C   -0.130309
    27  C   -0.009526
    28  C    0.023020
    29  C    0.180523
    30  C   -0.091179
    31  C    0.140018
    32  C    0.011352
    33  C   -0.161431
    34  C    0.156567
    35  C    0.101716
    36  C    0.046842
    37  C    0.066238
    38  C    0.020031
    39  C   -0.148709
    40  C    0.183884
    41  C   -0.024896
    42  C   -0.059987
    43  C   -0.007606
    44  H    0.061176
    45  H   -0.066984
    46  H    0.023187
    47  H   -0.003312
    48  H    0.122722
    49  H    0.041978
    50  H    0.014435
    51  H    0.015176
    52  H   -0.042397
    53  H    0.023696
    54  H    0.063669
    55  H    0.018971
    56  H    0.065955
    57  H    0.019831
    58  H    0.079843
    59  H    0.063740
    60  H    0.081604
    61  H   -0.009110
    62  H   -0.041481
    63  H    0.048976
    64  H    0.023968
    65  H   -0.005754
    66  H    0.024116
    67  H    0.052555
    68  H    0.068463
    69  H    0.055563
    70  H   -0.074388
    71  H    0.059386
    72  H    0.223466
    73  H   -0.053691
    74  H    0.078107
    75  H    0.061113
    76  H    0.054397
    77  H    0.226592
    78  H    0.043485
    79  H    0.004193
 Sum of Mulliken charges =   0.00000

 Dipole moment (field-independent basis, Debye):
    X=              2.2509    Y=              3.4008    Z=              3.5274  Tot=              5.3921
 Quadrupole moment (field-independent basis, Debye-Ang):
   XX=           -223.8954   YY=           -248.9762   ZZ=           -269.7776
   XY=            -12.1844   XZ=             34.5667   YZ=              1.8514

 Normal termination of Gaussian 09 at Tue Jul  9 14:35:38 2019.
