 Gaussian 09, Revision D.01,
 Gaussian 09:  ES64L-G09RevD.01 24-Apr-2013

 --------------------------
 # td=(NStates=1) B3LYP/SVP
 --------------------------

 --
 TD
 --
 Symbolic Z-matrix:
 Charge =  0 Multiplicity = 1

                         Standard orientation:
 ---------------------------------------------------------------------
 Center     Atomic      Atomic             Coordinates (Angstroms)
 Number     Number       Type             X           Y           Z
 ---------------------------------------------------------------------
      1          8           0        5.261567   -0.415312   -3.357731
      2          8           0       -3.138292   -2.966223    3.132615
      3          8           0       -3.185448   -0.729708    3.339648
      4          8           0       -0.842809    7.202194    1.430007
      5          8           0        0.199762    6.921567   -0.450660
      6          8           0       -2.314105   -3.969048   -0.052837
      7          7           0        2.406134    0.704235    0.531353
      8          7           0        4.296151   -0.852976   -1.344263
      9          7           0       -1.907246    0.770561   -0.282023
     10          7           0       -2.937152   -1.760248   -0.419830
     11          6           0        4.751157   -1.428626   -0.058786
     12          6           0        4.393380   -0.680314    1.272218
     13          6           0        3.014676   -0.193077    1.389075
     14          6           0        2.031261   -0.804396    2.086543
     15          6           0        0.695192   -0.119293    1.811941
     16          6           0        1.031874    0.785439    0.795832
     17          6           0        6.261589   -1.557385   -0.196278
     18          6           0       -0.531738   -0.329373    2.484760
     19          6           0        6.618482   -1.037804   -1.433479
     20          6           0        0.268095    1.907436    0.199369
     21          6           0       -1.043066    1.878951   -0.250132
     22          6           0        5.386684   -0.730147   -2.195601
     23          6           0       -1.771103    2.922933   -0.769887
     24          6           0        2.088514   -1.891513    3.205979
     25          6           0        7.178501   -2.075264    0.886183
     26          6           0       -3.039130    2.556599   -1.119257
     27          6           0       -1.179901   -1.739646    2.507378
     28          6           0       -3.076994    1.078372   -0.859272
     29          6           0       -1.158650    4.286247   -0.841842
     30          6           0        7.907057   -0.987311   -2.167492
     31          6           0       -1.283237    5.107112    0.486802
     32          6           0       -4.131132    3.356967   -1.737767
     33          6           0       -4.135091    0.197550   -1.185484
     34          6           0       -2.644557   -1.682974    2.970948
     35          6           0       -3.937925   -1.200189   -0.974792
     36          6           0        9.200207   -1.107124   -1.562802
     37          6           0       -0.583202    6.467322    0.334047
     38          6           0       -4.939772   -2.248750   -1.429839
     39          6           0       -4.330876   -3.417025   -1.185122
     40          6           0       -3.072534   -3.147752   -0.479197
     41          6           0       -6.275610   -1.908596   -1.940340
     42          6           0       -4.843309   -4.834601   -1.432347
     43          6           0       -6.997173   -2.705786   -2.798271
     44          1           0        4.337875   -2.516267    0.223189
     45          1           0        5.192625    0.256573    1.211387
     46          1           0        4.734405   -1.282401    2.227514
     47          1           0        2.783964    1.056983   -0.266615
     48          1           0        3.349589   -0.791318   -1.683322
     49          1           0       -0.340481    0.066615    3.532436
     50          1           0       -1.233225    0.466829    2.188981
     51          1           0        0.884009    2.689155   -0.174304
     52          1           0        3.269264   -2.055514    3.539079
     53          1           0        1.423431   -1.625517    3.935443
     54          1           0        1.757876   -2.831007    2.754978
     55          1           0        6.610186   -2.757781    1.639564
     56          1           0        7.502098   -1.241590    1.381463
     57          1           0        8.107904   -2.552086    0.452913
     58          1           0       -1.130758   -2.362665    1.426628
     59          1           0       -0.692975   -2.540334    3.237381
     60          1           0       -1.678649   -0.124134   -0.271671
     61          1           0       -1.741714    4.696043   -1.697752
     62          1           0       -0.252960    4.497892   -1.323551
     63          1           0        7.920080   -0.743985   -3.233008
     64          1           0       -0.832014    4.677982    1.442549
     65          1           0       -2.302727    5.284012    0.716049
     66          1           0       -3.991689    4.473578   -1.833235
     67          1           0       -5.093606    3.211370   -1.305019
     68          1           0       -4.368076    2.741382   -2.626578
     69          1           0       -5.219228    0.443048   -1.582597
     70          1           0        9.365020   -1.176485   -0.469514
     71          1           0        9.999589   -0.883840   -2.138278
     72          1           0       -3.983233   -2.834556    3.503496
     73          1           0       -6.795390   -0.998900   -1.838587
     74          1           0       -4.673696   -5.167347   -2.508022
     75          1           0       -4.210749   -5.592748   -1.010910
     76          1           0       -5.883335   -5.049292   -1.150398
     77          1           0       -0.186275    7.938763    1.402534
     78          1           0       -7.867209   -2.308893   -3.059500
     79          1           0       -6.720547   -3.750232   -3.246249
 ---------------------------------------------------------------------

 SCF Done:  E(RB3LYP) =  -1947.91580805     A.U. after   16 cycles

 Excitation energies and oscillator strengths:

 Excited State   1:      Singlet-A      2.2246 eV  557.32 nm  f=0.4819  <S**2>=0.000
     155 ->156         0.69509
 This state for optimization and/or second-order correction.
 Total Energy, E(TD-HF/TD-KS) =  -1947.83405375
 Copying the excited state density for this state as the 1-particle RhoCI density.

 The electronic state is 1-A.
 Alpha  occ. eigenvalues --  -19.17858 -19.15711 -19.13484 -19.12142 -19.11040
 Alpha  occ. eigenvalues --  -19.09891 -14.36990 -14.36457 -14.35878 -14.28455
 Alpha  occ. eigenvalues --  -10.32519 -10.30401 -10.28387 -10.26458 -10.26399
 Alpha  occ. eigenvalues --  -10.25665 -10.23985 -10.23435 -10.23128 -10.23118
 Alpha  occ. eigenvalues --  -10.22883 -10.22515 -10.22359 -10.22091 -10.21606
 Alpha  occ. eigenvalues --  -10.21604 -10.21474 -10.20868 -10.20852 -10.20711
 Alpha  occ. eigenvalues --  -10.20633 -10.20616 -10.20422 -10.20213 -10.20043
 Alpha  occ. eigenvalues --  -10.19879 -10.19846 -10.19656 -10.19382 -10.19270
 Alpha  occ. eigenvalues --  -10.19018 -10.18981 -10.18535  -1.10976  -1.09430
 Alpha  occ. eigenvalues --   -1.03131  -1.02903  -1.01106  -1.00715  -0.99995
 Alpha  occ. eigenvalues --   -0.97839  -0.93820  -0.93398  -0.84154  -0.82144
 Alpha  occ. eigenvalues --   -0.81697  -0.80900  -0.80303  -0.79532  -0.78419
 Alpha  occ. eigenvalues --   -0.76657  -0.75942  -0.74903  -0.74260  -0.73332
 Alpha  occ. eigenvalues --   -0.72082  -0.71203  -0.69747  -0.69515  -0.69059
 Alpha  occ. eigenvalues --   -0.67576  -0.66181  -0.63774  -0.61377  -0.60652
 Alpha  occ. eigenvalues --   -0.60295  -0.59017  -0.58273  -0.58081  -0.57808
 Alpha  occ. eigenvalues --   -0.56958  -0.55897  -0.55151  -0.54074  -0.53641
 Alpha  occ. eigenvalues --   -0.52943  -0.51955  -0.50939  -0.50437  -0.50253
 Alpha  occ. eigenvalues --   -0.48755  -0.48714  -0.48516  -0.48203  -0.47565
 Alpha  occ. eigenvalues --   -0.47420  -0.47149  -0.46604  -0.46299  -0.45682
 Alpha  occ. eigenvalues --   -0.45406  -0.44937  -0.44366  -0.44013  -0.43822
 Alpha  occ. eigenvalues --   -0.43554  -0.43345  -0.42900  -0.42784  -0.42503
 Alpha  occ. eigenvalues --   -0.42400  -0.41975  -0.41812  -0.41602  -0.41346
 Alpha  occ. eigenvalues --   -0.41075  -0.40931  -0.40691  -0.40577  -0.40244
 Alpha  occ. eigenvalues --   -0.39961  -0.39711  -0.39485  -0.39276  -0.38896
 Alpha  occ. eigenvalues --   -0.38600  -0.38509  -0.38076  -0.37914  -0.37234
 Alpha  occ. eigenvalues --   -0.36550  -0.35981  -0.35525  -0.34936  -0.34707
 Alpha  occ. eigenvalues --   -0.34134  -0.33687  -0.32780  -0.31961  -0.31345
 Alpha  occ. eigenvalues --   -0.31265  -0.31191  -0.29428  -0.28967  -0.27511
 Alpha  occ. eigenvalues --   -0.27300  -0.26743  -0.26336  -0.25757  -0.24457
 Alpha  occ. eigenvalues --   -0.24075  -0.23525  -0.23432  -0.22845  -0.19489
 Alpha virt. eigenvalues --   -0.10692  -0.06673  -0.06458  -0.00977  -0.00307
 Alpha virt. eigenvalues --    0.00023   0.01608   0.02080   0.02806   0.03740
 Alpha virt. eigenvalues --    0.03786   0.05045   0.05143   0.05373   0.05860

 Mulliken charges:
               1
     1  O   -0.213000
     2  O   -0.187710
     3  O   -0.170002
     4  O   -0.194257
     5  O   -0.215184
     6  O   -0.166191
     7  N   -0.062066
     8  N   -0.197152
     9  N    0.025393
    10  N   -0.220421
    11  C    0.102629
    12  C    0.051172
    13  C   -0.011074
    14  C   -0.176416
    15  C   -0.075663
    16  C    0.019015
    17  C   -0.185269
    18  C    0.099981
    19  C   -0.042645
    20  C   -0.067516
    21  C    0.114235
    22  C    0.133013
    23  C   -0.076200
    24  C    0.112407
    25  C    0.102848
    26  C   -0.136834
    27  C   -0.107533
    28  C    0.103692
    29  C    0.075818
    30  C   -0.032755
    31  C    0.032477
    32  C    0.147287
    33  C   -0.141628
    34  C    0.136156
    35  C   -0.007232
    36  C   -0.012540
    37  C    0.109162
    38  C    0.078248
    39  C   -0.189760
    40  C    0.134612
    41  C   -0.051076
    42  C    0.094237
    43  C   -0.005733
    44  H    0.035606
    45  H    0.007070
    46  H    0.030999
    47  H    0.075596
    48  H    0.128842
    49  H    0.013776
    50  H    0.004131
    51  H   -0.014160
    52  H    0.018658
    53  H    0.005849
    54  H    0.032257
    55  H    0.036400
    56  H    0.016622
    57  H    0.053736
    58  H    0.105582
    59  H    0.048705
    60  H    0.076322
    61  H   -0.000037
    62  H    0.001932
    63  H    0.024076
    64  H    0.066020
    65  H    0.023577
    66  H    0.042120
    67  H   -0.003061
    68  H    0.018436
    69  H    0.014851
    70  H    0.021225
    71  H    0.002406
    72  H    0.144567
    73  H   -0.019848
    74  H    0.019248
    75  H   -0.000317
    76  H    0.029126
    77  H    0.181994
    78  H   -0.016743
    79  H    0.047909
 Sum of Mulliken charges =   0.00000

 Dipole moment (field-independent basis, Debye):
    X=             -0.3951    Y=              2.2098    Z=              2.3443  Tot=              3.2458
 Quadrupole moment (field-independent basis, Debye-Ang):
   XX=           -216.0839   YY=           -252.8743   ZZ=           -263.4414
   XY=            -11.5060   XZ=             34.4754   YZ=              1.5707

 Normal termination of Gaussian 09 at Wed Jul 10 07:37:03 2019.
