 Gaussian 09, Revision D.01,
 Gaussian 09:  ES64L-G09RevD.01 24-Apr-2013

 --------------------------
 # td=(NStates=1) B3LYP/SVP
 --------------------------

 --
 TD
 --
 Symbolic Z-matrix:
 Charge =  0 Multiplicity = 1

                         Standard orientation:
 ---------------------------------------------------------------------
 Center     Atomic      Atomic             Coordinates (Angstroms)
 Number     Number       Type             X           Y           Z
 ---------------------------------------------------------------------
      1          8           0        5.460737    0.070246   -3.349934
      2          8           0       -2.917792   -3.157417    3.257005
      3          8           0       -3.083967   -0.952397    3.443726
      4          8           0       -1.438827    7.081793    1.736895
      5          8           0       -0.848032    7.095150   -0.483427
      6          8           0       -1.992826   -4.004220   -0.040809
      7          7           0        2.428838    0.736678    0.620851
      8          7           0        4.519056   -0.535078   -1.321743
      9          7           0       -1.866805    0.579138   -0.426287
     10          7           0       -2.766532   -1.867868   -0.602798
     11          6           0        4.839447   -1.185525   -0.054458
     12          6           0        4.443370   -0.460836    1.204256
     13          6           0        3.011026   -0.191285    1.328160
     14          6           0        2.027800   -0.782146    2.192180
     15          6           0        0.810678   -0.171712    1.818228
     16          6           0        1.035600    0.726705    0.808760
     17          6           0        6.389196   -1.388867   -0.293966
     18          6           0       -0.556170   -0.418261    2.545424
     19          6           0        6.753941   -0.687895   -1.456371
     20          6           0        0.231851    1.764399    0.226406
     21          6           0       -1.121630    1.764298   -0.316896
     22          6           0        5.500380   -0.341799   -2.192467
     23          6           0       -1.939849    2.916733   -0.726316
     24          6           0        2.240946   -1.748567    3.249109
     25          6           0        7.280064   -1.939588    0.796484
     26          6           0       -3.132434    2.457739   -1.106625
     27          6           0       -1.008953   -1.900226    2.400371
     28          6           0       -3.197924    1.014689   -0.907755
     29          6           0       -1.480979    4.389119   -0.844407
     30          6           0        8.004172   -0.602186   -2.052903
     31          6           0       -1.624550    5.053967    0.604739
     32          6           0       -4.251794    3.188397   -1.764119
     33          6           0       -4.116116   -0.004400   -1.214003
     34          6           0       -2.442245   -1.937829    3.088756
     35          6           0       -3.881018   -1.370943   -1.097533
     36          6           0        9.275606   -0.724006   -1.735369
     37          6           0       -1.307007    6.537834    0.484749
     38          6           0       -4.797881   -2.488798   -1.595711
     39          6           0       -4.188992   -3.610456   -1.191163
     40          6           0       -2.841178   -3.169223   -0.484401
     41          6           0       -6.063957   -2.147259   -2.385274
     42          6           0       -4.593584   -5.056174   -1.257594
     43          6           0       -6.988439   -2.909442   -2.946921
     44          1           0        4.278089   -2.106915    0.061924
     45          1           0        5.067644    0.464884    1.366367
     46          1           0        4.675870   -0.975303    1.913290
     47          1           0        2.704856    1.162100   -0.178497
     48          1           0        3.647114   -0.877022   -1.791271
     49          1           0       -0.431203   -0.107332    3.631794
     50          1           0       -1.399420    0.151655    2.164000
     51          1           0        0.824777    2.595427   -0.010604
     52          1           0        3.275257   -1.609056    3.954033
     53          1           0        1.444308   -1.900456    4.071138
     54          1           0        2.216164   -2.875877    3.021430
     55          1           0        6.730454   -2.603909    1.260904
     56          1           0        7.636153   -1.151494    1.453598
     57          1           0        8.274084   -2.533632    0.660992
     58          1           0       -0.954246   -2.207263    1.430319
     59          1           0       -0.372138   -2.450085    3.002427
     60          1           0       -1.605839   -0.518051   -0.182078
     61          1           0       -2.421676    4.937900   -1.519478
     62          1           0       -0.399471    4.520127   -1.178184
     63          1           0        7.893359   -0.143437   -3.129508
     64          1           0       -1.060372    4.380684    1.352295
     65          1           0       -2.585215    4.807893    1.037409
     66          1           0       -3.930899    4.284472   -1.702939
     67          1           0       -5.085594    3.219135   -0.947154
     68          1           0       -4.535580    2.757658   -2.644589
     69          1           0       -5.085786    0.264285   -1.664860
     70          1           0        9.563656   -1.056938   -0.705684
     71          1           0       10.115408   -0.656077   -2.401391
     72          1           0       -3.833322   -3.096346    3.608692
     73          1           0       -6.264558   -1.049995   -2.231216
     74          1           0       -4.601419   -5.406460   -2.305344
     75          1           0       -3.767820   -5.495852   -0.742422
     76          1           0       -5.644337   -5.272321   -0.987998
     77          1           0       -1.144482    8.035747    1.525796
     78          1           0       -7.893896   -2.329286   -3.368384
     79          1           0       -6.822421   -4.072945   -2.962841
 ---------------------------------------------------------------------

 SCF Done:  E(RB3LYP) =  -1947.85566101     A.U. after   17 cycles

 Excitation energies and oscillator strengths:

 Excited State   1:      Singlet-A      2.1474 eV  577.36 nm  f=0.5665  <S**2>=0.000
     155 ->156         0.70927
     155 <-156        -0.13952
 This state for optimization and/or second-order correction.
 Total Energy, E(TD-HF/TD-KS) =  -1947.77674442
 Copying the excited state density for this state as the 1-particle RhoCI density.

 The electronic state is 1-A.
 Alpha  occ. eigenvalues --  -19.19622 -19.17665 -19.14824 -19.11282 -19.10552
 Alpha  occ. eigenvalues --  -19.09656 -14.38523 -14.36724 -14.36572 -14.29181
 Alpha  occ. eigenvalues --  -10.33567 -10.31145 -10.28805 -10.26190 -10.26182
 Alpha  occ. eigenvalues --  -10.25541 -10.25166 -10.24051 -10.23571 -10.23555
 Alpha  occ. eigenvalues --  -10.23475 -10.22823 -10.22438 -10.22052 -10.21995
 Alpha  occ. eigenvalues --  -10.21660 -10.20975 -10.20851 -10.20773 -10.20588
 Alpha  occ. eigenvalues --  -10.20552 -10.20399 -10.20261 -10.19922 -10.19731
 Alpha  occ. eigenvalues --  -10.19530 -10.19481 -10.19449 -10.19414 -10.19212
 Alpha  occ. eigenvalues --  -10.19029 -10.18298 -10.17836  -1.10236  -1.09265
 Alpha  occ. eigenvalues --   -1.03105  -1.02029  -1.01314  -0.99119  -0.98659
 Alpha  occ. eigenvalues --   -0.95551  -0.95096  -0.92738  -0.83528  -0.82572
 Alpha  occ. eigenvalues --   -0.82316  -0.82104  -0.80141  -0.79400  -0.77905
 Alpha  occ. eigenvalues --   -0.77443  -0.76552  -0.76145  -0.74806  -0.72860
 Alpha  occ. eigenvalues --   -0.72422  -0.71644  -0.70299  -0.69266  -0.68013
 Alpha  occ. eigenvalues --   -0.67011  -0.66070  -0.64443  -0.62485  -0.60703
 Alpha  occ. eigenvalues --   -0.59616  -0.58924  -0.58858  -0.58532  -0.58185
 Alpha  occ. eigenvalues --   -0.56368  -0.55777  -0.54937  -0.53940  -0.53072
 Alpha  occ. eigenvalues --   -0.52480  -0.51586  -0.51240  -0.51005  -0.49776
 Alpha  occ. eigenvalues --   -0.49763  -0.49570  -0.48691  -0.48252  -0.47857
 Alpha  occ. eigenvalues --   -0.47430  -0.47247  -0.46916  -0.46869  -0.45972
 Alpha  occ. eigenvalues --   -0.45778  -0.45496  -0.45180  -0.44683  -0.44040
 Alpha  occ. eigenvalues --   -0.43702  -0.43305  -0.42958  -0.42865  -0.42707
 Alpha  occ. eigenvalues --   -0.42442  -0.42296  -0.42233  -0.41406  -0.41222
 Alpha  occ. eigenvalues --   -0.40934  -0.40575  -0.40498  -0.39831  -0.39807
 Alpha  occ. eigenvalues --   -0.39594  -0.39152  -0.38903  -0.38657  -0.38320
 Alpha  occ. eigenvalues --   -0.37983  -0.37803  -0.37677  -0.37315  -0.36580
 Alpha  occ. eigenvalues --   -0.36366  -0.35341  -0.34519  -0.34275  -0.34179
 Alpha  occ. eigenvalues --   -0.33608  -0.33521  -0.33096  -0.32849  -0.32257
 Alpha  occ. eigenvalues --   -0.31027  -0.30758  -0.30363  -0.28729  -0.27945
 Alpha  occ. eigenvalues --   -0.27189  -0.27058  -0.26288  -0.26104  -0.25766
 Alpha  occ. eigenvalues --   -0.24269  -0.24056  -0.23618  -0.22766  -0.19039
 Alpha virt. eigenvalues --   -0.11111  -0.07114  -0.05594  -0.02002  -0.00710
 Alpha virt. eigenvalues --    0.00394   0.01134   0.01616   0.02143   0.03013
 Alpha virt. eigenvalues --    0.03300   0.04026   0.04362   0.05179   0.05379

 Mulliken charges:
               1
     1  O   -0.228819
     2  O   -0.148356
     3  O   -0.261137
     4  O   -0.209046
     5  O   -0.213471
     6  O   -0.276418
     7  N    0.035695
     8  N   -0.155615
     9  N   -0.229997
    10  N   -0.203507
    11  C    0.046307
    12  C    0.449064
    13  C   -0.189927
    14  C   -0.034253
    15  C   -0.066631
    16  C    0.012739
    17  C   -0.153692
    18  C    0.046453
    19  C   -0.029138
    20  C   -0.066125
    21  C    0.099640
    22  C    0.129904
    23  C   -0.064877
    24  C   -0.062338
    25  C    0.102964
    26  C   -0.142611
    27  C    0.075220
    28  C    0.152825
    29  C    0.012906
    30  C   -0.038743
    31  C   -0.054312
    32  C    0.151860
    33  C   -0.126983
    34  C    0.133177
    35  C    0.058980
    36  C   -0.041479
    37  C    0.199567
    38  C    0.054529
    39  C   -0.268226
    40  C    0.149320
    41  C   -0.004071
    42  C    0.111943
    43  C   -0.061441
    44  H    0.010980
    45  H    0.002212
    46  H   -0.156044
    47  H    0.083148
    48  H    0.143480
    49  H    0.020275
    50  H    0.017993
    51  H   -0.031449
    52  H    0.035505
    53  H    0.029557
    54  H    0.035949
    55  H   -0.021449
    56  H    0.038693
    57  H    0.044967
    58  H    0.029072
    59  H   -0.013895
    60  H    0.230845
    61  H    0.060168
    62  H    0.050542
    63  H    0.031241
    64  H    0.057581
    65  H    0.025019
    66  H    0.001726
    67  H    0.033347
    68  H    0.030076
    69  H   -0.030150
    70  H   -0.000440
    71  H    0.025155
    72  H    0.184197
    73  H    0.000966
    74  H    0.014947
    75  H    0.026081
    76  H    0.023661
    77  H    0.192033
    78  H    0.041255
    79  H    0.040879
 Sum of Mulliken charges =   0.00000

 Dipole moment (field-independent basis, Debye):
    X=              1.1642    Y=              2.1347    Z=              3.7293  Tot=              4.4520
 Quadrupole moment (field-independent basis, Debye-Ang):
   XX=           -220.9915   YY=           -249.8949   ZZ=           -266.8438
   XY=            -16.6094   XZ=             32.2467   YZ=              1.9523

 Normal termination of Gaussian 09 at Wed Jul 10 00:05:44 2019.
