 Gaussian 09, Revision D.01,
 Gaussian 09:  ES64L-G09RevD.01 24-Apr-2013

 --------------------------
 # td=(NStates=1) B3LYP/SVP
 --------------------------

 --
 TD
 --
 Symbolic Z-matrix:
 Charge =  0 Multiplicity = 1

                         Standard orientation:
 ---------------------------------------------------------------------
 Center     Atomic      Atomic             Coordinates (Angstroms)
 Number     Number       Type             X           Y           Z
 ---------------------------------------------------------------------
      1          8           0        5.397525   -0.083605   -3.406734
      2          8           0       -2.754199   -3.367812    3.405685
      3          8           0       -3.258140   -1.073248    3.519215
      4          8           0       -1.578633    7.270123    1.542891
      5          8           0       -0.257912    6.956300   -0.329606
      6          8           0       -2.123061   -4.032207   -0.193894
      7          7           0        2.348048    0.907884    0.714453
      8          7           0        4.502875   -0.505872   -1.240201
      9          7           0       -1.861839    0.758177   -0.382309
     10          7           0       -2.801746   -1.765581   -0.508352
     11          6           0        4.715859   -1.141069   -0.070486
     12          6           0        4.412114   -0.466620    1.252688
     13          6           0        2.945601   -0.199800    1.359768
     14          6           0        1.937253   -0.767777    2.141932
     15          6           0        0.650769   -0.074928    1.953490
     16          6           0        1.017789    0.834847    0.970071
     17          6           0        6.220991   -1.482831   -0.317306
     18          6           0       -0.582390   -0.380509    2.639226
     19          6           0        6.776922   -0.867118   -1.403416
     20          6           0        0.186546    1.826084    0.313545
     21          6           0       -1.128289    1.776251   -0.174460
     22          6           0        5.520508   -0.315439   -2.198938
     23          6           0       -1.865055    3.005812   -0.798710
     24          6           0        2.282882   -1.903551    3.183815
     25          6           0        7.121729   -2.142808    0.648110
     26          6           0       -3.073091    2.448503   -1.278930
     27          6           0       -1.193841   -1.755991    2.482199
     28          6           0       -3.027123    1.017555   -1.013517
     29          6           0       -1.210327    4.397953   -0.783909
     30          6           0        8.078549   -0.693597   -2.093671
     31          6           0       -1.628989    5.097045    0.534457
     32          6           0       -4.194644    3.225481   -1.842546
     33          6           0       -4.039445    0.074177   -1.454240
     34          6           0       -2.429035   -1.923905    3.215836
     35          6           0       -3.852256   -1.235655   -1.122710
     36          6           0        9.307104   -0.986146   -1.541577
     37          6           0       -0.918699    6.571464    0.510910
     38          6           0       -4.840218   -2.386527   -1.569159
     39          6           0       -4.263877   -3.573471   -1.306569
     40          6           0       -2.861045   -3.213817   -0.648219
     41          6           0       -6.145575   -2.123728   -2.081126
     42          6           0       -4.649595   -4.988130   -1.495679
     43          6           0       -6.890126   -2.932518   -2.877884
     44          1           0        4.248006   -2.185322    0.031385
     45          1           0        4.985070    0.453176    1.140385
     46          1           0        4.651421   -0.961475    2.080310
     47          1           0        2.870743    1.360339   -0.048411
     48          1           0        3.592746   -0.291370   -1.678518
     49          1           0       -0.428229   -0.419362    3.819729
     50          1           0       -1.314706    0.457772    2.350213
     51          1           0        0.634537    2.858323   -0.256864
     52          1           0        3.518808   -1.904161    3.522985
     53          1           0        1.579934   -1.775084    3.912417
     54          1           0        2.211405   -2.948357    2.734243
     55          1           0        6.741770   -3.262505    0.971496
     56          1           0        7.066516   -1.440076    1.703626
     57          1           0        8.181572   -2.284814    0.201707
     58          1           0       -1.251497   -2.154833    1.236888
     59          1           0       -0.628187   -2.531897    2.943701
     60          1           0       -1.847264   -0.273835   -0.000466
     61          1           0       -1.811805    4.856548   -1.501301
     62          1           0       -0.159678    4.113104   -1.075305
     63          1           0        7.806018   -0.517716   -3.093574
     64          1           0       -1.504705    4.554675    1.435405
     65          1           0       -2.653588    5.283159    0.573516
     66          1           0       -3.925119    4.246893   -2.219470
     67          1           0       -5.295913    3.091896   -1.481389
     68          1           0       -4.533974    2.683942   -2.860401
     69          1           0       -4.965783    0.690614   -1.852302
     70          1           0        9.474487   -1.354587   -0.487342
     71          1           0       10.216484   -1.048039   -2.238703
     72          1           0       -3.825617   -3.276665    3.634378
     73          1           0       -6.544406   -1.082743   -1.431487
     74          1           0       -4.445635   -5.360482   -2.443031
     75          1           0       -4.123525   -5.582814   -0.563684
     76          1           0       -5.892915   -5.015559   -1.347948
     77          1           0       -0.980159    7.969148    1.658124
     78          1           0       -8.006831   -2.524739   -2.981758
     79          1           0       -6.641945   -3.857241   -3.572131
 ---------------------------------------------------------------------

 SCF Done:  E(RB3LYP) =  -1947.74023115     A.U. after   16 cycles

 Excitation energies and oscillator strengths:

 Excited State   1:      Singlet-A      2.2374 eV  554.15 nm  f=0.5197  <S**2>=0.000
     155 ->156         0.70050
     155 <-156        -0.11539
 This state for optimization and/or second-order correction.
 Total Energy, E(TD-HF/TD-KS) =  -1947.65800934
 Copying the excited state density for this state as the 1-particle RhoCI density.

 The electronic state is 1-A.
 Alpha  occ. eigenvalues --  -19.18376 -19.16388 -19.15783 -19.12875 -19.12338
 Alpha  occ. eigenvalues --  -19.11343 -14.38911 -14.37365 -14.36564 -14.29829
 Alpha  occ. eigenvalues --  -10.33520 -10.31230 -10.30145 -10.27325 -10.25875
 Alpha  occ. eigenvalues --  -10.25122 -10.24513 -10.24342 -10.23473 -10.23316
 Alpha  occ. eigenvalues --  -10.23228 -10.23207 -10.22271 -10.22264 -10.22184
 Alpha  occ. eigenvalues --  -10.21765 -10.21534 -10.21526 -10.21515 -10.21498
 Alpha  occ. eigenvalues --  -10.21496 -10.21378 -10.21250 -10.21187 -10.21064
 Alpha  occ. eigenvalues --  -10.20917 -10.20498 -10.20440 -10.20324 -10.20067
 Alpha  occ. eigenvalues --  -10.20043 -10.19166 -10.19095  -1.12786  -1.04875
 Alpha  occ. eigenvalues --   -1.04638  -1.03065  -1.03055  -1.01020  -0.99051
 Alpha  occ. eigenvalues --   -0.96461  -0.95688  -0.91091  -0.82762  -0.82517
 Alpha  occ. eigenvalues --   -0.82056  -0.81793  -0.80776  -0.79905  -0.77632
 Alpha  occ. eigenvalues --   -0.77467  -0.76565  -0.75434  -0.73925  -0.72516
 Alpha  occ. eigenvalues --   -0.70931  -0.70212  -0.69298  -0.68412  -0.68266
 Alpha  occ. eigenvalues --   -0.68050  -0.66984  -0.63796  -0.61802  -0.60671
 Alpha  occ. eigenvalues --   -0.59792  -0.58281  -0.57919  -0.57301  -0.56516
 Alpha  occ. eigenvalues --   -0.55795  -0.55687  -0.54417  -0.54005  -0.52501
 Alpha  occ. eigenvalues --   -0.52209  -0.51635  -0.51275  -0.50614  -0.50381
 Alpha  occ. eigenvalues --   -0.50142  -0.49561  -0.49304  -0.47845  -0.47250
 Alpha  occ. eigenvalues --   -0.47120  -0.46693  -0.46394  -0.46181  -0.45669
 Alpha  occ. eigenvalues --   -0.45307  -0.44809  -0.44405  -0.44132  -0.44072
 Alpha  occ. eigenvalues --   -0.43492  -0.43282  -0.43003  -0.42834  -0.42655
 Alpha  occ. eigenvalues --   -0.42194  -0.42089  -0.41646  -0.41504  -0.41297
 Alpha  occ. eigenvalues --   -0.40958  -0.40665  -0.40449  -0.40296  -0.39793
 Alpha  occ. eigenvalues --   -0.39579  -0.39251  -0.38905  -0.38600  -0.38255
 Alpha  occ. eigenvalues --   -0.38123  -0.37827  -0.37592  -0.37498  -0.36610
 Alpha  occ. eigenvalues --   -0.36295  -0.35851  -0.35501  -0.34927  -0.34665
 Alpha  occ. eigenvalues --   -0.34410  -0.34208  -0.33126  -0.32495  -0.31674
 Alpha  occ. eigenvalues --   -0.30612  -0.30329  -0.30043  -0.28924  -0.27582
 Alpha  occ. eigenvalues --   -0.27416  -0.27248  -0.26717  -0.25570  -0.25258
 Alpha  occ. eigenvalues --   -0.24314  -0.24129  -0.23662  -0.22563  -0.19232
 Alpha virt. eigenvalues --   -0.10606  -0.06598  -0.05546  -0.01674  -0.00648
 Alpha virt. eigenvalues --   -0.00551  -0.00438   0.00764   0.02185   0.02347
 Alpha virt. eigenvalues --    0.02982   0.03202   0.03584   0.04219   0.04641

 Mulliken charges:
               1
     1  O   -0.236872
     2  O   -0.331717
     3  O   -0.232456
     4  O   -0.195983
     5  O   -0.111970
     6  O   -0.173714
     7  N   -0.077679
     8  N   -0.170395
     9  N    0.016390
    10  N   -0.352402
    11  C    0.086135
    12  C    0.358283
    13  C   -0.119162
    14  C   -0.164972
    15  C   -0.008103
    16  C    0.072907
    17  C   -0.184003
    18  C    0.010069
    19  C   -0.101023
    20  C   -0.118913
    21  C   -0.031269
    22  C    0.165273
    23  C   -0.194050
    24  C    0.047947
    25  C   -0.047322
    26  C   -0.081511
    27  C   -0.034520
    28  C    0.012285
    29  C    0.195601
    30  C    0.061480
    31  C    0.001914
    32  C    0.009304
    33  C   -0.124928
    34  C    0.175725
    35  C    0.149818
    36  C   -0.064974
    37  C    0.139309
    38  C    0.022184
    39  C   -0.188756
    40  C    0.172786
    41  C   -0.059507
    42  C    0.018104
    43  C   -0.100265
    44  H    0.021746
    45  H   -0.014773
    46  H   -0.076739
    47  H    0.124270
    48  H    0.123380
    49  H    0.028658
    50  H    0.035178
    51  H    0.022329
    52  H    0.036455
    53  H    0.003294
    54  H    0.045554
    55  H    0.040976
    56  H    0.059335
    57  H    0.049328
    58  H    0.147682
    59  H    0.011897
    60  H    0.192371
    61  H   -0.021085
    62  H    0.048672
    63  H    0.007018
    64  H    0.024210
    65  H    0.016374
    66  H    0.033596
    67  H    0.046609
    68  H    0.020306
    69  H    0.016013
    70  H    0.049043
    71  H    0.047465
    72  H    0.224040
    73  H    0.045144
    74  H    0.029589
    75  H    0.064245
    76  H    0.037602
    77  H    0.142196
    78  H    0.040326
    79  H    0.068646
 Sum of Mulliken charges =   0.00000

 Dipole moment (field-independent basis, Debye):
    X=              1.6711    Y=              3.5587    Z=              1.8868  Tot=              4.3608
 Quadrupole moment (field-independent basis, Debye-Ang):
   XX=           -230.1440   YY=           -248.9272   ZZ=           -268.3507
   XY=            -13.4443   XZ=             31.4210   YZ=              5.3688

 Normal termination of Gaussian 09 at Wed Jul 10 08:42:16 2019.
