 Gaussian 09, Revision D.01,
 Gaussian 09:  ES64L-G09RevD.01 24-Apr-2013

 --------------------------
 # td=(NStates=1) B3LYP/SVP
 --------------------------

 --
 TD
 --
 Symbolic Z-matrix:
 Charge =  0 Multiplicity = 1

                         Standard orientation:
 ---------------------------------------------------------------------
 Center     Atomic      Atomic             Coordinates (Angstroms)
 Number     Number       Type             X           Y           Z
 ---------------------------------------------------------------------
      1          8           0        5.714128   -0.035833   -3.319308
      2          8           0       -2.841271   -3.120712    3.114910
      3          8           0       -3.241669   -0.922849    3.310246
      4          8           0       -1.892398    7.124563    1.510528
      5          8           0       -0.764614    7.056080   -0.454698
      6          8           0       -1.877943   -4.040962   -0.073638
      7          7           0        2.473087    0.877014    0.577484
      8          7           0        4.496102   -0.581753   -1.303100
      9          7           0       -1.982806    0.707458   -0.222771
     10          7           0       -2.685443   -1.933244   -0.680611
     11          6           0        4.793989   -1.234261   -0.139263
     12          6           0        4.442010   -0.380699    1.183412
     13          6           0        2.996540   -0.109170    1.351453
     14          6           0        2.032341   -0.619680    2.139758
     15          6           0        0.763572   -0.077299    1.796172
     16          6           0        1.027303    0.961047    0.884769
     17          6           0        6.347113   -1.242250   -0.103979
     18          6           0       -0.583492   -0.228395    2.563731
     19          6           0        6.833762   -0.833491   -1.333307
     20          6           0        0.189698    1.881192    0.090963
     21          6           0       -1.135675    1.777371   -0.234519
     22          6           0        5.574745   -0.439058   -2.142127
     23          6           0       -1.909401    2.845498   -0.770906
     24          6           0        2.172314   -1.746691    3.073760
     25          6           0        7.237093   -1.852470    0.943562
     26          6           0       -3.155664    2.417235   -1.237395
     27          6           0       -1.194423   -1.645365    2.554050
     28          6           0       -3.162047    0.959757   -0.854832
     29          6           0       -1.505127    4.323628   -0.890510
     30          6           0        8.115722   -0.670129   -1.959173
     31          6           0       -1.709597    4.986297    0.410126
     32          6           0       -4.262440    3.134342   -1.975024
     33          6           0       -4.007949    0.005771   -1.316129
     34          6           0       -2.476933   -1.742989    2.979396
     35          6           0       -3.793465   -1.422377   -1.127841
     36          6           0        9.364060   -0.781312   -1.494076
     37          6           0       -1.382268    6.496911    0.419995
     38          6           0       -4.694637   -2.515871   -1.520867
     39          6           0       -4.149324   -3.661008   -1.075614
     40          6           0       -2.770219   -3.358926   -0.600079
     41          6           0       -6.040195   -2.298143   -2.197368
     42          6           0       -4.550102   -5.130718   -1.259578
     43          6           0       -6.945161   -3.303138   -2.539194
     44          1           0        4.369826   -2.207875    0.040010
     45          1           0        4.979655    0.580822    1.058957
     46          1           0        4.814149   -0.906508    2.122433
     47          1           0        2.930816    1.494736    0.033504
     48          1           0        3.613229   -0.617046   -1.839864
     49          1           0       -0.145500    0.127975    3.569923
     50          1           0       -1.254566    0.631342    2.308652
     51          1           0        0.704439    2.831292   -0.071110
     52          1           0        3.239412   -1.848588    3.518748
     53          1           0        1.757889   -1.566993    4.170692
     54          1           0        1.827988   -2.528614    2.913469
     55          1           0        6.813224   -2.601434    1.369361
     56          1           0        7.829783   -1.147112    1.554268
     57          1           0        8.139137   -2.524890    0.493814
     58          1           0       -1.288740   -2.052496    1.482378
     59          1           0       -0.474827   -2.388976    3.064078
     60          1           0       -1.798085   -0.369461   -0.136399
     61          1           0       -2.051851    4.783036   -1.740098
     62          1           0       -0.456839    4.524478   -1.131775
     63          1           0        7.987556   -0.553529   -3.045085
     64          1           0       -1.053894    4.731648    1.211484
     65          1           0       -2.698423    4.920478    0.729478
     66          1           0       -3.897596    4.140265   -2.045430
     67          1           0       -5.194462    2.948641   -1.477447
     68          1           0       -4.219275    2.736753   -3.010905
     69          1           0       -5.102223    0.130437   -1.636768
     70          1           0        9.839853   -1.087681   -0.453034
     71          1           0       10.154329   -0.649257   -2.212171
     72          1           0       -3.685311   -3.278301    3.825768
     73          1           0       -6.617852   -1.273220   -2.102254
     74          1           0       -4.858279   -5.424378   -2.399135
     75          1           0       -3.939336   -5.952578   -0.483678
     76          1           0       -5.644581   -5.069287   -0.734029
     77          1           0       -1.613354    7.964746    1.445940
     78          1           0       -7.910962   -3.110402   -2.706747
     79          1           0       -6.744624   -4.330297   -2.704541
 ---------------------------------------------------------------------

 SCF Done:  E(RB3LYP) =  -1947.80011952     A.U. after   16 cycles

 Excitation energies and oscillator strengths:

 Excited State   1:      Singlet-A      2.0207 eV  613.58 nm  f=0.4228  <S**2>=0.000
     155 ->156         0.69641
     155 <-156        -0.10674
 This state for optimization and/or second-order correction.
 Total Energy, E(TD-HF/TD-KS) =  -1947.72586122
 Copying the excited state density for this state as the 1-particle RhoCI density.

 The electronic state is 1-A.
 Alpha  occ. eigenvalues --  -19.18737 -19.14166 -19.13545 -19.11561 -19.11222
 Alpha  occ. eigenvalues --  -19.10594 -14.37263 -14.37103 -14.36290 -14.29076
 Alpha  occ. eigenvalues --  -10.32662 -10.29363 -10.29051 -10.27377 -10.25654
 Alpha  occ. eigenvalues --  -10.24435 -10.24042 -10.23307 -10.23099 -10.22597
 Alpha  occ. eigenvalues --  -10.22537 -10.22454 -10.22296 -10.21901 -10.21862
 Alpha  occ. eigenvalues --  -10.21050 -10.21021 -10.20885 -10.20676 -10.20643
 Alpha  occ. eigenvalues --  -10.20356 -10.20328 -10.20295 -10.20291 -10.20012
 Alpha  occ. eigenvalues --  -10.19960 -10.19672 -10.19645 -10.19582 -10.19553
 Alpha  occ. eigenvalues --  -10.19492 -10.18385 -10.18346  -1.11646  -1.06793
 Alpha  occ. eigenvalues --   -1.02248  -1.01883  -1.00999  -0.98424  -0.97515
 Alpha  occ. eigenvalues --   -0.95961  -0.95905  -0.92999  -0.83165  -0.82018
 Alpha  occ. eigenvalues --   -0.81968  -0.81132  -0.79825  -0.79283  -0.78466
 Alpha  occ. eigenvalues --   -0.78219  -0.76713  -0.75453  -0.74241  -0.73114
 Alpha  occ. eigenvalues --   -0.72016  -0.71504  -0.70325  -0.69249  -0.68785
 Alpha  occ. eigenvalues --   -0.67963  -0.66213  -0.63795  -0.61792  -0.61148
 Alpha  occ. eigenvalues --   -0.60710  -0.59063  -0.58506  -0.58008  -0.56819
 Alpha  occ. eigenvalues --   -0.55977  -0.55720  -0.54642  -0.54054  -0.53213
 Alpha  occ. eigenvalues --   -0.52488  -0.52137  -0.50959  -0.50328  -0.50234
 Alpha  occ. eigenvalues --   -0.49704  -0.49133  -0.48704  -0.47744  -0.47620
 Alpha  occ. eigenvalues --   -0.47302  -0.47018  -0.46513  -0.45983  -0.45609
 Alpha  occ. eigenvalues --   -0.45454  -0.45272  -0.45127  -0.44599  -0.43835
 Alpha  occ. eigenvalues --   -0.43599  -0.43449  -0.43264  -0.42935  -0.42919
 Alpha  occ. eigenvalues --   -0.42567  -0.42319  -0.41726  -0.41239  -0.41218
 Alpha  occ. eigenvalues --   -0.40857  -0.40582  -0.39946  -0.39835  -0.39442
 Alpha  occ. eigenvalues --   -0.39106  -0.38656  -0.38357  -0.38080  -0.37822
 Alpha  occ. eigenvalues --   -0.37697  -0.37471  -0.37373  -0.37097  -0.36883
 Alpha  occ. eigenvalues --   -0.36402  -0.35765  -0.35122  -0.34588  -0.34418
 Alpha  occ. eigenvalues --   -0.33858  -0.33668  -0.33289  -0.32485  -0.31604
 Alpha  occ. eigenvalues --   -0.30784  -0.29365  -0.28885  -0.28676  -0.27575
 Alpha  occ. eigenvalues --   -0.27461  -0.26428  -0.25690  -0.25409  -0.25014
 Alpha  occ. eigenvalues --   -0.24474  -0.24289  -0.23730  -0.22816  -0.18940
 Alpha virt. eigenvalues --   -0.10963  -0.06651  -0.05881  -0.01827   0.00303
 Alpha virt. eigenvalues --    0.00745   0.01314   0.01423   0.03506   0.03782
 Alpha virt. eigenvalues --    0.04073   0.04099   0.04761   0.04917   0.05142

 Mulliken charges:
               1
     1  O   -0.255667
     2  O   -0.345165
     3  O   -0.170388
     4  O   -0.128638
     5  O   -0.220948
     6  O   -0.204614
     7  N   -0.084186
     8  N   -0.128264
     9  N   -0.106163
    10  N   -0.293697
    11  C    0.095251
    12  C    0.144117
    13  C   -0.039800
    14  C   -0.110309
    15  C   -0.120170
    16  C    0.036964
    17  C   -0.199986
    18  C    0.053286
    19  C   -0.015543
    20  C   -0.074434
    21  C    0.148771
    22  C    0.131226
    23  C   -0.113249
    24  C    0.178893
    25  C    0.122170
    26  C   -0.185938
    27  C    0.007239
    28  C    0.132539
    29  C    0.113574
    30  C    0.009140
    31  C    0.065288
    32  C    0.181376
    33  C   -0.091377
    34  C    0.111318
    35  C    0.006221
    36  C   -0.064637
    37  C    0.090893
    38  C    0.054561
    39  C   -0.177486
    40  C    0.188833
    41  C   -0.051096
    42  C   -0.059238
    43  C    0.003260
    44  H    0.016656
    45  H   -0.007239
    46  H    0.015471
    47  H    0.072576
    48  H    0.143639
    49  H    0.031729
    50  H    0.029919
    51  H   -0.011504
    52  H   -0.003475
    53  H   -0.004686
    54  H   -0.075031
    55  H   -0.037285
    56  H    0.045748
    57  H    0.026758
    58  H    0.093346
    59  H    0.056495
    60  H    0.179244
    61  H    0.017419
    62  H    0.002937
    63  H    0.025738
    64  H    0.027208
    65  H    0.009376
    66  H   -0.004678
    67  H    0.035820
    68  H    0.035211
    69  H   -0.003178
    70  H    0.035958
    71  H    0.018173
    72  H    0.228382
    73  H    0.038959
    74  H    0.074653
    75  H    0.082078
    76  H    0.040485
    77  H    0.130016
    78  H   -0.007899
    79  H    0.007055
 Sum of Mulliken charges =   0.00000

 Dipole moment (field-independent basis, Debye):
    X=             -0.6315    Y=              1.2940    Z=              3.1337  Tot=              3.4487
 Quadrupole moment (field-independent basis, Debye-Ang):
   XX=           -221.7138   YY=           -246.6726   ZZ=           -261.3600
   XY=             -9.8001   XZ=             34.8995   YZ=              4.0006

 Normal termination of Gaussian 09 at Sun Jul  7 21:50:55 2019.
