 Gaussian 09, Revision D.01,
 Gaussian 09:  ES64L-G09RevD.01 24-Apr-2013

 --------------------------
 # td=(NStates=1) B3LYP/SVP
 --------------------------

 --
 TD
 --
 Symbolic Z-matrix:
 Charge =  0 Multiplicity = 1

                         Standard orientation:
 ---------------------------------------------------------------------
 Center     Atomic      Atomic             Coordinates (Angstroms)
 Number     Number       Type             X           Y           Z
 ---------------------------------------------------------------------
      1          8           0        5.529107   -0.305566   -3.318861
      2          8           0       -2.957182   -3.086396    2.968294
      3          8           0       -3.075288   -0.796630    3.034864
      4          8           0       -1.419784    7.203800    1.547928
      5          8           0       -0.606429    7.056765   -0.557577
      6          8           0       -2.178418   -4.187911   -0.069703
      7          7           0        2.460929    0.875271    0.627038
      8          7           0        4.583248   -0.469978   -1.296462
      9          7           0       -1.937087    0.731100   -0.247958
     10          7           0       -2.737730   -1.861943   -0.569626
     11          6           0        4.897714   -1.075542   -0.055204
     12          6           0        4.501339   -0.310126    1.214412
     13          6           0        3.061480   -0.106201    1.331440
     14          6           0        2.082237   -0.718986    2.095041
     15          6           0        0.804726   -0.158017    1.811741
     16          6           0        1.044086    0.805994    0.735071
     17          6           0        6.362679   -1.463777   -0.174786
     18          6           0       -0.512167   -0.359559    2.508417
     19          6           0        6.839498   -1.074348   -1.364885
     20          6           0        0.262519    1.801570    0.119894
     21          6           0       -1.103090    1.740535   -0.290781
     22          6           0        5.647428   -0.597024   -2.106220
     23          6           0       -1.832542    2.918629   -0.732466
     24          6           0        2.196091   -1.755759    3.175703
     25          6           0        7.267862   -2.019580    0.921198
     26          6           0       -3.070024    2.462591   -1.191685
     27          6           0       -1.111254   -1.770041    2.250037
     28          6           0       -3.147459    0.940749   -0.833028
     29          6           0       -1.438648    4.403799   -0.811674
     30          6           0        8.088059   -0.905784   -2.072948
     31          6           0       -1.650787    5.082130    0.474703
     32          6           0       -4.299291    3.261792   -1.799649
     33          6           0       -4.128589    0.010953   -1.118149
     34          6           0       -2.431216   -1.836208    2.927668
     35          6           0       -3.968249   -1.353320   -0.986997
     36          6           0        9.319425   -0.848499   -1.594915
     37          6           0       -1.154173    6.555651    0.332114
     38          6           0       -4.870852   -2.440909   -1.378701
     39          6           0       -4.274061   -3.615005   -1.118457
     40          6           0       -2.971035   -3.304587   -0.460986
     41          6           0       -6.233404   -2.126426   -1.968435
     42          6           0       -4.880794   -5.018711   -1.180966
     43          6           0       -7.146785   -3.033789   -2.535618
     44          1           0        4.582301   -2.049895    0.017591
     45          1           0        5.005488    0.654024    1.166962
     46          1           0        4.979214   -0.803194    2.149478
     47          1           0        2.857566    1.518605    0.128956
     48          1           0        3.618781   -0.440122   -1.633385
     49          1           0       -0.207899   -0.326033    3.743228
     50          1           0       -1.227916    0.479558    2.234681
     51          1           0        0.710612    2.799824    0.048671
     52          1           0        3.221470   -1.928227    3.502954
     53          1           0        1.717124   -1.289734    4.101076
     54          1           0        1.861540   -2.613137    2.984927
     55          1           0        6.805416   -2.826624    1.298706
     56          1           0        7.514558   -1.317014    1.578631
     57          1           0        8.112615   -2.361015    0.412001
     58          1           0       -1.016557   -2.321227    1.380103
     59          1           0       -0.598680   -2.576226    2.600790
     60          1           0       -1.572530   -0.280475   -0.334795
     61          1           0       -1.931363    4.904677   -1.711169
     62          1           0       -0.365011    4.298128   -1.024069
     63          1           0        7.887837   -0.484036   -3.162928
     64          1           0       -1.032440    4.660613    1.249048
     65          1           0       -2.497713    5.138260    0.957603
     66          1           0       -4.180919    4.352485   -1.955957
     67          1           0       -5.255756    2.999684   -1.328882
     68          1           0       -4.394824    2.985250   -2.754765
     69          1           0       -5.072738    0.404684   -1.619944
     70          1           0        9.526278   -0.783472   -0.606881
     71          1           0       10.309228   -0.682290   -2.158021
     72          1           0       -3.829850   -3.102695    3.361954
     73          1           0       -6.446555   -1.036053   -2.100752
     74          1           0       -4.738878   -5.392271   -2.283118
     75          1           0       -4.122618   -5.641151   -0.714919
     76          1           0       -5.770087   -4.972604   -0.713701
     77          1           0       -1.128687    8.300928    1.547866
     78          1           0       -8.181446   -2.761281   -2.885268
     79          1           0       -6.963472   -4.054766   -2.632522
 ---------------------------------------------------------------------

 SCF Done:  E(RB3LYP) =  -1947.82153246     A.U. after   17 cycles

 Excitation energies and oscillator strengths:

 Excited State   1:      Singlet-A      1.9827 eV  625.33 nm  f=0.3830  <S**2>=0.000
     154 ->156         0.23459
     155 ->156         0.65960
     155 <-156        -0.11715
 This state for optimization and/or second-order correction.
 Total Energy, E(TD-HF/TD-KS) =  -1947.74866952
 Copying the excited state density for this state as the 1-particle RhoCI density.

 The electronic state is 1-A.
 Alpha  occ. eigenvalues --  -19.17911 -19.17054 -19.14138 -19.10692 -19.10473
 Alpha  occ. eigenvalues --  -19.08666 -14.37956 -14.36998 -14.35806 -14.28888
 Alpha  occ. eigenvalues --  -10.32212 -10.30362 -10.27647 -10.26422 -10.25272
 Alpha  occ. eigenvalues --  -10.24388 -10.24257 -10.23534 -10.23385 -10.22819
 Alpha  occ. eigenvalues --  -10.22644 -10.22304 -10.22180 -10.21823 -10.21471
 Alpha  occ. eigenvalues --  -10.21445 -10.21300 -10.21075 -10.20471 -10.20159
 Alpha  occ. eigenvalues --  -10.20130 -10.20130 -10.19890 -10.19813 -10.19812
 Alpha  occ. eigenvalues --  -10.19540 -10.19265 -10.19239 -10.19032 -10.18978
 Alpha  occ. eigenvalues --  -10.18440 -10.18272 -10.17201  -1.09634  -1.07581
 Alpha  occ. eigenvalues --   -1.01892  -0.99868  -0.99649  -0.99515  -0.99262
 Alpha  occ. eigenvalues --   -0.98713  -0.94355  -0.90012  -0.83392  -0.82960
 Alpha  occ. eigenvalues --   -0.82082  -0.81848  -0.80019  -0.78651  -0.77852
 Alpha  occ. eigenvalues --   -0.77608  -0.77107  -0.76144  -0.74091  -0.73440
 Alpha  occ. eigenvalues --   -0.72737  -0.71981  -0.70600  -0.69406  -0.68245
 Alpha  occ. eigenvalues --   -0.67673  -0.67022  -0.63956  -0.62127  -0.61140
 Alpha  occ. eigenvalues --   -0.60164  -0.59040  -0.58702  -0.58354  -0.57833
 Alpha  occ. eigenvalues --   -0.56969  -0.56083  -0.55566  -0.54573  -0.53642
 Alpha  occ. eigenvalues --   -0.53022  -0.51825  -0.51146  -0.50211  -0.49924
 Alpha  occ. eigenvalues --   -0.49708  -0.48993  -0.48490  -0.48251  -0.48073
 Alpha  occ. eigenvalues --   -0.47210  -0.46695  -0.46656  -0.46095  -0.45936
 Alpha  occ. eigenvalues --   -0.45562  -0.45097  -0.45026  -0.44792  -0.44359
 Alpha  occ. eigenvalues --   -0.44158  -0.43391  -0.43262  -0.43155  -0.42603
 Alpha  occ. eigenvalues --   -0.42471  -0.41774  -0.41750  -0.41385  -0.41072
 Alpha  occ. eigenvalues --   -0.40813  -0.40436  -0.40197  -0.40038  -0.39926
 Alpha  occ. eigenvalues --   -0.39331  -0.39159  -0.39056  -0.38187  -0.38171
 Alpha  occ. eigenvalues --   -0.37825  -0.37808  -0.37560  -0.36954  -0.36797
 Alpha  occ. eigenvalues --   -0.36237  -0.36124  -0.35489  -0.34714  -0.34534
 Alpha  occ. eigenvalues --   -0.34474  -0.33703  -0.32671  -0.32325  -0.31591
 Alpha  occ. eigenvalues --   -0.30562  -0.30412  -0.29299  -0.27940  -0.27313
 Alpha  occ. eigenvalues --   -0.26470  -0.26283  -0.26023  -0.25014  -0.24754
 Alpha  occ. eigenvalues --   -0.24418  -0.23853  -0.23519  -0.21763  -0.18649
 Alpha virt. eigenvalues --   -0.10882  -0.06315  -0.05641  -0.01318   0.00215
 Alpha virt. eigenvalues --    0.00433   0.00772   0.01075   0.01343   0.03104
 Alpha virt. eigenvalues --    0.03639   0.04455   0.04849   0.05288   0.05664

 Mulliken charges:
               1
     1  O   -0.271974
     2  O   -0.173660
     3  O   -0.254617
     4  O   -0.321138
     5  O   -0.151717
     6  O   -0.245944
     7  N   -0.010178
     8  N   -0.117163
     9  N   -0.004742
    10  N   -0.364621
    11  C    0.155892
    12  C    0.180196
    13  C   -0.061528
    14  C   -0.167912
    15  C   -0.068344
    16  C    0.066174
    17  C   -0.316618
    18  C    0.044867
    19  C   -0.013709
    20  C   -0.114665
    21  C    0.015990
    22  C    0.102078
    23  C   -0.136668
    24  C    0.205130
    25  C    0.260003
    26  C   -0.137726
    27  C    0.101266
    28  C    0.074339
    29  C    0.126684
    30  C   -0.005791
    31  C    0.092964
    32  C    0.153071
    33  C   -0.112246
    34  C    0.152547
    35  C    0.111978
    36  C   -0.041361
    37  C    0.126060
    38  C    0.069093
    39  C   -0.252279
    40  C    0.200617
    41  C   -0.028756
    42  C    0.152042
    43  C   -0.029471
    44  H   -0.015961
    45  H   -0.014370
    46  H    0.014770
    47  H    0.045471
    48  H    0.136719
    49  H    0.029168
    50  H    0.059763
    51  H   -0.005708
    52  H   -0.026972
    53  H    0.019833
    54  H   -0.032005
    55  H   -0.020469
    56  H    0.004595
    57  H    0.000837
    58  H    0.012436
    59  H   -0.043313
    60  H    0.186827
    61  H    0.037489
    62  H    0.007579
    63  H    0.056554
    64  H    0.020848
    65  H   -0.022786
    66  H    0.009913
    67  H    0.032321
    68  H   -0.018107
    69  H   -0.009656
    70  H   -0.016340
    71  H    0.040559
    72  H    0.172718
    73  H    0.004522
    74  H    0.037540
    75  H    0.009825
    76  H    0.016696
    77  H    0.239832
    78  H    0.034888
    79  H    0.005819
 Sum of Mulliken charges =   0.00000

 Dipole moment (field-independent basis, Debye):
    X=              0.8451    Y=              2.8802    Z=              4.3662  Tot=              5.2984
 Quadrupole moment (field-independent basis, Debye-Ang):
   XX=           -219.3776   YY=           -241.8397   ZZ=           -264.6526
   XY=             -7.8330   XZ=             37.2917   YZ=             -0.9408

 Normal termination of Gaussian 09 at Tue Jul  9 17:57:40 2019.
