 Gaussian 09, Revision D.01,
 Gaussian 09:  ES64L-G09RevD.01 24-Apr-2013

 --------------------------
 # td=(NStates=1) B3LYP/SVP
 --------------------------

 --
 TD
 --
 Symbolic Z-matrix:
 Charge =  0 Multiplicity = 1

                         Standard orientation:
 ---------------------------------------------------------------------
 Center     Atomic      Atomic             Coordinates (Angstroms)
 Number     Number       Type             X           Y           Z
 ---------------------------------------------------------------------
      1          8           0        5.452483   -0.049680   -3.360707
      2          8           0       -2.922114   -3.015483    3.345118
      3          8           0       -3.215756   -0.776507    3.335002
      4          8           0       -2.153919    7.196476    1.294864
      5          8           0       -1.093915    7.081233   -0.568014
      6          8           0       -1.736187   -4.012538   -0.066141
      7          7           0        2.368316    0.945217    0.710667
      8          7           0        4.421318   -0.567283   -1.314914
      9          7           0       -1.840140    0.559372   -0.309749
     10          7           0       -2.499757   -1.975825   -0.464775
     11          6           0        4.833456   -1.272900   -0.084415
     12          6           0        4.430927   -0.379934    1.122183
     13          6           0        3.019328   -0.004752    1.294604
     14          6           0        2.024846   -0.638983    2.066689
     15          6           0        0.774621    0.008852    1.826907
     16          6           0        1.041385    1.022417    0.824581
     17          6           0        6.298866   -1.206662   -0.223440
     18          6           0       -0.514351   -0.161954    2.532660
     19          6           0        6.771370   -0.701072   -1.409443
     20          6           0        0.183852    1.902443    0.109298
     21          6           0       -1.138616    1.754838   -0.316955
     22          6           0        5.457773   -0.474059   -2.166450
     23          6           0       -1.929269    2.756342   -0.779816
     24          6           0        2.335239   -1.641181    3.176895
     25          6           0        7.206010   -1.625263    0.958747
     26          6           0       -3.200598    2.221643   -1.134213
     27          6           0       -1.093980   -1.597091    2.588112
     28          6           0       -3.070947    0.794072   -0.966392
     29          6           0       -1.557150    4.292964   -0.935872
     30          6           0        8.047620   -0.480714   -1.965933
     31          6           0       -2.045330    5.055343    0.362613
     32          6           0       -4.376913    2.844563   -1.791786
     33          6           0       -3.936264   -0.254415   -1.234914
     34          6           0       -2.437890   -1.669022    3.187194
     35          6           0       -3.613602   -1.580076   -1.069163
     36          6           0        9.221222   -0.348608   -1.351770
     37          6           0       -1.703123    6.475019    0.291144
     38          6           0       -4.523733   -2.689394   -1.550556
     39          6           0       -3.925725   -3.811767   -1.216810
     40          6           0       -2.566028   -3.356296   -0.575423
     41          6           0       -5.819007   -2.400194   -2.194241
     42          6           0       -4.172405   -5.331766   -1.282100
     43          6           0       -6.703787   -3.407398   -2.598138
     44          1           0        4.546128   -2.159381    0.107355
     45          1           0        4.991723    0.447494    1.249621
     46          1           0        4.904433   -0.756873    2.147506
     47          1           0        2.801861    1.344027   -0.273198
     48          1           0        3.492002   -1.025476   -1.657084
     49          1           0       -0.561631    0.224481    3.506696
     50          1           0       -1.156118    0.398888    2.081700
     51          1           0        0.739825    2.910496   -0.134191
     52          1           0        3.286682   -1.702663    3.431082
     53          1           0        1.918011   -1.393084    4.309793
     54          1           0        1.988415   -2.736964    2.858538
     55          1           0        6.807784   -2.221089    1.676702
     56          1           0        7.532180   -0.539587    1.584002
     57          1           0        8.037158   -2.222311    0.557513
     58          1           0       -1.079535   -2.149107    1.566473
     59          1           0       -0.684106   -2.503443    3.218850
     60          1           0       -1.566294   -0.375019   -0.286146
     61          1           0       -2.163927    4.825308   -1.894551
     62          1           0       -0.381051    4.168731   -1.083647
     63          1           0        7.965972   -0.329953   -3.014397
     64          1           0       -1.543037    4.692716    1.244333
     65          1           0       -3.066491    4.885740    0.635656
     66          1           0       -4.361264    4.029503   -1.810305
     67          1           0       -5.308348    2.694762   -1.231556
     68          1           0       -4.644907    2.596444   -2.771698
     69          1           0       -4.840816   -0.181454   -1.886642
     70          1           0        9.368787   -0.656559   -0.234985
     71          1           0       10.320838   -0.138073   -1.969460
     72          1           0       -4.039990   -3.076509    3.342727
     73          1           0       -6.201132   -1.350588   -2.349889
     74          1           0       -4.141574   -5.637185   -2.311037
     75          1           0       -3.554521   -5.804871   -0.560960
     76          1           0       -5.047119   -5.512432   -0.862963
     77          1           0       -1.773856    8.068294    1.247196
     78          1           0       -7.604829   -2.929686   -3.386067
     79          1           0       -6.680930   -4.572929   -2.199318
 ---------------------------------------------------------------------

 SCF Done:  E(RB3LYP) =  -1947.75461452     A.U. after   17 cycles

 Excitation energies and oscillator strengths:

 Excited State   1:      Singlet-A      2.1768 eV  569.58 nm  f=0.5851  <S**2>=0.000
     155 ->156         0.70379
     155 <-156        -0.13090
 This state for optimization and/or second-order correction.
 Total Energy, E(TD-HF/TD-KS) =  -1947.67461995
 Copying the excited state density for this state as the 1-particle RhoCI density.

 The electronic state is 1-A.
 Alpha  occ. eigenvalues --  -19.17853 -19.14604 -19.11867 -19.10874 -19.10506
 Alpha  occ. eigenvalues --  -19.09731 -14.39996 -14.38059 -14.35400 -14.28304
 Alpha  occ. eigenvalues --  -10.31795 -10.29702 -10.29593 -10.25467 -10.25137
 Alpha  occ. eigenvalues --  -10.24228 -10.24184 -10.24088 -10.23393 -10.23364
 Alpha  occ. eigenvalues --  -10.23331 -10.23064 -10.22811 -10.22433 -10.22387
 Alpha  occ. eigenvalues --  -10.22185 -10.22096 -10.21600 -10.21474 -10.21294
 Alpha  occ. eigenvalues --  -10.21186 -10.21001 -10.20299 -10.20212 -10.20169
 Alpha  occ. eigenvalues --  -10.19852 -10.19754 -10.19559 -10.19530 -10.19398
 Alpha  occ. eigenvalues --  -10.18006 -10.17633 -10.17595  -1.11486  -1.05044
 Alpha  occ. eigenvalues --   -1.03448  -1.02085  -1.01685  -0.99731  -0.97881
 Alpha  occ. eigenvalues --   -0.95246  -0.95206  -0.92090  -0.83459  -0.82827
 Alpha  occ. eigenvalues --   -0.82213  -0.81053  -0.80433  -0.80203  -0.78849
 Alpha  occ. eigenvalues --   -0.78191  -0.76173  -0.75994  -0.74707  -0.73290
 Alpha  occ. eigenvalues --   -0.71841  -0.71323  -0.70227  -0.70039  -0.68657
 Alpha  occ. eigenvalues --   -0.68054  -0.67197  -0.64770  -0.62335  -0.61175
 Alpha  occ. eigenvalues --   -0.60281  -0.58535  -0.57809  -0.56933  -0.56703
 Alpha  occ. eigenvalues --   -0.55937  -0.55414  -0.54703  -0.54540  -0.53603
 Alpha  occ. eigenvalues --   -0.53255  -0.52166  -0.51373  -0.51126  -0.50138
 Alpha  occ. eigenvalues --   -0.49764  -0.49107  -0.47989  -0.47794  -0.47333
 Alpha  occ. eigenvalues --   -0.46954  -0.46473  -0.46383  -0.45603  -0.45418
 Alpha  occ. eigenvalues --   -0.45197  -0.44719  -0.44444  -0.44160  -0.44048
 Alpha  occ. eigenvalues --   -0.43337  -0.43012  -0.42676  -0.42540  -0.42206
 Alpha  occ. eigenvalues --   -0.41933  -0.41722  -0.41523  -0.41338  -0.40740
 Alpha  occ. eigenvalues --   -0.40639  -0.40471  -0.40282  -0.39941  -0.39848
 Alpha  occ. eigenvalues --   -0.39419  -0.39228  -0.38625  -0.38459  -0.38212
 Alpha  occ. eigenvalues --   -0.38147  -0.37897  -0.37068  -0.36780  -0.36446
 Alpha  occ. eigenvalues --   -0.36092  -0.35736  -0.35448  -0.35100  -0.34626
 Alpha  occ. eigenvalues --   -0.34481  -0.33981  -0.32775  -0.32110  -0.31998
 Alpha  occ. eigenvalues --   -0.31390  -0.29263  -0.28832  -0.28491  -0.27907
 Alpha  occ. eigenvalues --   -0.27727  -0.25753  -0.25717  -0.25516  -0.24994
 Alpha  occ. eigenvalues --   -0.24764  -0.24334  -0.23831  -0.22729  -0.18894
 Alpha virt. eigenvalues --   -0.10762  -0.06652  -0.06121  -0.01258  -0.00877
 Alpha virt. eigenvalues --    0.00313   0.00907   0.01247   0.01809   0.02316
 Alpha virt. eigenvalues --    0.02960   0.03341   0.03774   0.03851   0.04056

 Mulliken charges:
               1
     1  O   -0.268702
     2  O   -0.343267
     3  O   -0.208547
     4  O   -0.147030
     5  O   -0.241863
     6  O   -0.152822
     7  N    0.004263
     8  N   -0.176411
     9  N   -0.069537
    10  N   -0.253866
    11  C    0.247498
    12  C    0.173213
    13  C   -0.119071
    14  C   -0.125191
    15  C   -0.128091
    16  C    0.008665
    17  C   -0.241509
    18  C    0.320197
    19  C    0.016624
    20  C   -0.149098
    21  C    0.156543
    22  C    0.137195
    23  C   -0.107268
    24  C    0.073466
    25  C    0.061130
    26  C   -0.081736
    27  C   -0.098425
    28  C    0.117839
    29  C    0.013552
    30  C    0.029329
    31  C    0.063901
    32  C    0.078332
    33  C   -0.107915
    34  C    0.159043
    35  C    0.023834
    36  C   -0.110643
    37  C    0.095528
    38  C    0.075638
    39  C   -0.278066
    40  C    0.101069
    41  C   -0.046753
    42  C    0.228666
    43  C   -0.128263
    44  H   -0.052227
    45  H   -0.054136
    46  H    0.015642
    47  H    0.161193
    48  H    0.167994
    49  H   -0.013101
    50  H   -0.084929
    51  H    0.020365
    52  H   -0.055149
    53  H    0.032860
    54  H    0.047438
    55  H   -0.013023
    56  H    0.062807
    57  H    0.046319
    58  H    0.098470
    59  H    0.038985
    60  H    0.108088
    61  H    0.066552
    62  H    0.052851
    63  H   -0.001937
    64  H    0.028768
    65  H    0.035108
    66  H    0.011462
    67  H    0.015425
    68  H    0.020438
    69  H   -0.028449
    70  H    0.041047
    71  H    0.062752
    72  H    0.237256
    73  H    0.026915
    74  H    0.033568
    75  H    0.002251
    76  H   -0.031148
    77  H    0.171696
    78  H    0.054355
    79  H    0.072042
 Sum of Mulliken charges =   0.00000

 Dipole moment (field-independent basis, Debye):
    X=              1.6080    Y=              0.8043    Z=              2.4249  Tot=              3.0187
 Quadrupole moment (field-independent basis, Debye-Ang):
   XX=           -216.9363   YY=           -251.4660   ZZ=           -269.3119
   XY=            -12.0248   XZ=             36.3257   YZ=             10.1030

 Normal termination of Gaussian 09 at Tue Jul  9 04:07:46 2019.
