 Gaussian 09, Revision D.01,
 Gaussian 09:  ES64L-G09RevD.01 24-Apr-2013

 --------------------------
 # td=(NStates=1) B3LYP/SVP
 --------------------------

 --
 TD
 --
 Symbolic Z-matrix:
 Charge =  0 Multiplicity = 1

                         Standard orientation:
 ---------------------------------------------------------------------
 Center     Atomic      Atomic             Coordinates (Angstroms)
 Number     Number       Type             X           Y           Z
 ---------------------------------------------------------------------
      1          8           0        5.249027   -0.126976   -3.363674
      2          8           0       -2.782397   -3.008774    3.519232
      3          8           0       -3.312094   -0.857716    3.379124
      4          8           0       -1.938740    7.151232    1.413393
      5          8           0       -0.958444    7.005598   -0.602647
      6          8           0       -1.752410   -4.077356   -0.012903
      7          7           0        2.374004    1.044506    0.590265
      8          7           0        4.402144   -0.580216   -1.243874
      9          7           0       -1.836238    0.519471   -0.478733
     10          7           0       -2.562025   -1.957547   -0.503777
     11          6           0        4.875221   -1.124867    0.040005
     12          6           0        4.505148   -0.143084    1.253765
     13          6           0        3.082042    0.111342    1.352637
     14          6           0        1.996828   -0.465739    2.121696
     15          6           0        0.822792    0.071360    1.896520
     16          6           0        1.056656    1.046571    0.889925
     17          6           0        6.349384   -1.167186   -0.202328
     18          6           0       -0.491574   -0.186272    2.613704
     19          6           0        6.689670   -0.746793   -1.453374
     20          6           0        0.182978    1.920737    0.169981
     21          6           0       -1.111003    1.810240   -0.320970
     22          6           0        5.438729   -0.437393   -2.201900
     23          6           0       -1.937996    2.791314   -0.962578
     24          6           0        2.321928   -1.493448    3.199979
     25          6           0        7.282788   -1.648813    0.914104
     26          6           0       -3.167562    2.246498   -1.364310
     27          6           0       -1.083335   -1.631101    2.627053
     28          6           0       -2.994240    0.806332   -1.039096
     29          6           0       -1.658270    4.302684   -0.924017
     30          6           0        7.945111   -0.799736   -2.146332
     31          6           0       -2.073279    5.037338    0.345933
     32          6           0       -4.360057    2.901783   -1.944647
     33          6           0       -4.024148   -0.110627   -1.327594
     34          6           0       -2.496803   -1.724028    3.190121
     35          6           0       -3.724809   -1.503400   -1.080860
     36          6           0        9.194484   -0.742748   -1.546439
     37          6           0       -1.632363    6.502699    0.249141
     38          6           0       -4.604110   -2.731682   -1.544589
     39          6           0       -3.908089   -3.822357   -1.033081
     40          6           0       -2.643651   -3.315825   -0.460302
     41          6           0       -5.939380   -2.548003   -2.079666
     42          6           0       -4.292393   -5.244055   -1.139051
     43          6           0       -6.493816   -3.562078   -2.864392
     44          1           0        4.535597   -2.156445    0.101055
     45          1           0        5.008951    0.723126    1.115174
     46          1           0        4.776344   -0.661050    2.186873
     47          1           0        2.747049    1.479251   -0.125211
     48          1           0        3.551505   -0.565308   -1.617506
     49          1           0       -0.139655   -0.002693    3.622300
     50          1           0       -1.350843    0.583051    2.189150
     51          1           0        0.631138    2.901175   -0.112245
     52          1           0        3.332195   -1.555808    3.595973
     53          1           0        1.629192   -1.112984    4.235298
     54          1           0        1.876739   -2.527964    3.062592
     55          1           0        6.687500   -2.113576    1.799665
     56          1           0        7.698599   -0.788313    1.450177
     57          1           0        8.046926   -2.073758    0.399378
     58          1           0       -0.987547   -2.351662    1.727551
     59          1           0       -0.547757   -2.324224    3.316917
     60          1           0       -1.528985   -0.418532   -0.153286
     61          1           0       -2.126861    4.758901   -1.778298
     62          1           0       -0.478963    4.467310   -0.882227
     63          1           0        7.890880   -0.713728   -3.210793
     64          1           0       -1.592231    4.352997    1.105332
     65          1           0       -3.156084    5.020718    0.585268
     66          1           0       -4.284512    3.864971   -2.401425
     67          1           0       -5.092645    2.762766   -0.940115
     68          1           0       -4.758853    2.321487   -2.898205
     69          1           0       -4.851307    0.301854   -1.802839
     70          1           0        9.463239   -0.492060   -0.440932
     71          1           0       10.237267   -1.022520   -2.115436
     72          1           0       -3.625140   -3.059865    3.817946
     73          1           0       -6.358879   -1.436924   -1.928274
     74          1           0       -3.817626   -5.817798   -2.054339
     75          1           0       -3.636620   -5.646284   -0.374152
     76          1           0       -5.350493   -5.296514   -0.896605
     77          1           0       -2.025568    8.232743    1.269034
     78          1           0       -7.669531   -3.283609   -3.277179
     79          1           0       -6.059032   -4.618254   -3.152208
 ---------------------------------------------------------------------

 SCF Done:  E(RB3LYP) =  -1947.86028877     A.U. after   18 cycles

 Excitation energies and oscillator strengths:

 Excited State   1:      Singlet-A      2.1653 eV  572.61 nm  f=0.4701  <S**2>=0.000
     154 ->156         0.21117
     155 ->156         0.66939
 This state for optimization and/or second-order correction.
 Total Energy, E(TD-HF/TD-KS) =  -1947.78071690
 Copying the excited state density for this state as the 1-particle RhoCI density.

 The electronic state is 1-A.
 Alpha  occ. eigenvalues --  -19.18634 -19.15699 -19.13955 -19.11270 -19.10713
 Alpha  occ. eigenvalues --  -19.09108 -14.38662 -14.36762 -14.34446 -14.28799
 Alpha  occ. eigenvalues --  -10.32986 -10.30731 -10.28800 -10.25744 -10.25397
 Alpha  occ. eigenvalues --  -10.24964 -10.24700 -10.23904 -10.23588 -10.23374
 Alpha  occ. eigenvalues --  -10.22997 -10.22697 -10.22678 -10.22394 -10.22224
 Alpha  occ. eigenvalues --  -10.22138 -10.21886 -10.21732 -10.21672 -10.21575
 Alpha  occ. eigenvalues --  -10.21535 -10.21482 -10.21285 -10.21206 -10.21074
 Alpha  occ. eigenvalues --  -10.20569 -10.19895 -10.19663 -10.19403 -10.19147
 Alpha  occ. eigenvalues --  -10.18768 -10.18605 -10.18127  -1.09084  -1.09056
 Alpha  occ. eigenvalues --   -1.02798  -1.00469  -1.00444  -0.99515  -0.98958
 Alpha  occ. eigenvalues --   -0.97463  -0.94108  -0.90194  -0.83193  -0.83005
 Alpha  occ. eigenvalues --   -0.82922  -0.81989  -0.80099  -0.79423  -0.78249
 Alpha  occ. eigenvalues --   -0.77081  -0.76449  -0.75557  -0.74112  -0.72466
 Alpha  occ. eigenvalues --   -0.72311  -0.71082  -0.69493  -0.68670  -0.67751
 Alpha  occ. eigenvalues --   -0.67575  -0.66609  -0.63467  -0.61298  -0.60902
 Alpha  occ. eigenvalues --   -0.59600  -0.59085  -0.58680  -0.58110  -0.57672
 Alpha  occ. eigenvalues --   -0.57087  -0.55211  -0.54996  -0.54291  -0.53302
 Alpha  occ. eigenvalues --   -0.52865  -0.51723  -0.51022  -0.50515  -0.49793
 Alpha  occ. eigenvalues --   -0.49091  -0.48671  -0.48186  -0.47899  -0.47499
 Alpha  occ. eigenvalues --   -0.47148  -0.46544  -0.46304  -0.46212  -0.45926
 Alpha  occ. eigenvalues --   -0.45572  -0.45142  -0.44945  -0.44134  -0.43858
 Alpha  occ. eigenvalues --   -0.43503  -0.43092  -0.42897  -0.42854  -0.42105
 Alpha  occ. eigenvalues --   -0.41915  -0.41717  -0.41404  -0.41107  -0.41035
 Alpha  occ. eigenvalues --   -0.40867  -0.40506  -0.40383  -0.40172  -0.39914
 Alpha  occ. eigenvalues --   -0.39419  -0.39298  -0.38850  -0.38765  -0.38386
 Alpha  occ. eigenvalues --   -0.38282  -0.37906  -0.37704  -0.36717  -0.36461
 Alpha  occ. eigenvalues --   -0.36331  -0.35669  -0.35261  -0.34474  -0.33887
 Alpha  occ. eigenvalues --   -0.33574  -0.33062  -0.32894  -0.32508  -0.31738
 Alpha  occ. eigenvalues --   -0.31090  -0.30769  -0.29336  -0.28150  -0.26995
 Alpha  occ. eigenvalues --   -0.26857  -0.26395  -0.26312  -0.25979  -0.25753
 Alpha  occ. eigenvalues --   -0.24192  -0.23634  -0.23132  -0.21513  -0.19077
 Alpha virt. eigenvalues --   -0.10477  -0.06746  -0.06315  -0.01917  -0.01320
 Alpha virt. eigenvalues --   -0.00313   0.00548   0.01326   0.01937   0.02646
 Alpha virt. eigenvalues --    0.02863   0.04030   0.04347   0.04596   0.04768

 Mulliken charges:
               1
     1  O   -0.214315
     2  O   -0.143328
     3  O   -0.222534
     4  O   -0.268321
     5  O   -0.192897
     6  O   -0.258636
     7  N    0.020832
     8  N   -0.206403
     9  N   -0.080778
    10  N   -0.277096
    11  C    0.132179
    12  C    0.328728
    13  C   -0.129458
    14  C   -0.103566
    15  C   -0.032054
    16  C    0.019037
    17  C   -0.233182
    18  C    0.078497
    19  C   -0.026252
    20  C   -0.092937
    21  C    0.087580
    22  C    0.137206
    23  C   -0.067566
    24  C   -0.011057
    25  C    0.131788
    26  C   -0.113530
    27  C   -0.047672
    28  C    0.082116
    29  C    0.046225
    30  C    0.017255
    31  C   -0.028521
    32  C    0.027376
    33  C   -0.084400
    34  C    0.116002
    35  C    0.101739
    36  C   -0.128675
    37  C    0.165080
    38  C    0.017475
    39  C   -0.210588
    40  C    0.159052
    41  C   -0.045972
    42  C    0.093553
    43  C   -0.111386
    44  H    0.029219
    45  H   -0.045758
    46  H   -0.006009
    47  H    0.051340
    48  H    0.079594
    49  H    0.010510
    50  H    0.063186
    51  H   -0.005073
    52  H    0.017375
    53  H    0.015579
    54  H    0.051493
    55  H    0.028153
    56  H    0.027673
    57  H    0.017868
    58  H    0.086675
    59  H    0.016780
    60  H    0.165686
    61  H    0.009514
    62  H    0.034930
    63  H    0.017051
    64  H    0.056458
    65  H    0.034078
    66  H    0.018661
    67  H    0.076609
    68  H    0.052300
    69  H   -0.066947
    70  H    0.046191
    71  H    0.054091
    72  H    0.131697
    73  H    0.050106
    74  H    0.047057
    75  H    0.009202
    76  H    0.031139
    77  H    0.238097
    78  H    0.044411
    79  H    0.080464
 Sum of Mulliken charges =   0.00000

 Dipole moment (field-independent basis, Debye):
    X=              1.1676    Y=              3.7150    Z=              3.0192  Tot=              4.9275
 Quadrupole moment (field-independent basis, Debye-Ang):
   XX=           -215.6805   YY=           -245.2896   ZZ=           -265.8063
   XY=            -20.1875   XZ=             33.4519   YZ=              1.7023

 Normal termination of Gaussian 09 at Mon Jul  8 03:16:29 2019.
