 Gaussian 09, Revision D.01,
 Gaussian 09:  ES64L-G09RevD.01 24-Apr-2013

 --------------------------
 # td=(NStates=1) B3LYP/SVP
 --------------------------

 --
 TD
 --
 Symbolic Z-matrix:
 Charge =  0 Multiplicity = 1

                         Standard orientation:
 ---------------------------------------------------------------------
 Center     Atomic      Atomic             Coordinates (Angstroms)
 Number     Number       Type             X           Y           Z
 ---------------------------------------------------------------------
      1          8           0        5.508420    0.013929   -3.341418
      2          8           0       -2.887158   -3.079879    3.479251
      3          8           0       -3.399409   -0.939930    3.158161
      4          8           0       -1.652924    7.235160    1.533557
      5          8           0       -0.753343    7.101637   -0.567298
      6          8           0       -1.944369   -3.954438   -0.000834
      7          7           0        2.358456    0.944039    0.656552
      8          7           0        4.446905   -0.532265   -1.327531
      9          7           0       -1.911277    0.635276   -0.404062
     10          7           0       -2.732174   -1.881680   -0.457759
     11          6           0        4.764366   -1.179777   -0.063922
     12          6           0        4.393536   -0.361982    1.235789
     13          6           0        2.940406   -0.012688    1.358292
     14          6           0        2.044605   -0.714218    2.109595
     15          6           0        0.800583   -0.101401    1.824382
     16          6           0        0.961766    0.905621    0.846496
     17          6           0        6.325558   -1.396281   -0.283720
     18          6           0       -0.509224   -0.278068    2.594464
     19          6           0        6.746019   -0.865235   -1.419422
     20          6           0        0.148762    1.893252    0.239580
     21          6           0       -1.090259    1.753459   -0.309033
     22          6           0        5.502686   -0.388842   -2.149530
     23          6           0       -1.881527    2.888080   -0.743061
     24          6           0        2.220289   -1.798326    3.166621
     25          6           0        7.105830   -2.117216    0.787617
     26          6           0       -3.072195    2.351503   -1.193707
     27          6           0       -1.118226   -1.676985    2.698458
     28          6           0       -3.096536    0.934236   -0.895004
     29          6           0       -1.381032    4.242190   -0.773059
     30          6           0        8.057116   -0.881897   -2.097600
     31          6           0       -1.502604    5.066824    0.511432
     32          6           0       -4.197204    3.098963   -1.937589
     33          6           0       -4.027698   -0.021449   -1.274214
     34          6           0       -2.600702   -1.875147    3.131741
     35          6           0       -3.821731   -1.430379   -1.111564
     36          6           0        9.266936   -0.832210   -1.417397
     37          6           0       -1.242560    6.477057    0.404292
     38          6           0       -4.671015   -2.575334   -1.648302
     39          6           0       -4.143492   -3.660703   -1.157419
     40          6           0       -2.839008   -3.197948   -0.468713
     41          6           0       -5.997223   -2.269339   -2.258850
     42          6           0       -4.464208   -5.136799   -1.397358
     43          6           0       -6.769979   -3.088388   -2.893773
     44          1           0        4.075142   -1.901635    0.044206
     45          1           0        5.110631    0.713615    1.318715
     46          1           0        4.704307   -0.773194    2.188018
     47          1           0        2.828508    1.378114   -0.149886
     48          1           0        3.460564   -0.317624   -1.693416
     49          1           0       -0.245762    0.072083    3.683405
     50          1           0       -1.360956    0.248386    2.099491
     51          1           0        0.703604    2.959637    0.017751
     52          1           0        3.306830   -1.726075    3.678580
     53          1           0        1.544157   -1.382580    4.060055
     54          1           0        1.995894   -2.767514    2.934940
     55          1           0        6.612114   -3.269961    1.192950
     56          1           0        7.133829   -1.145611    1.561888
     57          1           0        8.240843   -2.274264    0.323986
     58          1           0       -1.026996   -2.300175    1.677170
     59          1           0       -0.537326   -2.282770    3.541089
     60          1           0       -1.605726   -0.282910   -0.365247
     61          1           0       -1.868277    4.847789   -1.599691
     62          1           0       -0.160688    4.306791   -0.961549
     63          1           0        8.001664   -0.776138   -3.333802
     64          1           0       -0.697878    4.559445    1.382650
     65          1           0       -2.556512    5.017581    0.762429
     66          1           0       -3.922696    4.216908   -2.152547
     67          1           0       -4.965201    3.252838   -1.383519
     68          1           0       -4.541235    2.544466   -2.924194
     69          1           0       -4.924249    0.274332   -1.766420
     70          1           0        9.255518   -0.858453   -0.437811
     71          1           0       10.043285   -0.751375   -2.078449
     72          1           0       -3.699796   -3.040896    3.982952
     73          1           0       -6.353777   -1.319596   -2.206402
     74          1           0       -4.533813   -5.265621   -2.494148
     75          1           0       -3.859377   -5.813744   -0.793436
     76          1           0       -5.631900   -5.188910   -1.067679
     77          1           0       -1.331958    8.102744    1.279629
     78          1           0       -7.745778   -2.569515   -3.213409
     79          1           0       -6.662288   -4.158998   -2.963170
 ---------------------------------------------------------------------

 SCF Done:  E(RB3LYP) =  -1947.82474061     A.U. after   18 cycles

 Excitation energies and oscillator strengths:

 Excited State   1:      Singlet-A      2.2880 eV  541.90 nm  f=0.5048  <S**2>=0.000
     154 ->156        -0.11517
     155 ->156         0.69352
     155 <-156        -0.11231
 This state for optimization and/or second-order correction.
 Total Energy, E(TD-HF/TD-KS) =  -1947.74065923
 Copying the excited state density for this state as the 1-particle RhoCI density.

 The electronic state is 1-A.
 Alpha  occ. eigenvalues --  -19.18251 -19.18170 -19.14135 -19.10313 -19.09514
 Alpha  occ. eigenvalues --  -19.09173 -14.39036 -14.36938 -14.36908 -14.28786
 Alpha  occ. eigenvalues --  -10.33554 -10.30613 -10.28674 -10.25640 -10.25634
 Alpha  occ. eigenvalues --  -10.24977 -10.24963 -10.24507 -10.23765 -10.23737
 Alpha  occ. eigenvalues --  -10.23406 -10.23378 -10.23347 -10.23307 -10.22926
 Alpha  occ. eigenvalues --  -10.22811 -10.21972 -10.21755 -10.21606 -10.21387
 Alpha  occ. eigenvalues --  -10.20821 -10.20426 -10.20226 -10.20219 -10.20190
 Alpha  occ. eigenvalues --  -10.19984 -10.19613 -10.19505 -10.19442 -10.19150
 Alpha  occ. eigenvalues --  -10.19092 -10.19040 -10.18715  -1.11059  -1.08422
 Alpha  occ. eigenvalues --   -1.01022  -1.00727  -1.00192  -0.99442  -0.99289
 Alpha  occ. eigenvalues --   -0.98441  -0.94017  -0.92104  -0.84645  -0.82466
 Alpha  occ. eigenvalues --   -0.82300  -0.81695  -0.81248  -0.79971  -0.79595
 Alpha  occ. eigenvalues --   -0.77144  -0.76237  -0.75624  -0.75311  -0.73442
 Alpha  occ. eigenvalues --   -0.71778  -0.70730  -0.70139  -0.69886  -0.69252
 Alpha  occ. eigenvalues --   -0.67541  -0.66730  -0.64192  -0.61842  -0.60780
 Alpha  occ. eigenvalues --   -0.59972  -0.59557  -0.58558  -0.58248  -0.57438
 Alpha  occ. eigenvalues --   -0.57187  -0.55748  -0.54937  -0.54117  -0.53380
 Alpha  occ. eigenvalues --   -0.52663  -0.51745  -0.51448  -0.51244  -0.50489
 Alpha  occ. eigenvalues --   -0.49437  -0.49029  -0.48450  -0.48120  -0.47722
 Alpha  occ. eigenvalues --   -0.47557  -0.47306  -0.46840  -0.46741  -0.46315
 Alpha  occ. eigenvalues --   -0.45956  -0.45665  -0.44513  -0.43881  -0.43679
 Alpha  occ. eigenvalues --   -0.43512  -0.43113  -0.42890  -0.42875  -0.42427
 Alpha  occ. eigenvalues --   -0.42307  -0.42073  -0.41823  -0.41491  -0.41249
 Alpha  occ. eigenvalues --   -0.41144  -0.40952  -0.40639  -0.39889  -0.39527
 Alpha  occ. eigenvalues --   -0.39039  -0.38855  -0.38578  -0.38396  -0.38327
 Alpha  occ. eigenvalues --   -0.37922  -0.37601  -0.37361  -0.36980  -0.36847
 Alpha  occ. eigenvalues --   -0.36490  -0.35764  -0.35298  -0.34754  -0.34401
 Alpha  occ. eigenvalues --   -0.33587  -0.32956  -0.32538  -0.32334  -0.31798
 Alpha  occ. eigenvalues --   -0.31382  -0.30774  -0.29173  -0.29075  -0.27371
 Alpha  occ. eigenvalues --   -0.26785  -0.26463  -0.25997  -0.25581  -0.25130
 Alpha  occ. eigenvalues --   -0.24764  -0.24413  -0.23779  -0.23191  -0.19693
 Alpha virt. eigenvalues --   -0.10903  -0.05928  -0.05424  -0.03293  -0.00330
 Alpha virt. eigenvalues --    0.00228   0.00694   0.01173   0.01918   0.02116
 Alpha virt. eigenvalues --    0.02653   0.03674   0.04214   0.04375   0.05131

 Mulliken charges:
               1
     1  O   -0.271038
     2  O   -0.103527
     3  O   -0.265015
     4  O   -0.218432
     5  O   -0.259704
     6  O   -0.255804
     7  N   -0.042493
     8  N   -0.213280
     9  N    0.023170
    10  N   -0.204569
    11  C    0.233566
    12  C    0.071041
    13  C   -0.142989
    14  C   -0.100891
    15  C   -0.076173
    16  C    0.057793
    17  C   -0.150684
    18  C    0.072533
    19  C   -0.004267
    20  C   -0.166693
    21  C    0.099629
    22  C    0.137811
    23  C    0.002786
    24  C    0.069886
    25  C   -0.084578
    26  C   -0.153460
    27  C   -0.120139
    28  C    0.121438
    29  C   -0.039773
    30  C   -0.107345
    31  C    0.006478
    32  C    0.136744
    33  C   -0.092195
    34  C    0.119753
    35  C    0.034330
    36  C    0.086834
    37  C    0.153878
    38  C    0.072260
    39  C   -0.204970
    40  C    0.111186
    41  C    0.021747
    42  C    0.064969
    43  C   -0.031945
    44  H   -0.029210
    45  H    0.011940
    46  H    0.001791
    47  H    0.121209
    48  H    0.151143
    49  H    0.030332
    50  H    0.029731
    51  H    0.032993
    52  H    0.020261
    53  H    0.034993
    54  H    0.033051
    55  H    0.080444
    56  H    0.075287
    57  H    0.065933
    58  H    0.099753
    59  H    0.022637
    60  H    0.108054
    61  H    0.036900
    62  H    0.044676
    63  H    0.070786
    64  H    0.095620
    65  H    0.040744
    66  H    0.013584
    67  H   -0.027096
    68  H    0.051388
    69  H   -0.047112
    70  H   -0.027251
    71  H    0.011455
    72  H    0.172181
    73  H   -0.047024
    74  H    0.045265
    75  H    0.045894
    76  H    0.032923
    77  H    0.173860
    78  H    0.027201
    79  H    0.007799
 Sum of Mulliken charges =   0.00000

 Dipole moment (field-independent basis, Debye):
    X=              0.0367    Y=              1.2997    Z=              3.3755  Tot=              3.6173
 Quadrupole moment (field-independent basis, Debye-Ang):
   XX=           -228.1628   YY=           -256.4666   ZZ=           -261.6033
   XY=             -7.7649   XZ=             32.4233   YZ=              0.5815

 Normal termination of Gaussian 09 at Wed Jul 10 14:26:47 2019.
