 Gaussian 09, Revision D.01,
 Gaussian 09:  ES64L-G09RevD.01 24-Apr-2013

 --------------------------
 # td=(NStates=1) B3LYP/SVP
 --------------------------

 --
 TD
 --
 Symbolic Z-matrix:
 Charge =  0 Multiplicity = 1

                         Standard orientation:
 ---------------------------------------------------------------------
 Center     Atomic      Atomic             Coordinates (Angstroms)
 Number     Number       Type             X           Y           Z
 ---------------------------------------------------------------------
      1          8           0        5.428555   -0.223377   -3.380949
      2          8           0       -2.972686   -3.045517    2.994264
      3          8           0       -3.263269   -0.785426    3.096792
      4          8           0       -1.683756    7.280531    1.365912
      5          8           0       -0.752663    7.070552   -0.601300
      6          8           0       -2.009719   -4.092789    0.039653
      7          7           0        2.404303    0.868834    0.568863
      8          7           0        4.447882   -0.533473   -1.286932
      9          7           0       -1.951710    0.664875   -0.292171
     10          7           0       -2.685559   -1.893467   -0.369655
     11          6           0        4.922107   -1.183258    0.068623
     12          6           0        4.476152   -0.329285    1.218288
     13          6           0        3.093170   -0.075750    1.330294
     14          6           0        2.029251   -0.678632    2.133976
     15          6           0        0.838982    0.006087    1.917157
     16          6           0        1.041577    0.937419    0.734974
     17          6           0        6.363450   -1.299914   -0.185243
     18          6           0       -0.509614   -0.182436    2.590118
     19          6           0        6.735897   -0.875654   -1.458307
     20          6           0        0.170434    1.868114    0.145397
     21          6           0       -1.108814    1.809460   -0.223714
     22          6           0        5.423991   -0.510383   -2.226506
     23          6           0       -1.906686    2.919829   -0.729766
     24          6           0        2.298854   -1.761556    3.175083
     25          6           0        7.056913   -2.055305    0.842264
     26          6           0       -3.077654    2.329533   -1.263932
     27          6           0       -1.101005   -1.766389    2.448426
     28          6           0       -3.139687    0.945201   -0.941038
     29          6           0       -1.423303    4.319233   -0.789204
     30          6           0        8.010840   -0.698878   -2.072214
     31          6           0       -1.633455    4.977952    0.488954
     32          6           0       -4.274110    3.032566   -1.918124
     33          6           0       -3.956739   -0.040776   -1.237767
     34          6           0       -2.559305   -1.731318    2.894861
     35          6           0       -3.746385   -1.428800   -0.977598
     36          6           0        9.197573   -0.708817   -1.422749
     37          6           0       -1.258974    6.515635    0.382988
     38          6           0       -4.731759   -2.577788   -1.395776
     39          6           0       -4.118709   -3.666458   -1.124905
     40          6           0       -2.783909   -3.326821   -0.484574
     41          6           0       -6.074727   -2.251757   -1.963260
     42          6           0       -4.393806   -5.072770   -1.346444
     43          6           0       -6.808594   -3.218560   -2.582539
     44          1           0        4.325506   -2.093457    0.385115
     45          1           0        5.045646    0.568457    1.082080
     46          1           0        4.752135   -0.803427    2.096015
     47          1           0        2.860594    1.537665   -0.114652
     48          1           0        3.374142   -0.613314   -1.472677
     49          1           0       -0.577615   -0.103462    3.717502
     50          1           0       -1.378100    0.510890    2.341192
     51          1           0        0.857582    2.911393   -0.132564
     52          1           0        3.360400   -1.676503    3.665970
     53          1           0        1.687546   -1.832567    4.070648
     54          1           0        2.006381   -2.570230    2.683683
     55          1           0        6.677531   -2.910352    1.307848
     56          1           0        7.393829   -1.345233    1.704062
     57          1           0        8.170547   -2.318787    0.492360
     58          1           0       -1.281068   -2.062800    1.363702
     59          1           0       -0.523590   -2.506842    3.066052
     60          1           0       -1.654788   -0.355154   -0.218233
     61          1           0       -2.217228    4.929148   -1.496241
     62          1           0       -0.278220    4.342261   -1.064835
     63          1           0        7.994304   -0.598568   -2.992981
     64          1           0       -0.882184    4.493017    1.218779
     65          1           0       -2.471598    5.075039    0.887609
     66          1           0       -4.280160    4.191900   -1.889539
     67          1           0       -5.121794    2.802986   -1.171713
     68          1           0       -4.347954    2.605194   -2.789605
     69          1           0       -4.826308    0.325353   -1.776243
     70          1           0        9.259604   -0.702250   -0.257653
     71          1           0       10.143214   -0.633984   -1.850259
     72          1           0       -3.902034   -2.932177    3.258700
     73          1           0       -6.593942   -1.165215   -1.705692
     74          1           0       -4.287415   -5.292227   -2.376489
     75          1           0       -3.827451   -5.874397   -1.070889
     76          1           0       -5.523809   -5.386076   -1.152037
     77          1           0       -1.448995    8.092589    1.196035
     78          1           0       -7.751687   -3.137570   -3.004465
     79          1           0       -6.520849   -4.168815   -2.622739
 ---------------------------------------------------------------------

 SCF Done:  E(RB3LYP) =  -1947.78522589     A.U. after   16 cycles

 Excitation energies and oscillator strengths:

 Excited State   1:      Singlet-A      2.1172 eV  585.59 nm  f=0.4976  <S**2>=0.000
     155 ->156         0.70580
     155 <-156        -0.10848
 This state for optimization and/or second-order correction.
 Total Energy, E(TD-HF/TD-KS) =  -1947.70741860
 Copying the excited state density for this state as the 1-particle RhoCI density.

 The electronic state is 1-A.
 Alpha  occ. eigenvalues --  -19.18710 -19.16191 -19.12479 -19.11937 -19.11488
 Alpha  occ. eigenvalues --  -19.10272 -14.39445 -14.36115 -14.35140 -14.30085
 Alpha  occ. eigenvalues --  -10.32631 -10.30327 -10.28627 -10.27336 -10.25170
 Alpha  occ. eigenvalues --  -10.24046 -10.23814 -10.23563 -10.23464 -10.23299
 Alpha  occ. eigenvalues --  -10.22700 -10.22381 -10.22283 -10.21806 -10.21334
 Alpha  occ. eigenvalues --  -10.21179 -10.20945 -10.20879 -10.20645 -10.20461
 Alpha  occ. eigenvalues --  -10.20382 -10.20220 -10.20159 -10.20004 -10.19951
 Alpha  occ. eigenvalues --  -10.19940 -10.19423 -10.19354 -10.19286 -10.18796
 Alpha  occ. eigenvalues --  -10.18736 -10.18498 -10.18161  -1.13244  -1.07801
 Alpha  occ. eigenvalues --   -1.03609  -1.02711  -1.00042  -0.99612  -0.97953
 Alpha  occ. eigenvalues --   -0.96758  -0.92933  -0.92682  -0.83864  -0.83148
 Alpha  occ. eigenvalues --   -0.82092  -0.81777  -0.81029  -0.79914  -0.78633
 Alpha  occ. eigenvalues --   -0.77857  -0.76595  -0.75614  -0.74539  -0.72672
 Alpha  occ. eigenvalues --   -0.71143  -0.70923  -0.70647  -0.69764  -0.68938
 Alpha  occ. eigenvalues --   -0.66735  -0.65916  -0.64624  -0.62817  -0.61804
 Alpha  occ. eigenvalues --   -0.60707  -0.59160  -0.57582  -0.57176  -0.56167
 Alpha  occ. eigenvalues --   -0.55763  -0.55744  -0.54736  -0.54391  -0.54164
 Alpha  occ. eigenvalues --   -0.52994  -0.51937  -0.51399  -0.50751  -0.50326
 Alpha  occ. eigenvalues --   -0.49483  -0.48851  -0.48662  -0.48175  -0.47584
 Alpha  occ. eigenvalues --   -0.47256  -0.46988  -0.46723  -0.46488  -0.45965
 Alpha  occ. eigenvalues --   -0.45753  -0.45245  -0.45080  -0.44910  -0.44337
 Alpha  occ. eigenvalues --   -0.43977  -0.43718  -0.43481  -0.43313  -0.43154
 Alpha  occ. eigenvalues --   -0.42718  -0.42363  -0.42230  -0.41997  -0.41202
 Alpha  occ. eigenvalues --   -0.40972  -0.40386  -0.40262  -0.40028  -0.39787
 Alpha  occ. eigenvalues --   -0.39620  -0.39272  -0.38985  -0.38627  -0.38140
 Alpha  occ. eigenvalues --   -0.38110  -0.37659  -0.37508  -0.36637  -0.36373
 Alpha  occ. eigenvalues --   -0.35929  -0.35511  -0.35170  -0.34523  -0.34421
 Alpha  occ. eigenvalues --   -0.34301  -0.34055  -0.32811  -0.32492  -0.31796
 Alpha  occ. eigenvalues --   -0.31699  -0.31183  -0.29490  -0.28353  -0.28074
 Alpha  occ. eigenvalues --   -0.27271  -0.27057  -0.25718  -0.25185  -0.24855
 Alpha  occ. eigenvalues --   -0.24634  -0.24296  -0.23560  -0.23135  -0.18583
 Alpha virt. eigenvalues --   -0.10332  -0.06542  -0.06010  -0.01477  -0.00587
 Alpha virt. eigenvalues --    0.00327   0.01426   0.01985   0.02442   0.03356
 Alpha virt. eigenvalues --    0.03649   0.04130   0.04872   0.05173   0.05193

 Mulliken charges:
               1
     1  O   -0.187447
     2  O   -0.200020
     3  O   -0.217899
     4  O   -0.068294
     5  O   -0.262359
     6  O   -0.172939
     7  N   -0.094340
     8  N   -0.265618
     9  N   -0.157427
    10  N   -0.288910
    11  C    0.030740
    12  C    0.321714
    13  C   -0.124035
    14  C   -0.129720
    15  C   -0.023796
    16  C    0.013855
    17  C   -0.094482
    18  C   -0.000685
    19  C   -0.057582
    20  C   -0.162263
    21  C    0.166442
    22  C    0.166760
    23  C   -0.063820
    24  C    0.113035
    25  C    0.039568
    26  C   -0.146870
    27  C   -0.057652
    28  C    0.114799
    29  C    0.048668
    30  C    0.108882
    31  C    0.092044
    32  C    0.113930
    33  C   -0.106602
    34  C    0.127141
    35  C    0.084431
    36  C   -0.019819
    37  C    0.089559
    38  C    0.068825
    39  C   -0.179075
    40  C    0.164215
    41  C   -0.061672
    42  C    0.121892
    43  C    0.052614
    44  H    0.023158
    45  H   -0.029502
    46  H   -0.041875
    47  H    0.131323
    48  H    0.157785
    49  H    0.007823
    50  H    0.043657
    51  H    0.024319
    52  H    0.034670
    53  H    0.006182
    54  H    0.003371
    55  H    0.022980
    56  H    0.031055
    57  H    0.029545
    58  H    0.096058
    59  H    0.038455
    60  H    0.169943
    61  H    0.035489
    62  H    0.053317
    63  H   -0.108499
    64  H    0.048463
    65  H   -0.047685
    66  H    0.029594
    67  H    0.042399
    68  H   -0.000238
    69  H   -0.049959
    70  H    0.028045
    71  H    0.011916
    72  H    0.161525
    73  H    0.051176
    74  H    0.004105
    75  H   -0.016375
    76  H    0.028776
    77  H    0.116779
    78  H    0.002186
    79  H   -0.035751
 Sum of Mulliken charges =   0.00000

 Dipole moment (field-independent basis, Debye):
    X=             -0.2480    Y=              1.0042    Z=              2.9672  Tot=              3.1423
 Quadrupole moment (field-independent basis, Debye-Ang):
   XX=           -217.5419   YY=           -247.5670   ZZ=           -264.5008
   XY=             -6.1232   XZ=             34.9928   YZ=              8.6366

 Normal termination of Gaussian 09 at Sun Jul  7 18:19:32 2019.
