 Gaussian 09, Revision D.01,
 Gaussian 09:  ES64L-G09RevD.01 24-Apr-2013

 --------------------------
 # td=(NStates=1) B3LYP/SVP
 --------------------------

 --
 TD
 --
 Symbolic Z-matrix:
 Charge =  0 Multiplicity = 1

                         Standard orientation:
 ---------------------------------------------------------------------
 Center     Atomic      Atomic             Coordinates (Angstroms)
 Number     Number       Type             X           Y           Z
 ---------------------------------------------------------------------
      1          8           0        5.597404   -0.164495   -3.355017
      2          8           0       -2.783385   -3.025427    3.155351
      3          8           0       -3.189733   -0.745043    3.093809
      4          8           0       -1.680173    7.155256    1.573965
      5          8           0       -0.965305    7.082251   -0.588875
      6          8           0       -2.053615   -4.156712   -0.101895
      7          7           0        2.359398    0.908625    0.532226
      8          7           0        4.546335   -0.578818   -1.404752
      9          7           0       -1.725419    0.630084   -0.466591
     10          7           0       -2.705833   -2.021431   -0.496209
     11          6           0        4.879598   -1.141593   -0.062411
     12          6           0        4.442668   -0.311147    1.176864
     13          6           0        2.985117   -0.008070    1.365054
     14          6           0        1.998691   -0.675114    2.135618
     15          6           0        0.743615   -0.074879    1.684210
     16          6           0        1.032522    0.918173    0.654988
     17          6           0        6.461458   -1.296834   -0.160319
     18          6           0       -0.521788   -0.214329    2.455471
     19          6           0        6.851968   -0.812898   -1.307982
     20          6           0        0.220131    1.932005    0.129880
     21          6           0       -1.046680    1.838385   -0.334765
     22          6           0        5.723709   -0.497115   -2.147809
     23          6           0       -1.982526    2.889557   -0.822730
     24          6           0        2.237625   -1.727974    3.101005
     25          6           0        7.243519   -1.902951    0.991564
     26          6           0       -3.108871    2.286516   -1.214773
     27          6           0       -1.002586   -1.722594    2.595233
     28          6           0       -3.032219    0.907915   -0.926243
     29          6           0       -1.580380    4.415777   -0.934199
     30          6           0        8.117049   -0.723969   -1.940103
     31          6           0       -1.892585    5.081224    0.400907
     32          6           0       -4.363852    2.936792   -1.766829
     33          6           0       -3.947839   -0.037791   -1.220965
     34          6           0       -2.448840   -1.760302    3.007431
     35          6           0       -3.774820   -1.456176   -1.008536
     36          6           0        9.342476   -0.655443   -1.393895
     37          6           0       -1.403150    6.553099    0.405449
     38          6           0       -4.840136   -2.546608   -1.349615
     39          6           0       -4.291010   -3.700359   -1.021183
     40          6           0       -2.887568   -3.377261   -0.464494
     41          6           0       -6.113100   -2.379896   -1.921465
     42          6           0       -4.606038   -5.177384   -1.148608
     43          6           0       -6.856636   -3.145489   -2.650420
     44          1           0        4.485545   -2.106375    0.067662
     45          1           0        5.175989    0.574262    1.244415
     46          1           0        4.756429   -0.938231    2.148751
     47          1           0        2.853929    1.170933   -0.345408
     48          1           0        3.657138   -0.914407   -1.840751
     49          1           0       -0.519993    0.243005    3.560827
     50          1           0       -1.462306    0.372482    2.142775
     51          1           0        0.489303    2.971081   -0.341067
     52          1           0        3.268431   -1.605314    3.213251
     53          1           0        1.571780   -1.643912    4.023664
     54          1           0        1.918956   -2.783306    2.571800
     55          1           0        6.908798   -2.579301    1.539312
     56          1           0        7.346295   -1.048439    1.666982
     57          1           0        8.302316   -2.029321    0.726736
     58          1           0       -0.917513   -2.199555    1.678142
     59          1           0       -0.466981   -2.300843    3.320243
     60          1           0       -1.456539   -0.298523   -0.363518
     61          1           0       -2.098782    4.957000   -1.637434
     62          1           0       -0.562408    4.561493   -1.221180
     63          1           0        7.851836   -0.674002   -3.097808
     64          1           0       -1.322945    4.680764    1.245211
     65          1           0       -2.938326    4.945048    0.886997
     66          1           0       -4.274261    4.027161   -1.791396
     67          1           0       -5.200775    2.784249   -1.103590
     68          1           0       -4.772632    2.588785   -2.787945
     69          1           0       -5.098094    0.330672   -1.292712
     70          1           0        9.547422   -0.683150   -0.323763
     71          1           0       10.181837   -0.644798   -1.987350
     72          1           0       -3.595990   -3.264800    3.414360
     73          1           0       -6.411495   -1.262736   -1.768730
     74          1           0       -4.468197   -5.594003   -2.253651
     75          1           0       -3.872361   -5.673936   -0.599086
     76          1           0       -5.572482   -5.271742   -1.002557
     77          1           0       -1.279565    8.204800    1.437309
     78          1           0       -7.867931   -3.014214   -3.118500
     79          1           0       -6.356468   -4.096290   -3.221383
 ---------------------------------------------------------------------

 SCF Done:  E(RB3LYP) =  -1947.86255660     A.U. after   16 cycles

 Excitation energies and oscillator strengths:

 Excited State   1:      Singlet-A      2.1644 eV  572.82 nm  f=0.4944  <S**2>=0.000
     155 ->156         0.70445
     155 <-156        -0.11110
 This state for optimization and/or second-order correction.
 Total Energy, E(TD-HF/TD-KS) =  -1947.78301489
 Copying the excited state density for this state as the 1-particle RhoCI density.

 The electronic state is 1-A.
 Alpha  occ. eigenvalues --  -19.20214 -19.17643 -19.13493 -19.11103 -19.10519
 Alpha  occ. eigenvalues --  -19.10397 -14.37913 -14.35785 -14.35602 -14.28978
 Alpha  occ. eigenvalues --  -10.32609 -10.31261 -10.28898 -10.25956 -10.25081
 Alpha  occ. eigenvalues --  -10.24082 -10.23802 -10.23742 -10.23315 -10.23283
 Alpha  occ. eigenvalues --  -10.23001 -10.22867 -10.21614 -10.21567 -10.21071
 Alpha  occ. eigenvalues --  -10.20690 -10.20539 -10.20408 -10.20370 -10.20299
 Alpha  occ. eigenvalues --  -10.20240 -10.20125 -10.19985 -10.19838 -10.19503
 Alpha  occ. eigenvalues --  -10.19461 -10.19394 -10.19370 -10.19245 -10.19179
 Alpha  occ. eigenvalues --  -10.18701 -10.17793 -10.17703  -1.09965  -1.09393
 Alpha  occ. eigenvalues --   -1.02671  -1.01522  -1.00963  -0.98664  -0.98140
 Alpha  occ. eigenvalues --   -0.97331  -0.92910  -0.92514  -0.83785  -0.82579
 Alpha  occ. eigenvalues --   -0.81977  -0.81256  -0.80965  -0.79483  -0.78026
 Alpha  occ. eigenvalues --   -0.77470  -0.76365  -0.75716  -0.74809  -0.73753
 Alpha  occ. eigenvalues --   -0.72459  -0.71202  -0.69816  -0.69368  -0.68320
 Alpha  occ. eigenvalues --   -0.68011  -0.65950  -0.64394  -0.62385  -0.61568
 Alpha  occ. eigenvalues --   -0.60434  -0.59931  -0.58793  -0.57935  -0.57013
 Alpha  occ. eigenvalues --   -0.56141  -0.55332  -0.54643  -0.53594  -0.52906
 Alpha  occ. eigenvalues --   -0.52208  -0.51525  -0.51274  -0.50151  -0.49549
 Alpha  occ. eigenvalues --   -0.49066  -0.48852  -0.48649  -0.48308  -0.47688
 Alpha  occ. eigenvalues --   -0.47339  -0.46639  -0.46460  -0.46177  -0.45839
 Alpha  occ. eigenvalues --   -0.45704  -0.45311  -0.44887  -0.44468  -0.44119
 Alpha  occ. eigenvalues --   -0.43433  -0.43068  -0.42928  -0.42708  -0.42607
 Alpha  occ. eigenvalues --   -0.42333  -0.41950  -0.41694  -0.41313  -0.40818
 Alpha  occ. eigenvalues --   -0.40472  -0.40325  -0.40173  -0.39911  -0.39664
 Alpha  occ. eigenvalues --   -0.39611  -0.39228  -0.38977  -0.38573  -0.38115
 Alpha  occ. eigenvalues --   -0.37832  -0.37768  -0.37144  -0.37066  -0.36646
 Alpha  occ. eigenvalues --   -0.35749  -0.35500  -0.35316  -0.35029  -0.34309
 Alpha  occ. eigenvalues --   -0.34229  -0.33212  -0.33119  -0.32407  -0.31825
 Alpha  occ. eigenvalues --   -0.31355  -0.30882  -0.29084  -0.29028  -0.27214
 Alpha  occ. eigenvalues --   -0.26826  -0.26441  -0.26325  -0.25996  -0.25056
 Alpha  occ. eigenvalues --   -0.24198  -0.24097  -0.23728  -0.22619  -0.18545
 Alpha virt. eigenvalues --   -0.10147  -0.06260  -0.05522  -0.00658  -0.00258
 Alpha virt. eigenvalues --   -0.00051   0.00080   0.01088   0.01210   0.02214
 Alpha virt. eigenvalues --    0.03284   0.04077   0.04913   0.05222   0.05900

 Mulliken charges:
               1
     1  O   -0.257282
     2  O   -0.103562
     3  O   -0.276880
     4  O   -0.245330
     5  O   -0.230047
     6  O   -0.175524
     7  N   -0.050226
     8  N   -0.208203
     9  N   -0.081980
    10  N   -0.209563
    11  C    0.127440
    12  C    0.067541
    13  C   -0.065182
    14  C   -0.132525
    15  C   -0.045988
    16  C    0.077015
    17  C   -0.225962
    18  C   -0.034473
    19  C   -0.028435
    20  C   -0.088658
    21  C    0.034539
    22  C    0.156756
    23  C   -0.074113
    24  C    0.091914
    25  C    0.236646
    26  C   -0.112082
    27  C    0.033525
    28  C    0.133897
    29  C    0.197488
    30  C   -0.031285
    31  C   -0.062798
    32  C    0.099153
    33  C   -0.162999
    34  C    0.149798
    35  C    0.068593
    36  C   -0.000667
    37  C    0.155059
    38  C    0.032247
    39  C   -0.256232
    40  C    0.108286
    41  C    0.008417
    42  C    0.187344
    43  C   -0.113295
    44  H   -0.005042
    45  H    0.016425
    46  H    0.014436
    47  H    0.133423
    48  H    0.150933
    49  H    0.016938
    50  H    0.043086
    51  H    0.005205
    52  H   -0.014979
    53  H    0.041971
    54  H    0.057307
    55  H   -0.046785
    56  H    0.017167
    57  H    0.014383
    58  H    0.033604
    59  H    0.008623
    60  H    0.107320
    61  H   -0.013614
    62  H    0.008986
    63  H    0.049512
    64  H    0.027422
    65  H    0.057261
    66  H    0.003909
    67  H    0.016881
    68  H    0.039245
    69  H    0.030919
    70  H    0.014739
    71  H    0.008669
    72  H    0.135331
    73  H   -0.000588
    74  H    0.031695
    75  H    0.010762
    76  H   -0.022870
    77  H    0.242642
    78  H    0.036412
    79  H    0.036309
 Sum of Mulliken charges =   0.00000

 Dipole moment (field-independent basis, Debye):
    X=              1.1332    Y=              1.2603    Z=              3.9004  Tot=              4.2527
 Quadrupole moment (field-independent basis, Debye-Ang):
   XX=           -219.3333   YY=           -240.8013   ZZ=           -262.6080
   XY=            -11.9679   XZ=             32.4580   YZ=              2.5434

 Normal termination of Gaussian 09 at Mon Jul  8 18:34:56 2019.
