 Gaussian 09, Revision D.01,
 Gaussian 09:  ES64L-G09RevD.01 24-Apr-2013

 --------------------------
 # td=(NStates=1) B3LYP/SVP
 --------------------------

 --
 TD
 --
 Symbolic Z-matrix:
 Charge =  0 Multiplicity = 1

                         Standard orientation:
 ---------------------------------------------------------------------
 Center     Atomic      Atomic             Coordinates (Angstroms)
 Number     Number       Type             X           Y           Z
 ---------------------------------------------------------------------
      1          8           0        5.394670   -0.181154   -3.389214
      2          8           0       -2.887321   -3.170034    3.384826
      3          8           0       -3.199194   -0.986000    3.213818
      4          8           0       -1.793032    7.270109    1.456826
      5          8           0       -0.506449    7.059262   -0.431610
      6          8           0       -1.866441   -4.036150   -0.108066
      7          7           0        2.325012    0.805708    0.539961
      8          7           0        4.427759   -0.663430   -1.272255
      9          7           0       -1.907169    0.714217   -0.312111
     10          7           0       -2.722180   -1.841746   -0.423631
     11          6           0        4.798841   -1.269711    0.007423
     12          6           0        4.382249   -0.404155    1.254745
     13          6           0        2.955252   -0.097706    1.357800
     14          6           0        1.990651   -0.697823    2.208862
     15          6           0        0.724133   -0.113752    1.814124
     16          6           0        0.972918    0.813527    0.801853
     17          6           0        6.389570   -1.258669   -0.226475
     18          6           0       -0.517092   -0.359620    2.542344
     19          6           0        6.683728   -0.743453   -1.431805
     20          6           0        0.214379    1.903240    0.197964
     21          6           0       -1.097578    1.848871   -0.281444
     22          6           0        5.522173   -0.405673   -2.151603
     23          6           0       -1.964796    2.879213   -0.818849
     24          6           0        2.233327   -1.644379    3.372306
     25          6           0        7.188527   -1.858306    0.875207
     26          6           0       -3.242302    2.347735   -1.059752
     27          6           0       -1.067430   -1.854703    2.523354
     28          6           0       -3.117363    0.885902   -0.862375
     29          6           0       -1.374476    4.339398   -0.928658
     30          6           0        8.027596   -0.607793   -2.058950
     31          6           0       -1.889484    5.217891    0.303285
     32          6           0       -4.337033    3.070328   -1.648607
     33          6           0       -4.098249   -0.054984   -1.287828
     34          6           0       -2.398403   -1.913506    3.112710
     35          6           0       -3.929854   -1.438537   -1.031554
     36          6           0        9.269016   -0.531436   -1.576273
     37          6           0       -1.304439    6.616815    0.402347
     38          6           0       -4.769806   -2.647666   -1.503334
     39          6           0       -3.938934   -3.705334   -1.210210
     40          6           0       -2.738181   -3.246392   -0.553093
     41          6           0       -6.069523   -2.233994   -2.192301
     42          6           0       -4.284133   -5.090410   -1.402614
     43          6           0       -6.682163   -3.117724   -2.896530
     44          1           0        4.581274   -2.300056    0.063762
     45          1           0        4.714927    0.695984    0.993452
     46          1           0        4.772438   -1.148335    2.041832
     47          1           0        2.805851    1.107958   -0.409766
     48          1           0        3.580007   -0.930297   -1.633274
     49          1           0       -0.421052   -0.018381    3.597789
     50          1           0       -1.219004    0.218209    2.101122
     51          1           0        0.647763    2.825637    0.080111
     52          1           0        3.335364   -1.578873    3.594661
     53          1           0        1.650513   -1.121681    4.340280
     54          1           0        2.098838   -2.769182    3.119739
     55          1           0        6.612562   -2.444489    1.468439
     56          1           0        7.634530   -1.003764    1.659618
     57          1           0        7.954657   -2.502833    0.423793
     58          1           0       -1.393352   -2.209284    1.525203
     59          1           0       -0.354000   -2.625007    2.868059
     60          1           0       -1.564989   -0.370924   -0.203170
     61          1           0       -1.812119    4.540279   -1.948882
     62          1           0       -0.440491    4.461905   -1.027080
     63          1           0        7.967868   -0.396395   -3.139885
     64          1           0       -1.479664    4.750563    1.265781
     65          1           0       -2.912028    5.342325    0.453789
     66          1           0       -4.117425    4.073221   -1.789328
     67          1           0       -5.449741    2.721453   -1.159307
     68          1           0       -4.499287    2.620964   -2.534251
     69          1           0       -5.096350    0.455142   -1.474932
     70          1           0        9.632707   -0.796258   -0.579528
     71          1           0       10.094390   -0.368499   -2.262671
     72          1           0       -3.849461   -2.920603    3.734318
     73          1           0       -6.432558   -1.240970   -2.273172
     74          1           0       -3.775457   -5.588792   -2.349515
     75          1           0       -3.757437   -5.679184   -0.467592
     76          1           0       -5.336008   -5.396403   -1.604541
     77          1           0       -1.295197    8.153522    1.293643
     78          1           0       -7.775095   -2.939711   -3.321576
     79          1           0       -6.291549   -4.131904   -3.095729
 ---------------------------------------------------------------------

 SCF Done:  E(RB3LYP) =  -1947.85402546     A.U. after   18 cycles

 Excitation energies and oscillator strengths:

 Excited State   1:      Singlet-A      2.1092 eV  587.83 nm  f=0.3852  <S**2>=0.000
     154 ->156         0.15969
     155 ->156         0.67826
 This state for optimization and/or second-order correction.
 Total Energy, E(TD-HF/TD-KS) =  -1947.77651488
 Copying the excited state density for this state as the 1-particle RhoCI density.

 The electronic state is 1-A.
 Alpha  occ. eigenvalues --  -19.20703 -19.15640 -19.13467 -19.11058 -19.09987
 Alpha  occ. eigenvalues --  -19.09609 -14.38625 -14.36656 -14.35348 -14.29187
 Alpha  occ. eigenvalues --  -10.32937 -10.29631 -10.29506 -10.25912 -10.25441
 Alpha  occ. eigenvalues --  -10.25100 -10.24074 -10.23683 -10.23493 -10.23316
 Alpha  occ. eigenvalues --  -10.23070 -10.23036 -10.22121 -10.22101 -10.22000
 Alpha  occ. eigenvalues --  -10.21774 -10.21455 -10.21087 -10.21040 -10.21031
 Alpha  occ. eigenvalues --  -10.20993 -10.20585 -10.20273 -10.20156 -10.19976
 Alpha  occ. eigenvalues --  -10.19796 -10.19753 -10.19666 -10.19630 -10.19251
 Alpha  occ. eigenvalues --  -10.19229 -10.18836 -10.18235  -1.11127  -1.06096
 Alpha  occ. eigenvalues --   -1.01243  -1.00789  -0.99003  -0.98435  -0.97865
 Alpha  occ. eigenvalues --   -0.96039  -0.93878  -0.89751  -0.83009  -0.82084
 Alpha  occ. eigenvalues --   -0.81997  -0.80957  -0.80419  -0.80009  -0.78029
 Alpha  occ. eigenvalues --   -0.77491  -0.76597  -0.76002  -0.74959  -0.73699
 Alpha  occ. eigenvalues --   -0.72835  -0.71418  -0.69179  -0.68738  -0.68281
 Alpha  occ. eigenvalues --   -0.67242  -0.66204  -0.63546  -0.61781  -0.60518
 Alpha  occ. eigenvalues --   -0.59494  -0.59137  -0.57804  -0.56547  -0.56071
 Alpha  occ. eigenvalues --   -0.55988  -0.55051  -0.54813  -0.54133  -0.53407
 Alpha  occ. eigenvalues --   -0.52589  -0.51596  -0.50725  -0.50223  -0.49974
 Alpha  occ. eigenvalues --   -0.49337  -0.48878  -0.48405  -0.48210  -0.47746
 Alpha  occ. eigenvalues --   -0.47474  -0.47046  -0.46676  -0.45697  -0.45599
 Alpha  occ. eigenvalues --   -0.45386  -0.45049  -0.44788  -0.44620  -0.43904
 Alpha  occ. eigenvalues --   -0.43680  -0.43536  -0.43074  -0.42635  -0.42256
 Alpha  occ. eigenvalues --   -0.42087  -0.41878  -0.41635  -0.41355  -0.41004
 Alpha  occ. eigenvalues --   -0.40775  -0.40720  -0.40510  -0.40360  -0.39961
 Alpha  occ. eigenvalues --   -0.39833  -0.39244  -0.38936  -0.38470  -0.38254
 Alpha  occ. eigenvalues --   -0.37706  -0.37591  -0.37325  -0.37133  -0.36548
 Alpha  occ. eigenvalues --   -0.36300  -0.35737  -0.34961  -0.34668  -0.34014
 Alpha  occ. eigenvalues --   -0.33772  -0.33315  -0.32979  -0.32676  -0.31711
 Alpha  occ. eigenvalues --   -0.30947  -0.29219  -0.28757  -0.28357  -0.27478
 Alpha  occ. eigenvalues --   -0.27048  -0.26200  -0.25660  -0.25402  -0.25157
 Alpha  occ. eigenvalues --   -0.24648  -0.23828  -0.23667  -0.22137  -0.19408
 Alpha virt. eigenvalues --   -0.10913  -0.06986  -0.06464  -0.00558  -0.00444
 Alpha virt. eigenvalues --   -0.00297   0.00418   0.02286   0.02374   0.02878
 Alpha virt. eigenvalues --    0.03324   0.03457   0.03987   0.04656   0.04913

 Mulliken charges:
               1
     1  O   -0.256702
     2  O   -0.244332
     3  O   -0.275631
     4  O   -0.180896
     5  O   -0.258839
     6  O   -0.256712
     7  N   -0.124285
     8  N   -0.210601
     9  N   -0.117631
    10  N   -0.357655
    11  C    0.068068
    12  C    0.175186
    13  C   -0.077300
    14  C   -0.134767
    15  C   -0.094354
    16  C    0.086275
    17  C   -0.216716
    18  C    0.173493
    19  C    0.020508
    20  C   -0.051048
    21  C    0.094892
    22  C    0.172493
    23  C   -0.144197
    24  C    0.027556
    25  C    0.108316
    26  C   -0.156721
    27  C    0.028033
    28  C    0.102120
    29  C    0.216292
    30  C   -0.006074
    31  C    0.018442
    32  C    0.150774
    33  C   -0.116632
    34  C    0.128696
    35  C    0.076219
    36  C   -0.038603
    37  C    0.127922
    38  C    0.078457
    39  C   -0.152788
    40  C    0.191328
    41  C    0.043157
    42  C   -0.010507
    43  C   -0.061296
    44  H    0.017145
    45  H    0.019754
    46  H    0.013483
    47  H    0.163976
    48  H    0.105148
    49  H    0.012727
    50  H   -0.043146
    51  H   -0.044250
    52  H    0.001653
    53  H    0.056125
    54  H    0.060345
    55  H   -0.016055
    56  H    0.067697
    57  H    0.043720
    58  H    0.071182
    59  H    0.022452
    60  H    0.209533
    61  H    0.024701
    62  H   -0.065906
    63  H    0.017371
    64  H    0.048825
    65  H    0.021218
    66  H    0.005020
    67  H    0.034953
    68  H   -0.006785
    69  H    0.001630
    70  H    0.010325
    71  H    0.026596
    72  H    0.205460
    73  H   -0.011231
    74  H    0.034587
    75  H    0.060689
    76  H    0.025947
    77  H    0.200121
    78  H    0.034086
    79  H    0.026962
 Sum of Mulliken charges =   0.00000

 Dipole moment (field-independent basis, Debye):
    X=              1.4389    Y=              2.4680    Z=              2.2551  Tot=              3.6396
 Quadrupole moment (field-independent basis, Debye-Ang):
   XX=           -213.9463   YY=           -247.7695   ZZ=           -265.0124
   XY=            -19.0090   XZ=             37.3824   YZ=              6.4345

 Normal termination of Gaussian 09 at Tue Jul  9 18:52:47 2019.
