 Gaussian 09, Revision D.01,
 Gaussian 09:  ES64L-G09RevD.01 24-Apr-2013

 --------------------------
 # td=(NStates=1) B3LYP/SVP
 --------------------------

 --
 TD
 --
 Symbolic Z-matrix:
 Charge =  0 Multiplicity = 1

                         Standard orientation:
 ---------------------------------------------------------------------
 Center     Atomic      Atomic             Coordinates (Angstroms)
 Number     Number       Type             X           Y           Z
 ---------------------------------------------------------------------
      1          8           0        5.240447   -0.344609   -3.434122
      2          8           0       -2.711990   -3.070415    3.160718
      3          8           0       -3.090126   -0.927807    3.373613
      4          8           0       -1.912526    7.344746    1.273429
      5          8           0       -0.499975    6.850436   -0.547311
      6          8           0       -2.008962   -4.115264    0.178694
      7          7           0        2.300273    1.040379    0.622878
      8          7           0        4.380265   -0.652786   -1.229476
      9          7           0       -1.928486    0.648116   -0.459808
     10          7           0       -2.586809   -1.916477   -0.457235
     11          6           0        4.889691   -1.009104   -0.019939
     12          6           0        4.493834    0.020196    1.225595
     13          6           0        3.044980    0.192079    1.349114
     14          6           0        2.044428   -0.464474    2.263949
     15          6           0        0.761167    0.039984    1.862799
     16          6           0        0.970232    1.072714    0.891493
     17          6           0        6.332221   -1.173304   -0.145311
     18          6           0       -0.494793   -0.199638    2.521454
     19          6           0        6.640085   -1.043649   -1.525568
     20          6           0        0.154830    1.960198    0.175625
     21          6           0       -1.163433    1.793189   -0.251349
     22          6           0        5.394032   -0.618411   -2.189984
     23          6           0       -2.050065    2.932595   -0.816847
     24          6           0        2.352256   -1.582068    3.292687
     25          6           0        7.222361   -1.704584    1.011644
     26          6           0       -3.164844    2.299586   -1.278016
     27          6           0       -0.974204   -1.654589    2.467590
     28          6           0       -3.120308    0.778204   -1.015831
     29          6           0       -1.566793    4.308800   -0.895695
     30          6           0        7.931060   -1.038335   -2.226384
     31          6           0       -1.908637    5.139885    0.288328
     32          6           0       -4.383901    2.898161   -1.883970
     33          6           0       -4.104530   -0.180184   -1.252008
     34          6           0       -2.340617   -1.851083    3.060439
     35          6           0       -3.791931   -1.516888   -0.994668
     36          6           0        9.246336   -0.712817   -1.703187
     37          6           0       -1.297737    6.556270    0.219726
     38          6           0       -4.638871   -2.611206   -1.330495
     39          6           0       -4.040785   -3.782687   -1.059524
     40          6           0       -2.722870   -3.275816   -0.380380
     41          6           0       -6.033134   -2.377878   -2.043702
     42          6           0       -4.315169   -5.146711   -1.174498
     43          6           0       -6.683620   -3.376016   -2.751182
     44          1           0        4.587009   -1.937767    0.446610
     45          1           0        5.052244    0.945768    0.853011
     46          1           0        4.609131   -0.454555    2.122909
     47          1           0        2.735581    1.770863    0.009884
     48          1           0        3.268018   -0.876306   -1.510572
     49          1           0       -0.675906    0.367234    3.514999
     50          1           0       -1.153685    0.287617    1.991980
     51          1           0        0.672540    2.923719   -0.051441
     52          1           0        3.494921   -1.356447    3.550949
     53          1           0        1.747954   -1.529143    4.130808
     54          1           0        2.236678   -2.685722    3.022934
     55          1           0        6.735382   -2.437933    1.613633
     56          1           0        7.795215   -0.810272    1.640595
     57          1           0        8.039884   -2.429713    0.634007
     58          1           0       -0.983945   -1.994988    1.417268
     59          1           0       -0.362724   -2.326800    3.061002
     60          1           0       -1.818923   -0.426504   -0.128257
     61          1           0       -1.905886    4.822611   -1.802899
     62          1           0       -0.462124    4.095918   -1.136674
     63          1           0        7.767953   -1.275504   -3.414724
     64          1           0       -1.621497    4.471701    1.222960
     65          1           0       -2.893756    5.414306    0.668192
     66          1           0       -4.147277    3.970004   -2.189002
     67          1           0       -5.382652    2.843139   -1.368532
     68          1           0       -4.721358    2.459341   -2.811845
     69          1           0       -5.015248    0.224468   -1.764911
     70          1           0        9.458762   -0.388358   -0.596359
     71          1           0       10.074946   -0.892572   -2.323364
     72          1           0       -3.593123   -3.208248    3.692938
     73          1           0       -6.555124   -1.451363   -2.128147
     74          1           0       -4.058617   -5.403127   -2.210173
     75          1           0       -3.655468   -5.964619   -0.453149
     76          1           0       -5.245387   -5.371667   -0.885621
     77          1           0       -1.419718    8.246758    1.543148
     78          1           0       -7.653204   -2.898622   -3.100010
     79          1           0       -6.329863   -4.489053   -2.788258
 ---------------------------------------------------------------------

 SCF Done:  E(RB3LYP) =  -1947.81811073     A.U. after   18 cycles

 Excitation energies and oscillator strengths:

 Excited State   1:      Singlet-A      2.2123 eV  560.44 nm  f=0.5997  <S**2>=0.000
     155 ->156         0.70256
     155 <-156        -0.10172
 This state for optimization and/or second-order correction.
 Total Energy, E(TD-HF/TD-KS) =  -1947.73681078
 Copying the excited state density for this state as the 1-particle RhoCI density.

 The electronic state is 1-A.
 Alpha  occ. eigenvalues --  -19.17653 -19.17482 -19.15067 -19.09805 -19.09490
 Alpha  occ. eigenvalues --  -19.09319 -14.39371 -14.37227 -14.36841 -14.29822
 Alpha  occ. eigenvalues --  -10.32835 -10.29608 -10.29052 -10.26055 -10.25091
 Alpha  occ. eigenvalues --  -10.24788 -10.24732 -10.23964 -10.23428 -10.23361
 Alpha  occ. eigenvalues --  -10.22964 -10.22738 -10.22630 -10.22551 -10.22335
 Alpha  occ. eigenvalues --  -10.21573 -10.21444 -10.21428 -10.21265 -10.21129
 Alpha  occ. eigenvalues --  -10.20874 -10.20766 -10.20573 -10.20483 -10.20281
 Alpha  occ. eigenvalues --  -10.19920 -10.19769 -10.19487 -10.19303 -10.19231
 Alpha  occ. eigenvalues --  -10.18664 -10.18335 -10.17316  -1.10332  -1.09368
 Alpha  occ. eigenvalues --   -1.00525  -1.00065  -0.99993  -0.99731  -0.98027
 Alpha  occ. eigenvalues --   -0.97214  -0.94516  -0.92148  -0.83309  -0.82267
 Alpha  occ. eigenvalues --   -0.81272  -0.81006  -0.80360  -0.79519  -0.77526
 Alpha  occ. eigenvalues --   -0.77072  -0.76081  -0.75227  -0.74484  -0.72375
 Alpha  occ. eigenvalues --   -0.71216  -0.70725  -0.70539  -0.69300  -0.67766
 Alpha  occ. eigenvalues --   -0.67260  -0.67138  -0.64145  -0.61614  -0.60421
 Alpha  occ. eigenvalues --   -0.59796  -0.58587  -0.57514  -0.57164  -0.56435
 Alpha  occ. eigenvalues --   -0.55714  -0.55643  -0.55303  -0.54239  -0.53375
 Alpha  occ. eigenvalues --   -0.52450  -0.52182  -0.50970  -0.50860  -0.49698
 Alpha  occ. eigenvalues --   -0.49153  -0.48744  -0.48042  -0.47991  -0.47836
 Alpha  occ. eigenvalues --   -0.46880  -0.46161  -0.45984  -0.45793  -0.45343
 Alpha  occ. eigenvalues --   -0.45043  -0.44925  -0.44670  -0.44313  -0.43591
 Alpha  occ. eigenvalues --   -0.43493  -0.42963  -0.42811  -0.42327  -0.42084
 Alpha  occ. eigenvalues --   -0.42044  -0.41790  -0.41628  -0.41142  -0.40861
 Alpha  occ. eigenvalues --   -0.40649  -0.40570  -0.40095  -0.39791  -0.39578
 Alpha  occ. eigenvalues --   -0.39340  -0.38941  -0.38907  -0.38553  -0.38295
 Alpha  occ. eigenvalues --   -0.38231  -0.37705  -0.37536  -0.36891  -0.36695
 Alpha  occ. eigenvalues --   -0.36444  -0.35281  -0.35051  -0.34613  -0.33943
 Alpha  occ. eigenvalues --   -0.33701  -0.32927  -0.32631  -0.32540  -0.30432
 Alpha  occ. eigenvalues --   -0.30174  -0.29775  -0.29517  -0.28144  -0.28047
 Alpha  occ. eigenvalues --   -0.26340  -0.25714  -0.25461  -0.25175  -0.24493
 Alpha  occ. eigenvalues --   -0.24007  -0.23310  -0.23210  -0.22599  -0.19010
 Alpha virt. eigenvalues --   -0.10376  -0.07413  -0.05443  -0.01707  -0.00805
 Alpha virt. eigenvalues --   -0.00406   0.00422   0.01840   0.02192   0.02663
 Alpha virt. eigenvalues --    0.02800   0.03324   0.03718   0.04320   0.04659

 Mulliken charges:
               1
     1  O   -0.282326
     2  O   -0.148201
     3  O   -0.273847
     4  O   -0.330143
     5  O   -0.122343
     6  O   -0.230778
     7  N   -0.030066
     8  N   -0.196073
     9  N   -0.099889
    10  N   -0.310317
    11  C    0.046957
    12  C    0.265356
    13  C   -0.158776
    14  C   -0.120705
    15  C   -0.143959
    16  C    0.082872
    17  C   -0.126920
    18  C    0.221902
    19  C   -0.055165
    20  C   -0.112301
    21  C    0.111290
    22  C    0.171984
    23  C   -0.094198
    24  C    0.061001
    25  C    0.023197
    26  C   -0.115821
    27  C   -0.009674
    28  C    0.057149
    29  C    0.105185
    30  C   -0.065507
    31  C   -0.057083
    32  C    0.067446
    33  C   -0.123478
    34  C    0.091832
    35  C    0.159913
    36  C   -0.044026
    37  C    0.175044
    38  C    0.034214
    39  C   -0.178203
    40  C    0.141884
    41  C   -0.024529
    42  C    0.066224
    43  C   -0.058949
    44  H    0.007304
    45  H    0.009040
    46  H   -0.047470
    47  H    0.127222
    48  H    0.203255
    49  H    0.023294
    50  H   -0.101468
    51  H    0.004651
    52  H    0.019602
    53  H    0.006814
    54  H    0.048867
    55  H    0.016408
    56  H    0.069198
    57  H    0.040357
    58  H    0.068838
    59  H    0.006930
    60  H    0.204973
    61  H    0.007749
    62  H    0.038154
    63  H    0.063329
    64  H    0.056080
    65  H    0.039545
    66  H    0.013333
    67  H    0.030666
    68  H    0.004035
    69  H   -0.008025
    70  H    0.047716
    71  H    0.027429
    72  H    0.217316
    73  H   -0.012312
    74  H    0.042875
    75  H    0.053977
    76  H    0.001095
    77  H    0.221524
    78  H    0.032566
    79  H    0.044962
 Sum of Mulliken charges =   0.00000

 Dipole moment (field-independent basis, Debye):
    X=              1.0326    Y=              2.1812    Z=              3.7047  Tot=              4.4214
 Quadrupole moment (field-independent basis, Debye-Ang):
   XX=           -223.7858   YY=           -237.4910   ZZ=           -265.5963
   XY=             -5.8621   XZ=             34.8378   YZ=              1.2133

 Normal termination of Gaussian 09 at Tue Jul  9 01:16:10 2019.
