 Gaussian 09, Revision D.01,
 Gaussian 09:  ES64L-G09RevD.01 24-Apr-2013

 --------------------------
 # td=(NStates=1) B3LYP/SVP
 --------------------------

 --
 TD
 --
 Symbolic Z-matrix:
 Charge =  0 Multiplicity = 1

                         Standard orientation:
 ---------------------------------------------------------------------
 Center     Atomic      Atomic             Coordinates (Angstroms)
 Number     Number       Type             X           Y           Z
 ---------------------------------------------------------------------
      1          8           0        5.254841   -0.328900   -3.329013
      2          8           0       -2.724224   -3.161002    3.124263
      3          8           0       -3.105540   -0.942173    3.224208
      4          8           0       -1.537671    7.122958    1.629194
      5          8           0       -0.808346    7.054216   -0.490181
      6          8           0       -1.771097   -3.959718   -0.006697
      7          7           0        2.328111    1.074440    0.490722
      8          7           0        4.298708   -0.674898   -1.193575
      9          7           0       -1.811625    0.668699   -0.490307
     10          7           0       -2.711398   -1.917930   -0.431951
     11          6           0        4.840784   -1.089061    0.122689
     12          6           0        4.391207   -0.055462    1.243460
     13          6           0        3.031006    0.209935    1.340204
     14          6           0        2.023407   -0.447078    2.097955
     15          6           0        0.726002    0.059873    1.774803
     16          6           0        0.962288    0.996545    0.757480
     17          6           0        6.342981   -1.260544   -0.116334
     18          6           0       -0.487489   -0.273325    2.487874
     19          6           0        6.623524   -0.938969   -1.380258
     20          6           0        0.191630    2.035467    0.030831
     21          6           0       -1.076399    1.857500   -0.398130
     22          6           0        5.375129   -0.555223   -2.143412
     23          6           0       -2.011818    2.910877   -1.062347
     24          6           0        2.287072   -1.440168    3.187621
     25          6           0        7.252033   -1.671477    1.034992
     26          6           0       -3.212034    2.366806   -1.350666
     27          6           0       -0.902762   -1.741284    2.430381
     28          6           0       -3.117264    0.884312   -0.946100
     29          6           0       -1.569656    4.372109   -1.042217
     30          6           0        7.886631   -0.882420   -2.123749
     31          6           0       -1.736025    4.997760    0.376654
     32          6           0       -4.379705    3.028751   -1.805816
     33          6           0       -4.055148   -0.030985   -1.184561
     34          6           0       -2.363352   -1.830580    2.853604
     35          6           0       -3.805638   -1.403439   -0.972095
     36          6           0        9.192227   -1.118751   -1.706017
     37          6           0       -1.318318    6.491401    0.381606
     38          6           0       -4.687944   -2.568688   -1.388710
     39          6           0       -4.016981   -3.777511   -0.972483
     40          6           0       -2.707581   -3.221362   -0.374069
     41          6           0       -6.022259   -2.373076   -1.990543
     42          6           0       -4.301210   -5.243472   -1.144703
     43          6           0       -6.827273   -3.419137   -2.354169
     44          1           0        4.392560   -2.047708    0.499880
     45          1           0        4.817796    0.980452    0.788674
     46          1           0        4.889352   -0.288438    2.257666
     47          1           0        2.779336    1.701606   -0.152112
     48          1           0        3.308330   -0.747824   -1.648264
     49          1           0       -0.601126    0.195479    3.495145
     50          1           0       -1.289229    0.226431    1.975069
     51          1           0        0.732812    2.880380   -0.651640
     52          1           0        3.213046   -1.444143    3.706045
     53          1           0        1.646742   -1.374887    4.076734
     54          1           0        2.134667   -2.574902    2.796756
     55          1           0        6.579318   -2.111244    2.119301
     56          1           0        7.834244   -0.674192    1.322092
     57          1           0        7.995876   -2.559065    0.521903
     58          1           0       -0.851998   -2.062108    1.429381
     59          1           0       -0.346330   -2.578770    2.895460
     60          1           0       -1.725380   -0.406347   -0.230611
     61          1           0       -2.253558    4.922970   -2.005995
     62          1           0       -0.652312    4.449073   -1.397604
     63          1           0        7.915319   -0.684900   -3.350646
     64          1           0       -1.124543    4.346296    1.143929
     65          1           0       -2.889942    4.726652    0.657299
     66          1           0       -4.151689    4.178858   -1.747975
     67          1           0       -5.241141    2.559413   -1.154544
     68          1           0       -4.531298    2.633670   -2.797237
     69          1           0       -5.214534    0.201031   -1.590590
     70          1           0        9.246728   -1.094233   -0.646771
     71          1           0       10.080530   -1.315959   -2.419858
     72          1           0       -3.550897   -3.190143    3.448364
     73          1           0       -6.258156   -1.339307   -2.147755
     74          1           0       -4.645434   -5.552419   -2.209779
     75          1           0       -3.607926   -6.190917   -0.874785
     76          1           0       -5.160498   -5.537803   -0.292475
     77          1           0       -1.265191    8.012865    1.386901
     78          1           0       -7.812200   -3.200968   -2.933653
     79          1           0       -6.745938   -4.590054   -2.089380
 ---------------------------------------------------------------------

 SCF Done:  E(RB3LYP) =  -1947.80470310     A.U. after   17 cycles

 Excitation energies and oscillator strengths:

 Excited State   1:      Singlet-A      1.9821 eV  625.52 nm  f=0.3984  <S**2>=0.000
     154 ->156         0.11636
     155 ->156         0.69725
 This state for optimization and/or second-order correction.
 Total Energy, E(TD-HF/TD-KS) =  -1947.73186180
 Copying the excited state density for this state as the 1-particle RhoCI density.

 The electronic state is 1-A.
 Alpha  occ. eigenvalues --  -19.17669 -19.15079 -19.14896 -19.11904 -19.10838
 Alpha  occ. eigenvalues --  -19.10128 -14.38061 -14.37392 -14.35608 -14.30003
 Alpha  occ. eigenvalues --  -10.33320 -10.30989 -10.28956 -10.26598 -10.25799
 Alpha  occ. eigenvalues --  -10.25767 -10.25677 -10.25015 -10.24999 -10.23934
 Alpha  occ. eigenvalues --  -10.23613 -10.22829 -10.22664 -10.22583 -10.22379
 Alpha  occ. eigenvalues --  -10.22210 -10.22051 -10.21578 -10.21547 -10.21500
 Alpha  occ. eigenvalues --  -10.21413 -10.21366 -10.21349 -10.21259 -10.21179
 Alpha  occ. eigenvalues --  -10.21019 -10.20990 -10.20305 -10.19700 -10.19125
 Alpha  occ. eigenvalues --  -10.19053 -10.18713 -10.18692  -1.11620  -1.07418
 Alpha  occ. eigenvalues --   -1.02573  -1.02194  -1.00675  -0.99048  -0.97755
 Alpha  occ. eigenvalues --   -0.96830  -0.93429  -0.92412  -0.83102  -0.82457
 Alpha  occ. eigenvalues --   -0.81808  -0.81665  -0.80360  -0.79650  -0.78092
 Alpha  occ. eigenvalues --   -0.76738  -0.76585  -0.75065  -0.73972  -0.72347
 Alpha  occ. eigenvalues --   -0.71293  -0.70435  -0.69244  -0.68299  -0.67693
 Alpha  occ. eigenvalues --   -0.67443  -0.65642  -0.64012  -0.60067  -0.59706
 Alpha  occ. eigenvalues --   -0.59434  -0.58934  -0.58353  -0.57287  -0.56728
 Alpha  occ. eigenvalues --   -0.56504  -0.55711  -0.54290  -0.53072  -0.52647
 Alpha  occ. eigenvalues --   -0.52060  -0.51245  -0.50754  -0.50245  -0.49628
 Alpha  occ. eigenvalues --   -0.49457  -0.49060  -0.48479  -0.47519  -0.47102
 Alpha  occ. eigenvalues --   -0.46759  -0.46553  -0.46202  -0.45764  -0.45475
 Alpha  occ. eigenvalues --   -0.45003  -0.44763  -0.44165  -0.43695  -0.43581
 Alpha  occ. eigenvalues --   -0.43292  -0.43042  -0.42800  -0.42635  -0.42168
 Alpha  occ. eigenvalues --   -0.41842  -0.41337  -0.41185  -0.41132  -0.40942
 Alpha  occ. eigenvalues --   -0.40832  -0.40739  -0.40320  -0.39976  -0.39792
 Alpha  occ. eigenvalues --   -0.39579  -0.39337  -0.39197  -0.38903  -0.38232
 Alpha  occ. eigenvalues --   -0.37891  -0.37594  -0.37416  -0.37049  -0.36955
 Alpha  occ. eigenvalues --   -0.36445  -0.35863  -0.34985  -0.34384  -0.34180
 Alpha  occ. eigenvalues --   -0.33545  -0.33344  -0.32891  -0.32550  -0.31613
 Alpha  occ. eigenvalues --   -0.31238  -0.30715  -0.30359  -0.28730  -0.27245
 Alpha  occ. eigenvalues --   -0.27135  -0.26532  -0.26282  -0.25972  -0.24844
 Alpha  occ. eigenvalues --   -0.24213  -0.24116  -0.23897  -0.22122  -0.19346
 Alpha virt. eigenvalues --   -0.11497  -0.06605  -0.06080  -0.01847  -0.00989
 Alpha virt. eigenvalues --    0.00189   0.00359   0.00678   0.01487   0.01915
 Alpha virt. eigenvalues --    0.02524   0.03732   0.04059   0.04590   0.04961

 Mulliken charges:
               1
     1  O   -0.204438
     2  O   -0.179372
     3  O   -0.232767
     4  O   -0.223425
     5  O   -0.156755
     6  O   -0.229355
     7  N   -0.097853
     8  N   -0.298122
     9  N   -0.158759
    10  N   -0.213325
    11  C    0.114434
    12  C    0.099773
    13  C   -0.029079
    14  C   -0.117017
    15  C   -0.076942
    16  C    0.059663
    17  C   -0.116793
    18  C    0.135817
    19  C   -0.008437
    20  C   -0.128231
    21  C    0.113832
    22  C    0.172144
    23  C   -0.119283
    24  C    0.049592
    25  C   -0.084467
    26  C   -0.131305
    27  C    0.035764
    28  C    0.161792
    29  C    0.097556
    30  C   -0.101294
    31  C   -0.080374
    32  C    0.079277
    33  C   -0.175689
    34  C    0.141974
    35  C    0.060889
    36  C   -0.042252
    37  C    0.172552
    38  C   -0.014330
    39  C   -0.117033
    40  C    0.116635
    41  C    0.032236
    42  C   -0.062427
    43  C   -0.089710
    44  H    0.026998
    45  H   -0.003328
    46  H    0.024886
    47  H    0.111855
    48  H    0.169524
    49  H    0.021354
    50  H   -0.025439
    51  H    0.043542
    52  H   -0.013934
    53  H    0.014895
    54  H    0.039696
    55  H    0.062530
    56  H    0.083812
    57  H    0.089374
    58  H    0.019826
    59  H    0.032120
    60  H    0.196893
    61  H    0.036226
    62  H   -0.035777
    63  H    0.052933
    64  H    0.079605
    65  H    0.069308
    66  H    0.051483
    67  H    0.048347
    68  H    0.028543
    69  H    0.046466
    70  H   -0.005294
    71  H    0.058861
    72  H    0.126167
    73  H   -0.027640
    74  H    0.055009
    75  H    0.057906
    76  H    0.047031
    77  H    0.164026
    78  H    0.034548
    79  H    0.062549
 Sum of Mulliken charges =   0.00000

 Dipole moment (field-independent basis, Debye):
    X=             -0.0387    Y=              2.1850    Z=              1.7353  Tot=              2.7905
 Quadrupole moment (field-independent basis, Debye-Ang):
   XX=           -220.1996   YY=           -249.8280   ZZ=           -267.2457
   XY=             -3.9341   XZ=             32.4409   YZ=             -1.9360

 Normal termination of Gaussian 09 at Sun Jul  7 17:13:13 2019.
