 Gaussian 09, Revision D.01,
 Gaussian 09:  ES64L-G09RevD.01 24-Apr-2013

 --------------------------
 # td=(NStates=1) B3LYP/SVP
 --------------------------

 --
 TD
 --
 Symbolic Z-matrix:
 Charge =  0 Multiplicity = 1

                         Standard orientation:
 ---------------------------------------------------------------------
 Center     Atomic      Atomic             Coordinates (Angstroms)
 Number     Number       Type             X           Y           Z
 ---------------------------------------------------------------------
      1          8           0        5.428717   -0.304339   -3.293700
      2          8           0       -3.112946   -3.004901    3.221284
      3          8           0       -3.073319   -0.659737    3.198857
      4          8           0       -1.480956    7.258494    1.455963
      5          8           0       -0.083813    6.717442   -0.314675
      6          8           0       -2.131137   -3.930104    0.002590
      7          7           0        2.396012    0.829845    0.482903
      8          7           0        4.400934   -0.787303   -1.225929
      9          7           0       -1.944339    0.763573   -0.375041
     10          7           0       -2.757340   -1.861775   -0.539083
     11          6           0        4.867696   -1.256268   -0.005570
     12          6           0        4.500606   -0.360280    1.212997
     13          6           0        3.037558   -0.102004    1.202307
     14          6           0        2.089749   -0.713687    2.098332
     15          6           0        0.772959   -0.122048    1.721985
     16          6           0        1.058794    0.893839    0.725972
     17          6           0        6.376473   -1.393039   -0.197303
     18          6           0       -0.462622   -0.397212    2.580282
     19          6           0        6.783720   -1.052117   -1.401459
     20          6           0        0.212640    1.874593    0.064514
     21          6           0       -1.104622    1.855870   -0.326521
     22          6           0        5.424596   -0.679276   -2.153477
     23          6           0       -1.749483    2.861070   -0.942355
     24          6           0        2.326994   -1.602994    3.191519
     25          6           0        7.164858   -1.886875    0.918061
     26          6           0       -2.990799    2.486717   -1.301769
     27          6           0       -1.050719   -1.792551    2.450167
     28          6           0       -3.169944    1.069507   -0.902978
     29          6           0       -1.378348    4.420690   -0.885490
     30          6           0        7.978479   -1.029863   -2.123261
     31          6           0       -1.656317    5.027511    0.401690
     32          6           0       -4.206958    3.274040   -1.851331
     33          6           0       -4.125277    0.120301   -1.340587
     34          6           0       -2.569996   -1.781212    3.014110
     35          6           0       -3.871511   -1.290783   -1.130458
     36          6           0        9.175573   -0.997132   -1.568201
     37          6           0       -0.984634    6.415178    0.528705
     38          6           0       -4.778881   -2.383261   -1.541777
     39          6           0       -4.301047   -3.675981   -1.115997
     40          6           0       -2.956180   -3.201694   -0.457778
     41          6           0       -6.133744   -2.123619   -2.059885
     42          6           0       -4.803490   -5.104467   -1.075273
     43          6           0       -7.110407   -3.026100   -2.477273
     44          1           0        4.484426   -2.350481    0.295185
     45          1           0        5.048624    0.444617    1.131419
     46          1           0        4.731503   -0.767865    2.291376
     47          1           0        2.705127    1.398379   -0.348974
     48          1           0        3.503280   -0.431010   -1.399583
     49          1           0       -0.381411    0.024606    3.721197
     50          1           0       -1.264496    0.225900    2.238155
     51          1           0        0.682508    2.762542   -0.181190
     52          1           0        3.397375   -1.484451    3.493336
     53          1           0        1.637197   -1.377639    4.007872
     54          1           0        2.007451   -2.633613    2.957734
     55          1           0        6.722685   -2.602203    1.583953
     56          1           0        7.452356   -1.069916    1.639847
     57          1           0        8.364189   -2.075950    0.549944
     58          1           0       -0.887533   -1.973284    1.486405
     59          1           0       -0.604197   -2.562299    3.014023
     60          1           0       -1.732622   -0.174038   -0.106701
     61          1           0       -1.836732    4.976384   -1.612525
     62          1           0       -0.368131    4.376162   -1.116790
     63          1           0        7.805255   -0.939194   -3.231198
     64          1           0       -1.224516    4.371715    1.232038
     65          1           0       -2.733165    5.082205    0.875340
     66          1           0       -3.778448    4.247154   -2.357041
     67          1           0       -4.985313    3.433857   -1.075289
     68          1           0       -4.624114    2.482111   -2.745460
     69          1           0       -5.135363    0.285470   -1.853869
     70          1           0        9.108937   -0.821528   -0.549552
     71          1           0       10.072847   -0.988699   -2.161557
     72          1           0       -3.921229   -2.710266    3.567236
     73          1           0       -6.533600   -1.187066   -2.056096
     74          1           0       -4.880836   -5.447719   -2.104529
     75          1           0       -3.984510   -5.653575   -0.516974
     76          1           0       -5.783498   -5.273523   -0.694634
     77          1           0       -1.160354    8.141308    1.202691
     78          1           0       -8.162982   -2.699404   -2.768540
     79          1           0       -6.974231   -4.215007   -2.481150
 ---------------------------------------------------------------------

 SCF Done:  E(RB3LYP) =  -1947.86884523     A.U. after   17 cycles

 Excitation energies and oscillator strengths:

 Excited State   1:      Singlet-A      2.0780 eV  596.66 nm  f=0.3219  <S**2>=0.000
     154 ->156         0.33452
     155 ->156         0.61618
     155 <-156        -0.10071
 This state for optimization and/or second-order correction.
 Total Energy, E(TD-HF/TD-KS) =  -1947.79248162
 Copying the excited state density for this state as the 1-particle RhoCI density.

 The electronic state is 1-A.
 Alpha  occ. eigenvalues --  -19.20563 -19.19294 -19.13371 -19.12649 -19.10884
 Alpha  occ. eigenvalues --  -19.09414 -14.40088 -14.36625 -14.36275 -14.28422
 Alpha  occ. eigenvalues --  -10.33758 -10.32277 -10.29044 -10.25422 -10.25399
 Alpha  occ. eigenvalues --  -10.25218 -10.23985 -10.23851 -10.23794 -10.23726
 Alpha  occ. eigenvalues --  -10.22653 -10.22556 -10.22171 -10.21545 -10.21333
 Alpha  occ. eigenvalues --  -10.20946 -10.20709 -10.20644 -10.20583 -10.20544
 Alpha  occ. eigenvalues --  -10.20510 -10.20295 -10.20066 -10.19963 -10.19687
 Alpha  occ. eigenvalues --  -10.19534 -10.19495 -10.19385 -10.19257 -10.19213
 Alpha  occ. eigenvalues --  -10.19107 -10.18446 -10.17823  -1.10437  -1.10331
 Alpha  occ. eigenvalues --   -1.03756  -1.02054  -1.00199  -1.00094  -0.99597
 Alpha  occ. eigenvalues --   -0.99385  -0.96201  -0.90419  -0.83689  -0.83548
 Alpha  occ. eigenvalues --   -0.82076  -0.81178  -0.79838  -0.78854  -0.78486
 Alpha  occ. eigenvalues --   -0.77739  -0.76326  -0.75892  -0.74123  -0.72347
 Alpha  occ. eigenvalues --   -0.71508  -0.71217  -0.69422  -0.68932  -0.68648
 Alpha  occ. eigenvalues --   -0.66329  -0.66114  -0.64329  -0.62402  -0.61227
 Alpha  occ. eigenvalues --   -0.60461  -0.59570  -0.58950  -0.58187  -0.57378
 Alpha  occ. eigenvalues --   -0.56890  -0.56579  -0.55370  -0.54141  -0.53114
 Alpha  occ. eigenvalues --   -0.52248  -0.51896  -0.50729  -0.50583  -0.49883
 Alpha  occ. eigenvalues --   -0.49814  -0.49403  -0.49261  -0.48797  -0.48578
 Alpha  occ. eigenvalues --   -0.47690  -0.47199  -0.46711  -0.46489  -0.45772
 Alpha  occ. eigenvalues --   -0.45426  -0.44863  -0.44637  -0.44214  -0.43810
 Alpha  occ. eigenvalues --   -0.43519  -0.43225  -0.43063  -0.42907  -0.42688
 Alpha  occ. eigenvalues --   -0.42511  -0.42404  -0.42190  -0.41933  -0.41721
 Alpha  occ. eigenvalues --   -0.41141  -0.40846  -0.40786  -0.40522  -0.40289
 Alpha  occ. eigenvalues --   -0.39881  -0.39593  -0.39151  -0.38631  -0.38260
 Alpha  occ. eigenvalues --   -0.37953  -0.37805  -0.37535  -0.37391  -0.37219
 Alpha  occ. eigenvalues --   -0.36947  -0.35312  -0.35035  -0.34698  -0.34454
 Alpha  occ. eigenvalues --   -0.34071  -0.34019  -0.32653  -0.32330  -0.32107
 Alpha  occ. eigenvalues --   -0.31845  -0.31091  -0.28655  -0.28140  -0.27387
 Alpha  occ. eigenvalues --   -0.27053  -0.26569  -0.26272  -0.25891  -0.24452
 Alpha  occ. eigenvalues --   -0.24071  -0.23643  -0.23434  -0.21278  -0.19198
 Alpha virt. eigenvalues --   -0.11021  -0.06672  -0.04810  -0.02351  -0.00959
 Alpha virt. eigenvalues --    0.00306   0.01197   0.01672   0.02281   0.02590
 Alpha virt. eigenvalues --    0.03533   0.03874   0.04299   0.04942   0.05792

 Mulliken charges:
               1
     1  O   -0.195291
     2  O   -0.121801
     3  O   -0.263768
     4  O   -0.162918
     5  O   -0.284691
     6  O   -0.179126
     7  N   -0.034982
     8  N   -0.134287
     9  N   -0.056483
    10  N   -0.267917
    11  C    0.034188
    12  C    0.282423
    13  C   -0.126194
    14  C   -0.158556
    15  C   -0.096211
    16  C    0.042807
    17  C   -0.152508
    18  C    0.018692
    19  C   -0.027941
    20  C   -0.055636
    21  C    0.083947
    22  C    0.130853
    23  C   -0.104002
    24  C    0.131102
    25  C    0.035029
    26  C   -0.139250
    27  C    0.091436
    28  C    0.141897
    29  C    0.219882
    30  C   -0.049213
    31  C   -0.031211
    32  C    0.012184
    33  C   -0.106390
    34  C    0.161935
    35  C    0.057449
    36  C    0.034827
    37  C    0.160145
    38  C    0.032501
    39  C   -0.188870
    40  C    0.092037
    41  C   -0.008262
    42  C    0.106252
    43  C   -0.105104
    44  H    0.030671
    45  H   -0.078796
    46  H    0.018415
    47  H    0.135792
    48  H    0.105284
    49  H    0.027699
    50  H   -0.005421
    51  H   -0.045168
    52  H    0.007874
    53  H    0.009743
    54  H    0.033484
    55  H    0.016879
    56  H    0.025821
    57  H    0.042192
    58  H    0.016480
    59  H   -0.001662
    60  H    0.125723
    61  H   -0.025488
    62  H   -0.006805
    63  H    0.016942
    64  H    0.041629
    65  H    0.044077
    66  H    0.043560
    67  H    0.056448
    68  H    0.056215
    69  H    0.013370
    70  H   -0.004170
    71  H    0.022243
    72  H    0.146939
    73  H   -0.044940
    74  H    0.027914
    75  H    0.045339
    76  H    0.023394
    77  H    0.191248
    78  H    0.036391
    79  H    0.031710
 Sum of Mulliken charges =   0.00000

 Dipole moment (field-independent basis, Debye):
    X=             -0.3050    Y=              3.7521    Z=              3.9451  Tot=              5.4530
 Quadrupole moment (field-independent basis, Debye-Ang):
   XX=           -224.1548   YY=           -242.6394   ZZ=           -262.5151
   XY=             -8.9622   XZ=             25.8012   YZ=             -1.8918

 Normal termination of Gaussian 09 at Mon Jul  8 18:23:22 2019.
