 Gaussian 09, Revision D.01,
 Gaussian 09:  ES64L-G09RevD.01 24-Apr-2013

 --------------------------
 # td=(NStates=1) B3LYP/SVP
 --------------------------

 --
 TD
 --
 Symbolic Z-matrix:
 Charge =  0 Multiplicity = 1

                         Standard orientation:
 ---------------------------------------------------------------------
 Center     Atomic      Atomic             Coordinates (Angstroms)
 Number     Number       Type             X           Y           Z
 ---------------------------------------------------------------------
      1          8           0        5.358292   -0.346164   -3.287371
      2          8           0       -2.661995   -3.030066    3.329209
      3          8           0       -2.997426   -0.762050    3.196220
      4          8           0       -1.896405    7.301775    1.184297
      5          8           0       -0.219504    6.800203   -0.373006
      6          8           0       -1.718957   -4.061540   -0.096357
      7          7           0        2.375236    0.996053    0.566055
      8          7           0        4.423030   -0.576065   -1.236660
      9          7           0       -2.062248    0.629306   -0.390889
     10          7           0       -2.627977   -1.891907   -0.565043
     11          6           0        4.852715   -1.081747    0.104155
     12          6           0        4.572817   -0.142290    1.306936
     13          6           0        2.926841    0.117847    1.369271
     14          6           0        2.062671   -0.404641    2.248049
     15          6           0        0.710477    0.097896    1.764107
     16          6           0        0.940488    1.001798    0.725255
     17          6           0        6.380532   -1.165286   -0.152339
     18          6           0       -0.654564   -0.173636    2.426343
     19          6           0        6.673531   -0.957840   -1.489279
     20          6           0        0.036198    1.898833    0.033230
     21          6           0       -1.198217    1.753386   -0.386332
     22          6           0        5.494898   -0.615863   -2.132208
     23          6           0       -2.029294    2.829633   -0.930212
     24          6           0        2.277397   -1.400667    3.270492
     25          6           0        7.265666   -1.669693    0.999551
     26          6           0       -3.280302    2.359294   -1.230828
     27          6           0       -1.002509   -1.609656    2.413937
     28          6           0       -3.273006    0.894089   -1.005879
     29          6           0       -1.510951    4.273476   -0.974188
     30          6           0        7.945678   -0.935657   -2.213782
     31          6           0       -1.893032    4.959319    0.258269
     32          6           0       -4.467868    3.005094   -1.767531
     33          6           0       -4.174460   -0.154611   -1.315141
     34          6           0       -2.316272   -1.737435    3.027272
     35          6           0       -3.843480   -1.472073   -1.001295
     36          6           0        9.201121   -0.908403   -1.670905
     37          6           0       -1.160495    6.359855    0.338718
     38          6           0       -4.695019   -2.596130   -1.319640
     39          6           0       -3.992903   -3.732300   -1.067547
     40          6           0       -2.605743   -3.314900   -0.450925
     41          6           0       -6.016861   -2.452994   -1.848738
     42          6           0       -4.321263   -5.261587   -1.143580
     43          6           0       -6.838563   -3.409613   -2.390052
     44          1           0        4.387180   -2.091896    0.476431
     45          1           0        4.864942    0.830805    1.198382
     46          1           0        5.020112   -0.452671    2.165665
     47          1           0        2.824631    1.392291   -0.166886
     48          1           0        3.420218   -0.441241   -1.577360
     49          1           0       -0.508906    0.129891    3.563800
     50          1           0       -1.416513    0.467664    2.062373
     51          1           0        0.366284    2.998204   -0.140579
     52          1           0        3.362518   -1.782489    3.673370
     53          1           0        1.848123   -1.027926    4.230288
     54          1           0        1.693523   -2.554267    3.221131
     55          1           0        6.585340   -2.055730    1.810039
     56          1           0        8.034924   -0.630937    1.360591
     57          1           0        7.913943   -2.727441    0.838599
     58          1           0       -0.921539   -2.099231    1.217461
     59          1           0       -0.324702   -2.132401    2.930344
     60          1           0       -1.768909   -0.299716   -0.476193
     61          1           0       -2.151908    4.791278   -1.861404
     62          1           0       -0.457527    4.415111   -1.097469
     63          1           0        7.828992   -1.003546   -3.242852
     64          1           0       -1.612081    4.239289    1.050654
     65          1           0       -3.049781    5.298332    0.243379
     66          1           0       -4.382972    4.129804   -2.403384
     67          1           0       -5.160386    3.059168   -0.877716
     68          1           0       -4.838652    2.464881   -2.610666
     69          1           0       -5.183090    0.181319   -1.530116
     70          1           0        9.395267   -1.006522   -0.628380
     71          1           0       10.064737   -0.830879   -2.298960
     72          1           0       -3.650627   -2.824857    3.584426
     73          1           0       -6.466482   -1.489001   -1.797575
     74          1           0       -4.563640   -5.523851   -2.268200
     75          1           0       -3.586540   -5.925603   -0.733541
     76          1           0       -5.463988   -5.570818   -0.756221
     77          1           0       -1.586616    8.033107    0.942958
     78          1           0       -7.795257   -2.928847   -2.858080
     79          1           0       -6.786317   -4.471244   -2.253581
 ---------------------------------------------------------------------

 SCF Done:  E(RB3LYP) =  -1947.78640847     A.U. after   16 cycles

 Excitation energies and oscillator strengths:

 Excited State   1:      Singlet-A      2.1687 eV  571.70 nm  f=0.1654  <S**2>=0.000
     152 ->156         0.21108
     154 ->156         0.35670
     155 ->156         0.56159
 This state for optimization and/or second-order correction.
 Total Energy, E(TD-HF/TD-KS) =  -1947.70670988
 Copying the excited state density for this state as the 1-particle RhoCI density.

 The electronic state is 1-A.
 Alpha  occ. eigenvalues --  -19.17622 -19.17285 -19.15904 -19.11779 -19.11685
 Alpha  occ. eigenvalues --  -19.09327 -14.37846 -14.35993 -14.35322 -14.29206
 Alpha  occ. eigenvalues --  -10.35015 -10.30160 -10.27623 -10.27342 -10.26333
 Alpha  occ. eigenvalues --  -10.26027 -10.24836 -10.24373 -10.23903 -10.23729
 Alpha  occ. eigenvalues --  -10.23519 -10.23303 -10.23159 -10.22937 -10.22491
 Alpha  occ. eigenvalues --  -10.22315 -10.22256 -10.22060 -10.21743 -10.21270
 Alpha  occ. eigenvalues --  -10.21042 -10.20459 -10.20240 -10.20155 -10.20070
 Alpha  occ. eigenvalues --  -10.20009 -10.19949 -10.19881 -10.19541 -10.19427
 Alpha  occ. eigenvalues --  -10.18826 -10.18665 -10.17833  -1.09371  -1.08018
 Alpha  occ. eigenvalues --   -1.03544  -1.02221  -1.01349  -0.99747  -0.99369
 Alpha  occ. eigenvalues --   -0.98195  -0.92761  -0.91804  -0.84612  -0.82660
 Alpha  occ. eigenvalues --   -0.81735  -0.81116  -0.80204  -0.79748  -0.79133
 Alpha  occ. eigenvalues --   -0.77507  -0.77261  -0.75225  -0.73810  -0.73274
 Alpha  occ. eigenvalues --   -0.71672  -0.70922  -0.69505  -0.68720  -0.68172
 Alpha  occ. eigenvalues --   -0.66429  -0.65364  -0.64307  -0.61438  -0.60466
 Alpha  occ. eigenvalues --   -0.60158  -0.58964  -0.57657  -0.57492  -0.56900
 Alpha  occ. eigenvalues --   -0.56683  -0.56287  -0.54671  -0.53871  -0.53473
 Alpha  occ. eigenvalues --   -0.52463  -0.51899  -0.51271  -0.50814  -0.50424
 Alpha  occ. eigenvalues --   -0.49828  -0.49104  -0.48742  -0.48446  -0.47853
 Alpha  occ. eigenvalues --   -0.47715  -0.47073  -0.46812  -0.46451  -0.46073
 Alpha  occ. eigenvalues --   -0.45312  -0.45107  -0.44380  -0.43872  -0.43681
 Alpha  occ. eigenvalues --   -0.43228  -0.42975  -0.42768  -0.42550  -0.42450
 Alpha  occ. eigenvalues --   -0.42414  -0.42095  -0.41859  -0.41676  -0.41244
 Alpha  occ. eigenvalues --   -0.40843  -0.40605  -0.40348  -0.40041  -0.39916
 Alpha  occ. eigenvalues --   -0.39557  -0.39476  -0.39012  -0.38811  -0.38300
 Alpha  occ. eigenvalues --   -0.37936  -0.37819  -0.37516  -0.36749  -0.36654
 Alpha  occ. eigenvalues --   -0.36395  -0.35860  -0.35777  -0.35511  -0.35231
 Alpha  occ. eigenvalues --   -0.34760  -0.33345  -0.32696  -0.31922  -0.31567
 Alpha  occ. eigenvalues --   -0.31332  -0.31218  -0.30264  -0.28908  -0.27925
 Alpha  occ. eigenvalues --   -0.27407  -0.26884  -0.26219  -0.25504  -0.24886
 Alpha  occ. eigenvalues --   -0.24101  -0.23696  -0.23579  -0.22036  -0.20550
 Alpha virt. eigenvalues --   -0.11204  -0.07060  -0.06501  -0.04339  -0.01297
 Alpha virt. eigenvalues --    0.00655   0.00911   0.01218   0.01433   0.01913
 Alpha virt. eigenvalues --    0.02733   0.04192   0.04365   0.04645   0.05008

 Mulliken charges:
               1
     1  O   -0.197694
     2  O   -0.219597
     3  O   -0.234086
     4  O   -0.163416
     5  O   -0.243528
     6  O   -0.189022
     7  N   -0.006964
     8  N   -0.257283
     9  N   -0.062445
    10  N   -0.339908
    11  C    0.056155
    12  C    0.289433
    13  C   -0.143428
    14  C   -0.038976
    15  C   -0.109937
    16  C    0.076136
    17  C   -0.138593
    18  C    0.092987
    19  C    0.008269
    20  C   -0.113404
    21  C    0.120665
    22  C    0.117615
    23  C   -0.099402
    24  C   -0.072582
    25  C   -0.058413
    26  C   -0.075273
    27  C    0.001983
    28  C    0.053251
    29  C    0.063998
    30  C    0.015043
    31  C   -0.035858
    32  C    0.004679
    33  C   -0.102915
    34  C    0.149591
    35  C    0.139309
    36  C    0.004611
    37  C    0.196311
    38  C    0.088043
    39  C   -0.197332
    40  C    0.188953
    41  C   -0.031734
    42  C    0.014645
    43  C   -0.041722
    44  H    0.055842
    45  H   -0.041562
    46  H   -0.032345
    47  H    0.072227
    48  H    0.148149
    49  H    0.011162
    50  H    0.007612
    51  H    0.017063
    52  H    0.024100
    53  H    0.020594
    54  H    0.057870
    55  H    0.033261
    56  H    0.078819
    57  H    0.073741
    58  H    0.121539
    59  H   -0.039895
    60  H    0.118479
    61  H    0.033174
    62  H    0.029751
    63  H   -0.015661
    64  H    0.061089
    65  H    0.077901
    66  H    0.041741
    67  H    0.057710
    68  H    0.035191
    69  H   -0.014915
    70  H    0.002681
    71  H    0.023987
    72  H    0.195530
    73  H   -0.024121
    74  H    0.038346
    75  H    0.039669
    76  H    0.038038
    77  H    0.097891
    78  H    0.034185
    79  H    0.012993
 Sum of Mulliken charges =   0.00000

 Dipole moment (field-independent basis, Debye):
    X=             -0.4053    Y=              2.4712    Z=              2.3157  Tot=              3.4108
 Quadrupole moment (field-independent basis, Debye-Ang):
   XX=           -215.1411   YY=           -254.0377   ZZ=           -266.8403
   XY=            -14.0856   XZ=             32.6336   YZ=             -5.5811

 Normal termination of Gaussian 09 at Wed Jul 10 06:29:58 2019.
