 Gaussian 09, Revision D.01,
 Gaussian 09:  ES64L-G09RevD.01 24-Apr-2013

 --------------------------
 # td=(NStates=1) B3LYP/SVP
 --------------------------

 --
 TD
 --
 Symbolic Z-matrix:
 Charge =  0 Multiplicity = 1

                         Standard orientation:
 ---------------------------------------------------------------------
 Center     Atomic      Atomic             Coordinates (Angstroms)
 Number     Number       Type             X           Y           Z
 ---------------------------------------------------------------------
      1          8           0        5.245912   -0.486896   -3.402481
      2          8           0       -2.872652   -3.101457    3.226842
      3          8           0       -3.211159   -0.911013    3.142446
      4          8           0       -1.386426    7.246522    1.545042
      5          8           0       -0.525620    7.013695   -0.471813
      6          8           0       -1.976555   -4.023995    0.014591
      7          7           0        2.363899    0.865553    0.552560
      8          7           0        4.308931   -0.854223   -1.274420
      9          7           0       -1.860663    0.758670   -0.360905
     10          7           0       -2.653210   -1.818692   -0.388537
     11          6           0        4.814164   -1.258754   -0.012443
     12          6           0        4.434170   -0.288318    1.120086
     13          6           0        2.933400    0.015616    1.369670
     14          6           0        2.018174   -0.678857    2.137142
     15          6           0        0.737200    0.026891    1.817662
     16          6           0        1.052322    0.897030    0.776049
     17          6           0        6.389756   -1.457062   -0.173150
     18          6           0       -0.544192   -0.297432    2.628731
     19          6           0        6.683974   -0.987367   -1.471534
     20          6           0        0.186145    1.889200    0.174558
     21          6           0       -1.129184    1.955656   -0.312780
     22          6           0        5.335455   -0.660223   -2.157474
     23          6           0       -1.838738    2.922690   -0.934173
     24          6           0        2.262229   -1.684681    3.180669
     25          6           0        7.265210   -1.775695    0.997393
     26          6           0       -3.086170    2.425365   -1.342736
     27          6           0       -1.055987   -1.683313    2.482131
     28          6           0       -3.043764    0.915669   -1.131558
     29          6           0       -1.490607    4.365467   -0.855958
     30          6           0        7.938395   -0.777491   -2.131124
     31          6           0       -1.615457    5.053478    0.432427
     32          6           0       -4.317027    3.136150   -1.824214
     33          6           0       -3.955761   -0.008487   -1.405276
     34          6           0       -2.460631   -1.833826    3.023083
     35          6           0       -3.741254   -1.388540   -1.074371
     36          6           0        9.150511   -0.686471   -1.584395
     37          6           0       -1.117997    6.497562    0.431647
     38          6           0       -4.751800   -2.531109   -1.360261
     39          6           0       -4.098894   -3.695186   -1.010457
     40          6           0       -2.837307   -3.272268   -0.414275
     41          6           0       -6.053799   -2.204694   -2.164523
     42          6           0       -4.559240   -5.083542   -1.185514
     43          6           0       -7.027953   -3.086500   -2.495963
     44          1           0        4.487320   -2.275074    0.102946
     45          1           0        5.003838    0.654921    1.056515
     46          1           0        4.707276   -0.886950    2.147413
     47          1           0        2.840853    1.292931   -0.164427
     48          1           0        3.359076   -1.015705   -1.679248
     49          1           0       -0.478960    0.022716    3.822098
     50          1           0       -1.108320    0.419792    2.131384
     51          1           0        0.712768    2.885410    0.031845
     52          1           0        3.354818   -1.832235    3.284230
     53          1           0        1.796675   -1.445722    4.175560
     54          1           0        1.968167   -2.534342    2.735379
     55          1           0        6.657179   -2.302880    1.650729
     56          1           0        7.678629   -0.868009    1.536857
     57          1           0        8.027153   -2.448485    0.574160
     58          1           0       -1.201704   -2.151181    1.457859
     59          1           0       -0.494542   -2.708665    2.813785
     60          1           0       -1.522127   -0.096017   -0.101902
     61          1           0       -2.148776    5.126608   -1.580202
     62          1           0       -0.546125    4.574580   -1.222588
     63          1           0        8.133922   -0.871040   -3.330183
     64          1           0       -1.172118    4.540368    1.316829
     65          1           0       -2.744468    5.209752    0.708467
     66          1           0       -4.161610    4.302614   -1.915094
     67          1           0       -5.073585    3.016522   -1.085104
     68          1           0       -4.632740    2.680190   -2.724842
     69          1           0       -4.732430    0.301692   -1.920410
     70          1           0        9.041364   -0.601206   -0.569210
     71          1           0        9.811571   -0.690993   -2.276944
     72          1           0       -3.667385   -3.154243    3.607310
     73          1           0       -6.422605   -1.087863   -2.142357
     74          1           0       -4.599829   -5.589086   -2.232557
     75          1           0       -3.780445   -5.839362   -0.689519
     76          1           0       -5.578069   -4.999263   -0.769918
     77          1           0       -0.882596    8.135467    1.545158
     78          1           0       -7.925668   -2.675083   -3.076226
     79          1           0       -6.859276   -4.209911   -2.530103
 ---------------------------------------------------------------------

 SCF Done:  E(RB3LYP) =  -1947.83808384     A.U. after   16 cycles

 Excitation energies and oscillator strengths:

 Excited State   1:      Singlet-A      2.0856 eV  594.47 nm  f=0.4026  <S**2>=0.000
     155 ->156         0.69737
     155 <-156        -0.10326
 This state for optimization and/or second-order correction.
 Total Energy, E(TD-HF/TD-KS) =  -1947.76143869
 Copying the excited state density for this state as the 1-particle RhoCI density.

 The electronic state is 1-A.
 Alpha  occ. eigenvalues --  -19.18009 -19.15399 -19.12826 -19.11237 -19.10027
 Alpha  occ. eigenvalues --  -19.09221 -14.38003 -14.36382 -14.35353 -14.29917
 Alpha  occ. eigenvalues --  -10.32418 -10.29683 -10.28559 -10.27077 -10.25152
 Alpha  occ. eigenvalues --  -10.24534 -10.24088 -10.23914 -10.23187 -10.23017
 Alpha  occ. eigenvalues --  -10.22775 -10.22524 -10.22233 -10.22177 -10.22156
 Alpha  occ. eigenvalues --  -10.22007 -10.21930 -10.21307 -10.21294 -10.21291
 Alpha  occ. eigenvalues --  -10.20898 -10.20734 -10.20658 -10.20574 -10.20505
 Alpha  occ. eigenvalues --  -10.20163 -10.20137 -10.19372 -10.19284 -10.18589
 Alpha  occ. eigenvalues --  -10.18361 -10.18003 -10.17463  -1.09281  -1.08849
 Alpha  occ. eigenvalues --   -1.01937  -1.01692  -1.00468  -1.00062  -0.99439
 Alpha  occ. eigenvalues --   -0.97116  -0.93863  -0.90797  -0.83546  -0.82375
 Alpha  occ. eigenvalues --   -0.81741  -0.81129  -0.80090  -0.79549  -0.78356
 Alpha  occ. eigenvalues --   -0.77970  -0.76612  -0.76053  -0.75023  -0.73553
 Alpha  occ. eigenvalues --   -0.72240  -0.72194  -0.69894  -0.69063  -0.68334
 Alpha  occ. eigenvalues --   -0.68031  -0.65916  -0.64103  -0.61397  -0.60879
 Alpha  occ. eigenvalues --   -0.60357  -0.59786  -0.57905  -0.57484  -0.57408
 Alpha  occ. eigenvalues --   -0.56975  -0.55792  -0.55559  -0.54376  -0.53249
 Alpha  occ. eigenvalues --   -0.52802  -0.51399  -0.51080  -0.50561  -0.50318
 Alpha  occ. eigenvalues --   -0.49691  -0.48617  -0.47995  -0.47713  -0.47619
 Alpha  occ. eigenvalues --   -0.47231  -0.46928  -0.46439  -0.46128  -0.45500
 Alpha  occ. eigenvalues --   -0.45330  -0.45022  -0.44459  -0.44374  -0.44072
 Alpha  occ. eigenvalues --   -0.43661  -0.43330  -0.43073  -0.42992  -0.42602
 Alpha  occ. eigenvalues --   -0.42287  -0.42101  -0.41694  -0.41602  -0.41298
 Alpha  occ. eigenvalues --   -0.40745  -0.40616  -0.40343  -0.40276  -0.39882
 Alpha  occ. eigenvalues --   -0.39677  -0.39670  -0.39202  -0.38940  -0.38622
 Alpha  occ. eigenvalues --   -0.38112  -0.37815  -0.37324  -0.36705  -0.36227
 Alpha  occ. eigenvalues --   -0.35989  -0.35677  -0.34805  -0.34442  -0.34064
 Alpha  occ. eigenvalues --   -0.33738  -0.32584  -0.32398  -0.31322  -0.31244
 Alpha  occ. eigenvalues --   -0.30970  -0.30234  -0.28717  -0.28282  -0.27923
 Alpha  occ. eigenvalues --   -0.26447  -0.25961  -0.25853  -0.24817  -0.24703
 Alpha  occ. eigenvalues --   -0.24545  -0.24141  -0.23907  -0.23104  -0.19106
 Alpha virt. eigenvalues --   -0.10883  -0.07013  -0.06121  -0.01523   0.00112
 Alpha virt. eigenvalues --    0.00802   0.02062   0.02576   0.02725   0.03037
 Alpha virt. eigenvalues --    0.03730   0.03879   0.04321   0.05008   0.05444

 Mulliken charges:
               1
     1  O   -0.270346
     2  O   -0.130553
     3  O   -0.220540
     4  O   -0.236052
     5  O   -0.212062
     6  O   -0.196537
     7  N    0.081061
     8  N   -0.186053
     9  N   -0.091943
    10  N   -0.302613
    11  C    0.124474
    12  C    0.117994
    13  C   -0.121102
    14  C   -0.183505
    15  C   -0.139768
    16  C    0.017510
    17  C   -0.212693
    18  C    0.192863
    19  C   -0.002665
    20  C   -0.102716
    21  C    0.072642
    22  C    0.143077
    23  C   -0.007386
    24  C    0.197904
    25  C    0.130035
    26  C   -0.157364
    27  C   -0.057172
    28  C    0.149434
    29  C    0.057435
    30  C   -0.142229
    31  C   -0.018201
    32  C    0.126649
    33  C   -0.034442
    34  C    0.088757
    35  C    0.081668
    36  C    0.129933
    37  C    0.118195
    38  C    0.008324
    39  C   -0.139504
    40  C    0.165124
    41  C   -0.026547
    42  C   -0.003453
    43  C   -0.070641
    44  H    0.005229
    45  H    0.003006
    46  H    0.018087
    47  H    0.082988
    48  H    0.155264
    49  H    0.039963
    50  H   -0.022361
    51  H   -0.004341
    52  H   -0.026128
    53  H    0.038363
    54  H   -0.005799
    55  H   -0.006299
    56  H    0.063462
    57  H    0.044181
    58  H    0.069625
    59  H    0.031140
    60  H    0.099871
    61  H    0.028007
    62  H   -0.004882
    63  H    0.038836
    64  H    0.047599
    65  H    0.046123
    66  H    0.031317
    67  H    0.023809
    68  H    0.026468
    69  H   -0.116365
    70  H   -0.029466
    71  H   -0.036739
    72  H    0.126318
    73  H    0.044084
    74  H    0.050359
    75  H    0.049364
    76  H    0.048666
    77  H    0.214047
    78  H    0.044170
    79  H    0.045041
 Sum of Mulliken charges =   0.00000

 Dipole moment (field-independent basis, Debye):
    X=             -0.2628    Y=              1.2884    Z=              2.8429  Tot=              3.1323
 Quadrupole moment (field-independent basis, Debye-Ang):
   XX=           -216.9295   YY=           -243.2892   ZZ=           -265.5418
   XY=             -4.0337   XZ=             37.4022   YZ=              5.3946

 Normal termination of Gaussian 09 at Mon Jul  8 22:29:05 2019.
