 Gaussian 09, Revision D.01,
 Gaussian 09:  ES64L-G09RevD.01 24-Apr-2013

 --------------------------
 # td=(NStates=1) B3LYP/SVP
 --------------------------

 --
 TD
 --
 Symbolic Z-matrix:
 Charge =  0 Multiplicity = 1

                         Standard orientation:
 ---------------------------------------------------------------------
 Center     Atomic      Atomic             Coordinates (Angstroms)
 Number     Number       Type             X           Y           Z
 ---------------------------------------------------------------------
      1          8           0        5.244709   -0.228763   -3.364684
      2          8           0       -2.698878   -3.159750    3.326210
      3          8           0       -3.220179   -0.951857    3.310957
      4          8           0       -1.655336    7.111173    1.556488
      5          8           0       -0.585856    6.866576   -0.382245
      6          8           0       -1.932971   -4.047219    0.151382
      7          7           0        2.294417    1.010857    0.488958
      8          7           0        4.370709   -0.434912   -1.315527
      9          7           0       -1.898797    0.655897   -0.407384
     10          7           0       -2.618454   -1.805424   -0.435287
     11          6           0        4.767310   -0.904125    0.038794
     12          6           0        4.401621   -0.146089    1.214715
     13          6           0        2.937650    0.103635    1.359293
     14          6           0        2.062496   -0.562588    2.097790
     15          6           0        0.792808   -0.025111    1.668313
     16          6           0        0.970292    0.975116    0.721111
     17          6           0        6.289915   -1.236043   -0.227890
     18          6           0       -0.521768   -0.299852    2.456771
     19          6           0        6.724885   -0.827153   -1.451285
     20          6           0        0.127480    1.891233    0.170402
     21          6           0       -1.147059    1.808272   -0.329553
     22          6           0        5.421021   -0.394289   -2.101667
     23          6           0       -1.834381    2.887484   -0.990291
     24          6           0        2.331876   -1.724316    3.040859
     25          6           0        7.155335   -1.891614    0.874000
     26          6           0       -3.163110    2.335134   -1.428698
     27          6           0       -1.029054   -1.723217    2.600643
     28          6           0       -3.042688    0.888431   -1.164857
     29          6           0       -1.693684    4.408244   -0.962411
     30          6           0        8.041154   -0.952735   -2.091454
     31          6           0       -1.815168    5.054917    0.389381
     32          6           0       -4.377869    2.960722   -1.869600
     33          6           0       -4.050715   -0.126373   -1.319110
     34          6           0       -2.396273   -1.759230    3.147091
     35          6           0       -3.769075   -1.429691   -1.034837
     36          6           0        9.270352   -0.897350   -1.500289
     37          6           0       -1.208356    6.459762    0.532549
     38          6           0       -4.708609   -2.630853   -1.393943
     39          6           0       -4.011619   -3.713251   -1.068134
     40          6           0       -2.702963   -3.223957   -0.412373
     41          6           0       -6.035839   -2.423454   -1.948168
     42          6           0       -4.270726   -5.073905   -1.219280
     43          6           0       -6.804705   -3.225822   -2.789881
     44          1           0        4.150303   -1.813589    0.269880
     45          1           0        5.176337    0.618264    1.442287
     46          1           0        4.731209   -0.630076    2.081111
     47          1           0        2.829696    1.887354    0.049011
     48          1           0        3.476913   -0.784546   -1.806267
     49          1           0       -0.267338    0.220354    3.612095
     50          1           0       -1.226647    0.323651    2.118716
     51          1           0        0.370331    2.941417    0.262503
     52          1           0        3.222577   -1.634574    3.147293
     53          1           0        1.769107   -1.587429    4.008137
     54          1           0        2.065734   -2.715443    2.829409
     55          1           0        6.639587   -2.790858    1.462219
     56          1           0        7.546455   -1.175382    1.784153
     57          1           0        8.054778   -2.124585    0.292895
     58          1           0       -1.147733   -2.069061    1.588945
     59          1           0       -0.642825   -2.299736    3.212597
     60          1           0       -1.610138   -0.212776   -0.177731
     61          1           0       -2.273858    4.866691   -1.799604
     62          1           0       -0.754621    4.884406   -1.346852
     63          1           0        7.862307   -1.183861   -3.245636
     64          1           0       -1.363763    4.491082    1.179314
     65          1           0       -2.954200    5.234183    0.545464
     66          1           0       -4.460899    4.148034   -1.640632
     67          1           0       -5.175220    2.642402   -1.210596
     68          1           0       -4.650584    2.739280   -2.889215
     69          1           0       -4.827801    0.100598   -2.007201
     70          1           0        9.504561   -0.765470   -0.450181
     71          1           0       10.134665   -0.881332   -2.079238
     72          1           0       -3.648135   -3.188109    3.628895
     73          1           0       -6.422419   -1.374129   -1.675904
     74          1           0       -3.895624   -5.612366   -2.101081
     75          1           0       -3.722667   -5.880906   -0.530147
     76          1           0       -5.508547   -5.379669   -1.073373
     77          1           0       -1.442736    8.018553    1.569118
     78          1           0       -7.633709   -2.865441   -3.234385
     79          1           0       -6.415352   -4.344733   -2.964141
 ---------------------------------------------------------------------

 SCF Done:  E(RB3LYP) =  -1947.76476850     A.U. after   16 cycles

 Excitation energies and oscillator strengths:

 Excited State   1:      Singlet-A      2.1737 eV  570.39 nm  f=0.4145  <S**2>=0.000
     153 ->156        -0.10013
     154 ->156         0.11663
     155 ->156         0.68842
     155 <-156        -0.11366
 This state for optimization and/or second-order correction.
 Total Energy, E(TD-HF/TD-KS) =  -1947.68488717
 Copying the excited state density for this state as the 1-particle RhoCI density.

 The electronic state is 1-A.
 Alpha  occ. eigenvalues --  -19.20513 -19.14148 -19.13413 -19.12201 -19.09801
 Alpha  occ. eigenvalues --  -19.07985 -14.38319 -14.36338 -14.35629 -14.29578
 Alpha  occ. eigenvalues --  -10.32864 -10.29818 -10.27813 -10.26457 -10.25521
 Alpha  occ. eigenvalues --  -10.24925 -10.24730 -10.23140 -10.23018 -10.22955
 Alpha  occ. eigenvalues --  -10.22745 -10.22607 -10.22421 -10.22316 -10.22217
 Alpha  occ. eigenvalues --  -10.21583 -10.21489 -10.21387 -10.21035 -10.21006
 Alpha  occ. eigenvalues --  -10.20953 -10.20695 -10.20278 -10.20044 -10.19924
 Alpha  occ. eigenvalues --  -10.19686 -10.19635 -10.19466 -10.19061 -10.18806
 Alpha  occ. eigenvalues --  -10.18478 -10.18082 -10.16903  -1.13806  -1.07456
 Alpha  occ. eigenvalues --   -1.04311  -1.00291  -0.98979  -0.98698  -0.98172
 Alpha  occ. eigenvalues --   -0.97752  -0.91877  -0.90910  -0.83467  -0.82506
 Alpha  occ. eigenvalues --   -0.82143  -0.81567  -0.80782  -0.80246  -0.78756
 Alpha  occ. eigenvalues --   -0.78360  -0.76918  -0.75511  -0.74689  -0.73668
 Alpha  occ. eigenvalues --   -0.72917  -0.70983  -0.70436  -0.69924  -0.68810
 Alpha  occ. eigenvalues --   -0.67094  -0.66112  -0.64185  -0.62789  -0.61987
 Alpha  occ. eigenvalues --   -0.60781  -0.58627  -0.57823  -0.57257  -0.56580
 Alpha  occ. eigenvalues --   -0.56476  -0.56098  -0.54928  -0.53947  -0.53044
 Alpha  occ. eigenvalues --   -0.52189  -0.51482  -0.50990  -0.50856  -0.50500
 Alpha  occ. eigenvalues --   -0.49636  -0.49567  -0.49319  -0.49124  -0.47918
 Alpha  occ. eigenvalues --   -0.47509  -0.47315  -0.46808  -0.46194  -0.45995
 Alpha  occ. eigenvalues --   -0.45677  -0.45605  -0.45014  -0.44398  -0.44329
 Alpha  occ. eigenvalues --   -0.43810  -0.43590  -0.43197  -0.42842  -0.42618
 Alpha  occ. eigenvalues --   -0.42313  -0.42055  -0.41887  -0.41669  -0.41285
 Alpha  occ. eigenvalues --   -0.40502  -0.40278  -0.40102  -0.40070  -0.39506
 Alpha  occ. eigenvalues --   -0.39146  -0.38788  -0.38551  -0.38496  -0.38126
 Alpha  occ. eigenvalues --   -0.37920  -0.37398  -0.37135  -0.36798  -0.36788
 Alpha  occ. eigenvalues --   -0.35604  -0.35146  -0.35035  -0.34820  -0.33845
 Alpha  occ. eigenvalues --   -0.33569  -0.33188  -0.33102  -0.32583  -0.30904
 Alpha  occ. eigenvalues --   -0.30466  -0.30081  -0.28887  -0.28443  -0.27527
 Alpha  occ. eigenvalues --   -0.26955  -0.25933  -0.25383  -0.25226  -0.24586
 Alpha  occ. eigenvalues --   -0.23915  -0.23552  -0.23286  -0.22369  -0.19692
 Alpha virt. eigenvalues --   -0.11218  -0.06254  -0.05980  -0.01259  -0.00719
 Alpha virt. eigenvalues --    0.00020   0.00534   0.02184   0.02926   0.03275
 Alpha virt. eigenvalues --    0.03746   0.03969   0.03999   0.04498   0.04583

 Mulliken charges:
               1
     1  O   -0.313962
     2  O   -0.277722
     3  O   -0.164321
     4  O   -0.107719
     5  O   -0.195998
     6  O   -0.247023
     7  N   -0.120050
     8  N   -0.136866
     9  N   -0.013143
    10  N   -0.308595
    11  C    0.090623
    12  C    0.201345
    13  C   -0.082848
    14  C   -0.123302
    15  C   -0.123621
    16  C    0.175009
    17  C   -0.146852
    18  C    0.057346
    19  C   -0.021813
    20  C   -0.106000
    21  C    0.022375
    22  C    0.106763
    23  C   -0.042289
    24  C    0.289534
    25  C   -0.012807
    26  C   -0.135180
    27  C    0.206629
    28  C    0.085910
    29  C    0.049185
    30  C   -0.040148
    31  C   -0.010251
    32  C    0.072969
    33  C   -0.092513
    34  C    0.086778
    35  C    0.096189
    36  C   -0.008135
    37  C    0.083961
    38  C    0.076512
    39  C   -0.090792
    40  C    0.185690
    41  C   -0.082122
    42  C   -0.061106
    43  C   -0.003698
    44  H    0.006329
    45  H   -0.021898
    46  H   -0.046751
    47  H    0.165428
    48  H    0.171777
    49  H    0.015816
    50  H   -0.045930
    51  H   -0.009602
    52  H   -0.117123
    53  H    0.011490
    54  H    0.023678
    55  H    0.050597
    56  H    0.049958
    57  H    0.033647
    58  H    0.067104
    59  H   -0.069937
    60  H    0.092319
    61  H    0.013860
    62  H    0.019450
    63  H    0.061071
    64  H    0.028983
    65  H    0.044154
    66  H    0.032417
    67  H    0.028261
    68  H    0.039154
    69  H   -0.026313
    70  H    0.025332
    71  H    0.018612
    72  H    0.176713
    73  H    0.016955
    74  H    0.032522
    75  H    0.037846
    76  H    0.038307
    77  H    0.167407
    78  H   -0.002029
    79  H    0.052458
 Sum of Mulliken charges =   0.00000

 Dipole moment (field-independent basis, Debye):
    X=              0.7734    Y=              5.0276    Z=              3.7705  Tot=              6.3318
 Quadrupole moment (field-independent basis, Debye-Ang):
   XX=           -219.1607   YY=           -233.2734   ZZ=           -264.9335
   XY=            -18.2686   XZ=             38.0206   YZ=             11.0413

 Normal termination of Gaussian 09 at Mon Jul  8 18:46:32 2019.
