 Gaussian 09, Revision D.01,
 Gaussian 09:  ES64L-G09RevD.01 24-Apr-2013

 --------------------------
 # td=(NStates=1) B3LYP/SVP
 --------------------------

 --
 TD
 --
 Symbolic Z-matrix:
 Charge =  0 Multiplicity = 1

                         Standard orientation:
 ---------------------------------------------------------------------
 Center     Atomic      Atomic             Coordinates (Angstroms)
 Number     Number       Type             X           Y           Z
 ---------------------------------------------------------------------
      1          8           0        5.193720   -0.402342   -3.362377
      2          8           0       -2.766773   -2.878323    3.441190
      3          8           0       -3.227609   -0.770895    3.501190
      4          8           0       -2.006211    7.132124    1.309563
      5          8           0       -0.304708    6.877272   -0.445769
      6          8           0       -1.688906   -4.078651   -0.097120
      7          7           0        2.327741    1.038258    0.565065
      8          7           0        4.367973   -0.601202   -1.179437
      9          7           0       -1.899789    0.600628   -0.354934
     10          7           0       -2.637585   -1.976633   -0.481117
     11          6           0        4.825176   -1.188267    0.026872
     12          6           0        4.489601   -0.265712    1.257799
     13          6           0        3.056807    0.093631    1.349750
     14          6           0        2.004342   -0.361437    2.181606
     15          6           0        0.727891    0.200579    1.814948
     16          6           0        0.929512    1.060600    0.865494
     17          6           0        6.348962   -1.272262   -0.099467
     18          6           0       -0.618493   -0.144654    2.547266
     19          6           0        6.593966   -0.942144   -1.481114
     20          6           0        0.056485    1.970281    0.118813
     21          6           0       -1.173841    1.799501   -0.349354
     22          6           0        5.414950   -0.615296   -2.199180
     23          6           0       -2.045430    2.867223   -0.943713
     24          6           0        2.293068   -1.504334    3.202266
     25          6           0        7.169274   -1.768724    0.977194
     26          6           0       -3.235907    2.321885   -1.285837
     27          6           0       -1.019438   -1.531927    2.573278
     28          6           0       -3.073376    0.794259   -1.017639
     29          6           0       -1.461518    4.342350   -1.069641
     30          6           0        7.952094   -0.884840   -2.169024
     31          6           0       -1.772725    5.037815    0.198870
     32          6           0       -4.285630    2.954104   -1.981825
     33          6           0       -4.045092   -0.210090   -1.283676
     34          6           0       -2.501572   -1.680775    3.186307
     35          6           0       -3.723569   -1.506475   -1.070464
     36          6           0        9.102089   -0.669050   -1.567068
     37          6           0       -1.247380    6.478897    0.319640
     38          6           0       -4.582750   -2.547071   -1.416890
     39          6           0       -3.968547   -3.689965   -1.088651
     40          6           0       -2.612383   -3.380711   -0.481699
     41          6           0       -5.877647   -2.400100   -2.027810
     42          6           0       -4.417626   -5.200198   -1.101655
     43          6           0       -6.680921   -3.405354   -2.689070
     44          1           0        4.311327   -2.141597    0.205930
     45          1           0        5.084069    0.722261    1.014327
     46          1           0        4.680932   -0.808362    2.159750
     47          1           0        2.658897    1.464151   -0.306086
     48          1           0        3.461700   -0.554679   -1.410069
     49          1           0       -0.304816   -0.123459    3.599952
     50          1           0       -1.399571    0.540904    2.180644
     51          1           0        0.669374    2.880321   -0.195139
     52          1           0        3.248737   -1.093598    3.816709
     53          1           0        1.436440   -1.315287    3.984161
     54          1           0        2.298923   -2.678349    2.803126
     55          1           0        6.504894   -2.873877    1.311609
     56          1           0        7.325600   -1.221814    1.917737
     57          1           0        8.318154   -2.012945    0.680153
     58          1           0       -1.142357   -1.970936    1.607594
     59          1           0       -0.430825   -2.270437    3.172677
     60          1           0       -1.528495   -0.397447   -0.283025
     61          1           0       -2.104343    4.704203   -1.781167
     62          1           0       -0.438380    4.354910   -1.390048
     63          1           0        7.754903   -1.081190   -3.284752
     64          1           0       -1.465717    4.532133    1.188081
     65          1           0       -2.893389    5.012110    0.280428
     66          1           0       -4.038593    4.027561   -2.535473
     67          1           0       -5.164985    2.946102   -1.445581
     68          1           0       -4.652403    2.200698   -2.825980
     69          1           0       -5.078363    0.020397   -1.669914
     70          1           0        9.317050   -0.427799   -0.580127
     71          1           0       10.067226   -0.704224   -2.131000
     72          1           0       -3.592988   -3.003314    3.876345
     73          1           0       -6.090850   -1.398407   -2.333831
     74          1           0       -4.311890   -5.738896   -2.082935
     75          1           0       -3.765077   -5.792124   -0.218827
     76          1           0       -5.522429   -5.328737   -0.881167
     77          1           0       -1.794259    8.193196    1.211475
     78          1           0       -7.538513   -3.206772   -3.195594
     79          1           0       -6.306700   -4.425922   -2.858404
 ---------------------------------------------------------------------

 SCF Done:  E(RB3LYP) =  -1947.82406977     A.U. after   16 cycles

 Excitation energies and oscillator strengths:

 Excited State   1:      Singlet-A      2.1322 eV  581.48 nm  f=0.3099  <S**2>=0.000
     154 ->156         0.26668
     155 ->156         0.64780
 This state for optimization and/or second-order correction.
 Total Energy, E(TD-HF/TD-KS) =  -1947.74571245
 Copying the excited state density for this state as the 1-particle RhoCI density.

 The electronic state is 1-A.
 Alpha  occ. eigenvalues --  -19.20860 -19.17677 -19.14615 -19.10830 -19.10683
 Alpha  occ. eigenvalues --  -19.09803 -14.37859 -14.36918 -14.33559 -14.27815
 Alpha  occ. eigenvalues --  -10.34185 -10.29772 -10.28721 -10.26702 -10.26378
 Alpha  occ. eigenvalues --  -10.24548 -10.24418 -10.24196 -10.23797 -10.22826
 Alpha  occ. eigenvalues --  -10.22089 -10.22058 -10.22018 -10.21973 -10.21911
 Alpha  occ. eigenvalues --  -10.21874 -10.21850 -10.21845 -10.21809 -10.21356
 Alpha  occ. eigenvalues --  -10.21098 -10.20855 -10.20849 -10.20346 -10.19915
 Alpha  occ. eigenvalues --  -10.19578 -10.19493 -10.19387 -10.18658 -10.18636
 Alpha  occ. eigenvalues --  -10.18463 -10.18121 -10.17752  -1.12207  -1.06649
 Alpha  occ. eigenvalues --   -1.03390  -1.01154  -0.99497  -0.99066  -0.98380
 Alpha  occ. eigenvalues --   -0.95984  -0.94009  -0.93108  -0.83761  -0.82033
 Alpha  occ. eigenvalues --   -0.81950  -0.80372  -0.79765  -0.79525  -0.78896
 Alpha  occ. eigenvalues --   -0.77427  -0.76308  -0.75737  -0.73294  -0.72538
 Alpha  occ. eigenvalues --   -0.72359  -0.70910  -0.69298  -0.68176  -0.67666
 Alpha  occ. eigenvalues --   -0.67241  -0.65751  -0.63842  -0.61214  -0.60812
 Alpha  occ. eigenvalues --   -0.60189  -0.59194  -0.58655  -0.58015  -0.57449
 Alpha  occ. eigenvalues --   -0.56248  -0.55191  -0.54209  -0.53704  -0.53181
 Alpha  occ. eigenvalues --   -0.52078  -0.51809  -0.51519  -0.50722  -0.50037
 Alpha  occ. eigenvalues --   -0.49068  -0.48725  -0.48516  -0.47776  -0.47587
 Alpha  occ. eigenvalues --   -0.46987  -0.46539  -0.46252  -0.45933  -0.45823
 Alpha  occ. eigenvalues --   -0.45415  -0.44629  -0.44448  -0.43929  -0.43567
 Alpha  occ. eigenvalues --   -0.43445  -0.43265  -0.43135  -0.42834  -0.42589
 Alpha  occ. eigenvalues --   -0.42419  -0.42063  -0.41718  -0.41312  -0.41113
 Alpha  occ. eigenvalues --   -0.41034  -0.40506  -0.40307  -0.39882  -0.39783
 Alpha  occ. eigenvalues --   -0.39359  -0.39259  -0.38497  -0.38381  -0.38197
 Alpha  occ. eigenvalues --   -0.37887  -0.37651  -0.37383  -0.37219  -0.36106
 Alpha  occ. eigenvalues --   -0.35820  -0.35518  -0.35278  -0.34620  -0.34300
 Alpha  occ. eigenvalues --   -0.33389  -0.33133  -0.32913  -0.32139  -0.31154
 Alpha  occ. eigenvalues --   -0.30956  -0.30779  -0.29038  -0.28188  -0.26919
 Alpha  occ. eigenvalues --   -0.26845  -0.26771  -0.25652  -0.25575  -0.24566
 Alpha  occ. eigenvalues --   -0.24278  -0.23399  -0.23019  -0.21552  -0.19801
 Alpha virt. eigenvalues --   -0.10842  -0.07300  -0.06268  -0.02898  -0.02070
 Alpha virt. eigenvalues --    0.00223   0.00564   0.00914   0.02627   0.02785
 Alpha virt. eigenvalues --    0.03533   0.03882   0.04627   0.04928   0.05651

 Mulliken charges:
               1
     1  O   -0.188471
     2  O   -0.066363
     3  O   -0.246242
     4  O   -0.268180
     5  O   -0.271604
     6  O   -0.194452
     7  N   -0.162422
     8  N   -0.203233
     9  N   -0.082101
    10  N   -0.302631
    11  C    0.050776
    12  C    0.231297
    13  C   -0.059195
    14  C   -0.174155
    15  C   -0.072233
    16  C    0.028233
    17  C   -0.059713
    18  C    0.166130
    19  C   -0.110785
    20  C   -0.126203
    21  C    0.152786
    22  C    0.169830
    23  C   -0.168303
    24  C   -0.026130
    25  C   -0.051918
    26  C   -0.106210
    27  C   -0.044133
    28  C    0.118376
    29  C    0.277622
    30  C    0.024793
    31  C   -0.062042
    32  C    0.058827
    33  C   -0.182637
    34  C    0.062293
    35  C    0.147784
    36  C   -0.024617
    37  C    0.223923
    38  C    0.049322
    39  C   -0.204728
    40  C    0.163579
    41  C   -0.026464
    42  C   -0.002318
    43  C   -0.011347
    44  H    0.023432
    45  H    0.016559
    46  H   -0.021000
    47  H    0.107471
    48  H    0.080762
    49  H   -0.006922
    50  H    0.022678
    51  H    0.016452
    52  H    0.036613
    53  H    0.018733
    54  H    0.077918
    55  H    0.058972
    56  H    0.057974
    57  H    0.057604
    58  H    0.034485
    59  H    0.027068
    60  H    0.180416
    61  H   -0.041974
    62  H    0.022315
    63  H    0.039625
    64  H    0.065136
    65  H    0.035534
    66  H    0.065407
    67  H    0.002120
    68  H    0.029296
    69  H   -0.001592
    70  H    0.001420
    71  H    0.030496
    72  H    0.161223
    73  H   -0.017461
    74  H    0.042267
    75  H    0.057550
    76  H    0.027286
    77  H    0.236973
    78  H    0.001737
    79  H    0.026683
 Sum of Mulliken charges =   0.00000

 Dipole moment (field-independent basis, Debye):
    X=             -0.2327    Y=              3.0654    Z=              2.0566  Tot=              3.6987
 Quadrupole moment (field-independent basis, Debye-Ang):
   XX=           -213.8950   YY=           -239.5938   ZZ=           -262.2513
   XY=            -16.2933   XZ=             34.2191   YZ=             -3.6610

 Normal termination of Gaussian 09 at Sun Jul  7 12:36:44 2019.
