 Gaussian 09, Revision D.01,
 Gaussian 09:  ES64L-G09RevD.01 24-Apr-2013

 --------------------------
 # td=(NStates=1) B3LYP/SVP
 --------------------------

 --
 TD
 --
 Symbolic Z-matrix:
 Charge =  0 Multiplicity = 1

                         Standard orientation:
 ---------------------------------------------------------------------
 Center     Atomic      Atomic             Coordinates (Angstroms)
 Number     Number       Type             X           Y           Z
 ---------------------------------------------------------------------
      1          8           0        5.292267   -0.148877   -3.277029
      2          8           0       -2.885262   -2.960802    3.330447
      3          8           0       -3.130565   -0.685246    3.062573
      4          8           0       -1.991923    7.111588    1.429991
      5          8           0       -0.943301    6.997990   -0.593711
      6          8           0       -1.873499   -4.145969    0.020508
      7          7           0        2.472039    1.014702    0.767670
      8          7           0        4.443417   -0.456383   -1.226401
      9          7           0       -1.767543    0.640135   -0.449540
     10          7           0       -2.610321   -1.978107   -0.452838
     11          6           0        4.782915   -1.093503    0.093369
     12          6           0        4.469953   -0.190552    1.233751
     13          6           0        3.054509    0.004851    1.383193
     14          6           0        2.038101   -0.566467    2.187785
     15          6           0        0.763499   -0.033882    1.894685
     16          6           0        1.053531    0.932355    0.910087
     17          6           0        6.360206   -1.268923   -0.220923
     18          6           0       -0.491780   -0.207081    2.608122
     19          6           0        6.690183   -0.859766   -1.402539
     20          6           0        0.248242    1.885675    0.201291
     21          6           0       -1.119786    1.769604   -0.371649
     22          6           0        5.441964   -0.503753   -2.144646
     23          6           0       -1.883383    2.861819   -0.934366
     24          6           0        2.292370   -1.667602    3.211333
     25          6           0        7.216113   -1.862162    0.906798
     26          6           0       -3.086285    2.284937   -1.314514
     27          6           0       -0.923665   -1.675045    2.699061
     28          6           0       -3.045112    0.805628   -1.003331
     29          6           0       -1.496515    4.299733   -0.821856
     30          6           0        7.880044   -0.783883   -2.263367
     31          6           0       -1.940024    4.942238    0.374981
     32          6           0       -4.148950    3.083453   -1.934424
     33          6           0       -4.027487   -0.128575   -1.316504
     34          6           0       -2.395929   -1.745895    3.121234
     35          6           0       -3.659182   -1.482304   -1.135486
     36          6           0        9.183662   -0.602508   -1.732306
     37          6           0       -1.558752    6.506097    0.342577
     38          6           0       -4.655851   -2.680691   -1.507616
     39          6           0       -4.037585   -3.717255   -0.970021
     40          6           0       -2.698665   -3.362408   -0.459984
     41          6           0       -5.954579   -2.491928   -2.103466
     42          6           0       -4.402199   -5.202186   -1.199097
     43          6           0       -6.814133   -3.348605   -2.661848
     44          1           0        4.351031   -2.053530    0.226502
     45          1           0        4.909700    0.774972    0.878842
     46          1           0        4.974029   -0.463350    2.383104
     47          1           0        2.717193    1.302638   -0.311431
     48          1           0        3.339885   -0.480677   -1.351051
     49          1           0       -0.693798    0.439980    3.559083
     50          1           0       -1.259563    0.379138    2.049021
     51          1           0        0.691959    3.000201    0.047824
     52          1           0        3.335152   -1.745044    3.381230
     53          1           0        1.656270   -1.468874    4.139500
     54          1           0        1.928023   -2.600342    2.832072
     55          1           0        6.656559   -2.681749    1.416348
     56          1           0        7.423075   -1.154587    1.659091
     57          1           0        8.135956   -2.171835    0.335802
     58          1           0       -0.859013   -2.245542    1.818219
     59          1           0       -0.258185   -2.457276    3.132551
     60          1           0       -1.771025   -0.353210   -0.076122
     61          1           0       -1.819279    4.886634   -1.749100
     62          1           0       -0.472155    4.379740   -0.983118
     63          1           0        7.708801   -0.989451   -3.423804
     64          1           0       -1.371728    4.383259    1.316662
     65          1           0       -2.986202    4.978007    0.894224
     66          1           0       -3.779899    4.093810   -2.353796
     67          1           0       -5.285150    3.382296   -1.364794
     68          1           0       -4.267377    2.578382   -2.837864
     69          1           0       -4.853897    0.170352   -2.037544
     70          1           0        9.326638   -0.500035   -0.634164
     71          1           0       10.021468   -0.437307   -2.354956
     72          1           0       -3.843561   -2.915858    3.373554
     73          1           0       -6.198252   -1.455246   -2.183338
     74          1           0       -4.303737   -5.145777   -2.387082
     75          1           0       -3.738762   -5.842676   -0.748312
     76          1           0       -5.348416   -5.353142   -0.978292
     77          1           0       -1.608688    7.979666    1.601833
     78          1           0       -7.808355   -3.019975   -3.084209
     79          1           0       -6.966146   -4.493998   -2.462895
 ---------------------------------------------------------------------

 SCF Done:  E(RB3LYP) =  -1947.82762787     A.U. after   17 cycles

 Excitation energies and oscillator strengths:

 Excited State   1:      Singlet-A      2.1074 eV  588.32 nm  f=0.5827  <S**2>=0.000
     155 ->156         0.70327
     155 <-156        -0.13701
 This state for optimization and/or second-order correction.
 Total Energy, E(TD-HF/TD-KS) =  -1947.75018194
 Copying the excited state density for this state as the 1-particle RhoCI density.

 The electronic state is 1-A.
 Alpha  occ. eigenvalues --  -19.19980 -19.18721 -19.13351 -19.11005 -19.10242
 Alpha  occ. eigenvalues --  -19.10061 -14.39071 -14.36865 -14.36183 -14.29560
 Alpha  occ. eigenvalues --  -10.33181 -10.31925 -10.28561 -10.26226 -10.25074
 Alpha  occ. eigenvalues --  -10.25007 -10.24723 -10.23910 -10.23420 -10.23333
 Alpha  occ. eigenvalues --  -10.23205 -10.23156 -10.22594 -10.22327 -10.22221
 Alpha  occ. eigenvalues --  -10.20919 -10.20841 -10.20694 -10.20581 -10.20506
 Alpha  occ. eigenvalues --  -10.20278 -10.20229 -10.20107 -10.20107 -10.20074
 Alpha  occ. eigenvalues --  -10.19928 -10.19927 -10.19764 -10.19706 -10.19467
 Alpha  occ. eigenvalues --  -10.19226 -10.18609 -10.17441  -1.11112  -1.09186
 Alpha  occ. eigenvalues --   -1.04013  -1.01465  -1.00404  -0.99638  -0.99083
 Alpha  occ. eigenvalues --   -0.96458  -0.93776  -0.91559  -0.83225  -0.82797
 Alpha  occ. eigenvalues --   -0.82113  -0.81213  -0.80513  -0.79920  -0.77818
 Alpha  occ. eigenvalues --   -0.77123  -0.76361  -0.75238  -0.74625  -0.72634
 Alpha  occ. eigenvalues --   -0.71510  -0.71114  -0.69354  -0.68630  -0.68545
 Alpha  occ. eigenvalues --   -0.67819  -0.66060  -0.63416  -0.62138  -0.61653
 Alpha  occ. eigenvalues --   -0.61349  -0.60457  -0.59052  -0.58599  -0.57112
 Alpha  occ. eigenvalues --   -0.56238  -0.55651  -0.54602  -0.53885  -0.52909
 Alpha  occ. eigenvalues --   -0.52517  -0.51592  -0.50333  -0.50146  -0.49427
 Alpha  occ. eigenvalues --   -0.49154  -0.48797  -0.48188  -0.47749  -0.47322
 Alpha  occ. eigenvalues --   -0.47259  -0.46483  -0.46439  -0.45763  -0.45210
 Alpha  occ. eigenvalues --   -0.45146  -0.44901  -0.44480  -0.44100  -0.43747
 Alpha  occ. eigenvalues --   -0.43632  -0.43193  -0.43041  -0.43006  -0.42900
 Alpha  occ. eigenvalues --   -0.42430  -0.42243  -0.42099  -0.42008  -0.41428
 Alpha  occ. eigenvalues --   -0.41187  -0.40951  -0.40412  -0.40163  -0.40064
 Alpha  occ. eigenvalues --   -0.39658  -0.39315  -0.38796  -0.38708  -0.38289
 Alpha  occ. eigenvalues --   -0.38199  -0.37827  -0.37251  -0.36692  -0.36360
 Alpha  occ. eigenvalues --   -0.36039  -0.35248  -0.34686  -0.34107  -0.33606
 Alpha  occ. eigenvalues --   -0.33523  -0.33358  -0.32427  -0.31940  -0.31630
 Alpha  occ. eigenvalues --   -0.31034  -0.30164  -0.28695  -0.28286  -0.27366
 Alpha  occ. eigenvalues --   -0.27248  -0.26361  -0.26123  -0.25777  -0.25582
 Alpha  occ. eigenvalues --   -0.24789  -0.24344  -0.24163  -0.22565  -0.18583
 Alpha virt. eigenvalues --   -0.10802  -0.06274  -0.05610  -0.01403  -0.00668
 Alpha virt. eigenvalues --   -0.00451  -0.00064   0.00305   0.01368   0.02290
 Alpha virt. eigenvalues --    0.03085   0.03981   0.04392   0.04809   0.05310

 Mulliken charges:
               1
     1  O   -0.192064
     2  O   -0.135033
     3  O   -0.319837
     4  O   -0.150626
     5  O   -0.233738
     6  O   -0.228433
     7  N   -0.106174
     8  N   -0.255734
     9  N   -0.038277
    10  N   -0.288893
    11  C    0.094879
    12  C    0.130988
    13  C   -0.075860
    14  C   -0.205987
    15  C   -0.010713
    16  C    0.047672
    17  C   -0.221133
    18  C    0.094448
    19  C   -0.018576
    20  C   -0.137128
    21  C    0.014501
    22  C    0.142392
    23  C   -0.068424
    24  C    0.135472
    25  C    0.098280
    26  C   -0.119070
    27  C    0.013928
    28  C    0.087209
    29  C    0.181016
    30  C   -0.056088
    31  C   -0.110300
    32  C    0.025568
    33  C   -0.117234
    34  C    0.171874
    35  C    0.071953
    36  C   -0.027490
    37  C    0.150472
    38  C    0.050932
    39  C   -0.265401
    40  C    0.170481
    41  C    0.028298
    42  C    0.162452
    43  C   -0.093418
    44  H    0.010847
    45  H    0.001718
    46  H    0.057865
    47  H    0.167574
    48  H    0.160296
    49  H    0.036640
    50  H    0.003395
    51  H    0.038700
    52  H   -0.019895
    53  H    0.033769
    54  H    0.025638
    55  H    0.022115
    56  H    0.024634
    57  H    0.041696
    58  H    0.023072
    59  H    0.004439
    60  H    0.173192
    61  H    0.018953
    62  H   -0.015481
    63  H    0.068092
    64  H    0.048781
    65  H    0.058593
    66  H    0.014810
    67  H    0.060602
    68  H    0.007052
    69  H    0.026197
    70  H    0.031984
    71  H    0.025407
    72  H    0.183475
    73  H   -0.018108
    74  H    0.047530
    75  H    0.006036
    76  H   -0.020227
    77  H    0.187346
    78  H    0.025298
    79  H    0.040782
 Sum of Mulliken charges =   0.00000

 Dipole moment (field-independent basis, Debye):
    X=              1.1404    Y=              2.3260    Z=              3.8805  Tot=              4.6658
 Quadrupole moment (field-independent basis, Debye-Ang):
   XX=           -220.7947   YY=           -246.0487   ZZ=           -261.4130
   XY=             -9.1158   XZ=             25.6240   YZ=              7.6861

 Normal termination of Gaussian 09 at Wed Jul 10 02:26:10 2019.
