 Gaussian 09, Revision D.01,
 Gaussian 09:  ES64L-G09RevD.01 24-Apr-2013

 --------------------------
 # td=(NStates=1) B3LYP/SVP
 --------------------------

 --
 TD
 --
 Symbolic Z-matrix:
 Charge =  0 Multiplicity = 1

                         Standard orientation:
 ---------------------------------------------------------------------
 Center     Atomic      Atomic             Coordinates (Angstroms)
 Number     Number       Type             X           Y           Z
 ---------------------------------------------------------------------
      1          8           0        5.652615   -0.121686   -3.371046
      2          8           0       -2.897235   -3.053169    3.453690
      3          8           0       -3.210019   -0.862118    3.154029
      4          8           0       -1.421529    7.158501    1.565231
      5          8           0       -1.005905    7.118531   -0.751271
      6          8           0       -2.012462   -4.140174   -0.200301
      7          7           0        2.340706    0.844216    0.575414
      8          7           0        4.524101   -0.377001   -1.299247
      9          7           0       -1.940245    0.619688   -0.352106
     10          7           0       -2.697545   -1.991495   -0.482336
     11          6           0        4.907862   -1.120362   -0.080608
     12          6           0        4.504365   -0.269239    1.137164
     13          6           0        2.961703    0.016738    1.370223
     14          6           0        1.973229   -0.635760    2.107460
     15          6           0        0.784987   -0.061305    1.818269
     16          6           0        0.919321    0.900589    0.931800
     17          6           0        6.447016   -1.254853   -0.181461
     18          6           0       -0.501440   -0.286614    2.609499
     19          6           0        6.782284   -0.846118   -1.371292
     20          6           0        0.149170    1.850946    0.205934
     21          6           0       -1.220086    1.750470   -0.207537
     22          6           0        5.609015   -0.444124   -2.169024
     23          6           0       -1.932006    2.757551   -0.732088
     24          6           0        2.369941   -1.750743    3.104886
     25          6           0        7.256669   -1.800777    0.955617
     26          6           0       -3.123485    2.404541   -1.150492
     27          6           0       -1.008322   -1.718724    2.466024
     28          6           0       -3.183976    0.896527   -0.879345
     29          6           0       -1.541284    4.233353   -0.930609
     30          6           0        8.138065   -0.871057   -2.051448
     31          6           0       -1.920804    5.149673    0.297789
     32          6           0       -4.330058    3.017638   -1.664143
     33          6           0       -4.106305   -0.130430   -1.193436
     34          6           0       -2.467272   -1.818743    3.017994
     35          6           0       -3.772016   -1.470952   -1.055936
     36          6           0        9.378413   -0.784535   -1.515652
     37          6           0       -1.381434    6.570024    0.315157
     38          6           0       -4.847038   -2.518168   -1.395228
     39          6           0       -4.161357   -3.680950   -1.249824
     40          6           0       -2.765921   -3.302774   -0.617987
     41          6           0       -6.121037   -2.301693   -1.844185
     42          6           0       -4.522812   -5.141921   -1.301821
     43          6           0       -6.771096   -3.077070   -2.833893
     44          1           0        4.513473   -1.882446    0.058081
     45          1           0        5.021769    0.711894    1.191773
     46          1           0        4.951763   -0.609723    2.064451
     47          1           0        2.670305    1.591844   -0.007785
     48          1           0        3.461351   -0.599927   -1.657994
     49          1           0       -0.087886   -0.072790    3.565618
     50          1           0       -1.228881    0.574393    2.260144
     51          1           0        0.489263    2.909514   -0.113746
     52          1           0        3.437882   -1.692084    3.259676
     53          1           0        1.728671   -1.761576    4.096154
     54          1           0        2.417666   -2.859303    2.415412
     55          1           0        6.822775   -2.474766    1.548508
     56          1           0        7.490470   -1.114083    1.797593
     57          1           0        8.244182   -2.348926    0.854496
     58          1           0       -1.169925   -2.019090    1.417709
     59          1           0       -0.391396   -2.472308    3.236546
     60          1           0       -1.757405   -0.414093   -0.131005
     61          1           0       -1.924661    4.590944   -1.919814
     62          1           0       -0.459331    4.324241   -1.150192
     63          1           0        7.890728   -0.999554   -3.170014
     64          1           0       -1.618998    4.685865    1.320880
     65          1           0       -2.911594    5.349238    0.632764
     66          1           0       -4.144947    4.233316   -2.063908
     67          1           0       -5.212106    2.769568   -1.068856
     68          1           0       -4.534917    2.383395   -2.666748
     69          1           0       -4.968923    0.258488   -1.641803
     70          1           0        9.333666   -0.287168   -0.400975
     71          1           0       10.143223   -0.896400   -2.171750
     72          1           0       -3.735637   -3.119808    3.622851
     73          1           0       -6.771055   -1.292024   -1.747075
     74          1           0       -4.599129   -5.491610   -2.387845
     75          1           0       -3.735746   -5.756713   -0.761652
     76          1           0       -5.531914   -5.272882   -0.744226
     77          1           0       -1.178454    8.136700    1.474495
     78          1           0       -7.619519   -2.964856   -3.331288
     79          1           0       -6.493338   -4.151038   -3.046043
 ---------------------------------------------------------------------

 SCF Done:  E(RB3LYP) =  -1947.74685463     A.U. after   17 cycles

 Excitation energies and oscillator strengths:

 Excited State   1:      Singlet-A      2.2897 eV  541.49 nm  f=0.5753  <S**2>=0.000
     154 ->156         0.16830
     155 ->156         0.68550
     155 <-156        -0.11889
 This state for optimization and/or second-order correction.
 Total Energy, E(TD-HF/TD-KS) =  -1947.66271023
 Copying the excited state density for this state as the 1-particle RhoCI density.

 The electronic state is 1-A.
 Alpha  occ. eigenvalues --  -19.19962 -19.15273 -19.13335 -19.10984 -19.10774
 Alpha  occ. eigenvalues --  -19.09400 -14.38250 -14.37171 -14.36751 -14.29422
 Alpha  occ. eigenvalues --  -10.33430 -10.30964 -10.29223 -10.25583 -10.24910
 Alpha  occ. eigenvalues --  -10.23934 -10.23906 -10.23894 -10.23844 -10.23348
 Alpha  occ. eigenvalues --  -10.22814 -10.22808 -10.22540 -10.22404 -10.22365
 Alpha  occ. eigenvalues --  -10.22356 -10.22345 -10.21277 -10.21101 -10.20901
 Alpha  occ. eigenvalues --  -10.20832 -10.20732 -10.20455 -10.20193 -10.19837
 Alpha  occ. eigenvalues --  -10.19831 -10.19201 -10.19103 -10.19077 -10.18910
 Alpha  occ. eigenvalues --  -10.18844 -10.18702 -10.18583  -1.08220  -1.08219
 Alpha  occ. eigenvalues --   -1.01955  -1.01800  -1.00025  -0.99579  -0.99475
 Alpha  occ. eigenvalues --   -0.99034  -0.94428  -0.93348  -0.83591  -0.83086
 Alpha  occ. eigenvalues --   -0.82640  -0.81394  -0.80770  -0.79876  -0.77928
 Alpha  occ. eigenvalues --   -0.77660  -0.76312  -0.75560  -0.74112  -0.73313
 Alpha  occ. eigenvalues --   -0.72933  -0.71639  -0.69339  -0.68930  -0.68513
 Alpha  occ. eigenvalues --   -0.67919  -0.66735  -0.64105  -0.61657  -0.61337
 Alpha  occ. eigenvalues --   -0.60917  -0.60375  -0.59905  -0.59365  -0.58500
 Alpha  occ. eigenvalues --   -0.56893  -0.56561  -0.54665  -0.53715  -0.53089
 Alpha  occ. eigenvalues --   -0.52462  -0.52090  -0.50874  -0.49978  -0.49782
 Alpha  occ. eigenvalues --   -0.48793  -0.48249  -0.48174  -0.47871  -0.47606
 Alpha  occ. eigenvalues --   -0.47107  -0.46595  -0.46104  -0.45973  -0.45718
 Alpha  occ. eigenvalues --   -0.45258  -0.44855  -0.44703  -0.44164  -0.43999
 Alpha  occ. eigenvalues --   -0.43730  -0.43097  -0.42669  -0.42491  -0.42267
 Alpha  occ. eigenvalues --   -0.41984  -0.41965  -0.41717  -0.41406  -0.41113
 Alpha  occ. eigenvalues --   -0.40598  -0.40492  -0.40148  -0.39753  -0.39615
 Alpha  occ. eigenvalues --   -0.39491  -0.39447  -0.39222  -0.38783  -0.38395
 Alpha  occ. eigenvalues --   -0.38356  -0.37977  -0.37377  -0.36968  -0.36899
 Alpha  occ. eigenvalues --   -0.36210  -0.35155  -0.34781  -0.34604  -0.34218
 Alpha  occ. eigenvalues --   -0.34041  -0.33723  -0.33324  -0.32700  -0.31609
 Alpha  occ. eigenvalues --   -0.31021  -0.30719  -0.29219  -0.28369  -0.27925
 Alpha  occ. eigenvalues --   -0.27525  -0.26929  -0.26294  -0.26102  -0.25818
 Alpha  occ. eigenvalues --   -0.25258  -0.23996  -0.23616  -0.21783  -0.19300
 Alpha virt. eigenvalues --   -0.10690  -0.06171  -0.05540  -0.02176  -0.01196
 Alpha virt. eigenvalues --   -0.00603   0.00822   0.01519   0.02017   0.02731
 Alpha virt. eigenvalues --    0.03130   0.03424   0.03872   0.04911   0.05159

 Mulliken charges:
               1
     1  O   -0.239649
     2  O   -0.139291
     3  O   -0.236765
     4  O   -0.226481
     5  O   -0.268146
     6  O   -0.195797
     7  N   -0.063612
     8  N   -0.254129
     9  N   -0.084108
    10  N   -0.219401
    11  C    0.296893
    12  C    0.141777
    13  C   -0.089469
    14  C   -0.123488
    15  C   -0.129908
    16  C    0.132434
    17  C   -0.112729
    18  C    0.083050
    19  C   -0.089550
    20  C   -0.115256
    21  C    0.033853
    22  C    0.174221
    23  C   -0.104663
    24  C    0.045941
    25  C    0.114998
    26  C   -0.055878
    27  C   -0.028514
    28  C    0.020914
    29  C    0.122404
    30  C   -0.034305
    31  C    0.017881
    32  C    0.011327
    33  C   -0.093635
    34  C    0.121636
    35  C    0.154802
    36  C    0.003552
    37  C    0.155671
    38  C    0.101999
    39  C   -0.209406
    40  C    0.102559
    41  C   -0.113384
    42  C    0.038259
    43  C   -0.025080
    44  H   -0.129219
    45  H   -0.012238
    46  H   -0.017666
    47  H    0.112655
    48  H    0.179027
    49  H    0.001585
    50  H    0.046400
    51  H    0.012044
    52  H   -0.008884
    53  H    0.055787
    54  H    0.038715
    55  H   -0.039984
    56  H    0.020051
    57  H    0.035560
    58  H    0.082072
    59  H    0.065531
    60  H    0.170296
    61  H    0.029228
    62  H    0.007161
    63  H    0.041035
    64  H    0.036868
    65  H    0.024096
    66  H    0.057411
    67  H    0.047723
    68  H    0.045910
    69  H   -0.062910
    70  H    0.056403
    71  H    0.006296
    72  H    0.117028
    73  H    0.028750
    74  H    0.041865
    75  H    0.043749
    76  H    0.035476
    77  H    0.210183
    78  H   -0.015911
    79  H    0.016383
 Sum of Mulliken charges =   0.00000

 Dipole moment (field-independent basis, Debye):
    X=              1.3229    Y=              2.9638    Z=              3.7721  Tot=              4.9762
 Quadrupole moment (field-independent basis, Debye-Ang):
   XX=           -224.7007   YY=           -251.6773   ZZ=           -264.0416
   XY=            -14.3037   XZ=             35.0495   YZ=              8.9877

 Normal termination of Gaussian 09 at Mon Jul  8 18:38:42 2019.
