 Gaussian 09, Revision D.01,
 Gaussian 09:  ES64L-G09RevD.01 24-Apr-2013

 --------------------------
 # td=(NStates=1) B3LYP/SVP
 --------------------------

 --
 TD
 --
 Symbolic Z-matrix:
 Charge =  0 Multiplicity = 1

                         Standard orientation:
 ---------------------------------------------------------------------
 Center     Atomic      Atomic             Coordinates (Angstroms)
 Number     Number       Type             X           Y           Z
 ---------------------------------------------------------------------
      1          8           0        5.351461   -0.026714   -3.295488
      2          8           0       -2.793795   -3.047657    3.160583
      3          8           0       -3.226095   -0.944220    3.307752
      4          8           0       -2.305716    7.204913    1.398635
      5          8           0       -1.181026    7.010542   -0.632238
      6          8           0       -1.596160   -3.991321    0.042362
      7          7           0        2.340632    1.113015    0.594168
      8          7           0        4.521662   -0.382967   -1.245074
      9          7           0       -1.879614    0.546564   -0.413369
     10          7           0       -2.477882   -1.923934   -0.555757
     11          6           0        4.924183   -0.950884    0.067576
     12          6           0        4.462488   -0.014423    1.315499
     13          6           0        2.984480    0.201637    1.439867
     14          6           0        2.055579   -0.520872    2.125475
     15          6           0        0.732549   -0.063303    1.800185
     16          6           0        0.921388    0.924196    0.786836
     17          6           0        6.437073   -1.107133   -0.072008
     18          6           0       -0.498129   -0.247818    2.601218
     19          6           0        6.767582   -0.783422   -1.415942
     20          6           0        0.082644    1.904489    0.231940
     21          6           0       -1.204607    1.773546   -0.373255
     22          6           0        5.569714   -0.357082   -2.156462
     23          6           0       -1.993653    2.842084   -0.827399
     24          6           0        2.333648   -1.571388    3.157096
     25          6           0        7.371761   -1.628096    0.965130
     26          6           0       -3.204147    2.220784   -1.360824
     27          6           0       -1.075112   -1.680417    2.418010
     28          6           0       -3.083723    0.805621   -1.054696
     29          6           0       -1.697554    4.276931   -0.804573
     30          6           0        8.039669   -0.621751   -2.096237
     31          6           0       -2.123381    5.035005    0.430938
     32          6           0       -4.438264    2.782153   -1.988724
     33          6           0       -3.980385   -0.191484   -1.236590
     34          6           0       -2.440888   -1.825127    2.949206
     35          6           0       -3.739984   -1.570634   -1.142229
     36          6           0        9.240054   -0.589516   -1.571856
     37          6           0       -1.823322    6.530543    0.396913
     38          6           0       -4.532461   -2.809419   -1.594058
     39          6           0       -3.791626   -3.830052   -1.003165
     40          6           0       -2.430932   -3.303032   -0.442030
     41          6           0       -5.835015   -2.658347   -2.121633
     42          6           0       -4.057455   -5.292899   -1.042251
     43          6           0       -6.589168   -3.656599   -2.617073
     44          1           0        4.623526   -1.856608    0.327855
     45          1           0        4.866241    0.974461    0.878427
     46          1           0        4.988434   -0.449466    2.165009
     47          1           0        2.635215    1.619038   -0.122800
     48          1           0        3.558109   -0.606398   -1.453113
     49          1           0       -0.481390   -0.041357    3.601230
     50          1           0       -1.321615    0.352515    2.077941
     51          1           0        0.470064    2.876367   -0.157494
     52          1           0        3.176484   -1.626801    3.411768
     53          1           0        1.677905   -1.514253    4.094198
     54          1           0        1.849385   -2.647332    2.774900
     55          1           0        6.840507   -2.317528    1.667344
     56          1           0        7.940550   -0.796173    1.277722
     57          1           0        8.130276   -2.259531    0.468235
     58          1           0       -1.060688   -2.052973    1.412725
     59          1           0       -0.402112   -2.455105    3.022431
     60          1           0       -1.683123   -0.567982   -0.116550
     61          1           0       -2.069964    4.928042   -1.533327
     62          1           0       -0.650201    4.258382   -1.096945
     63          1           0        7.872868   -0.291690   -3.222230
     64          1           0       -1.139576    4.679274    1.248395
     65          1           0       -3.172846    4.544949    0.800638
     66          1           0       -4.259210    3.944934   -2.054780
     67          1           0       -5.268750    2.529816   -1.301039
     68          1           0       -4.702754    2.311295   -2.978643
     69          1           0       -5.056773   -0.019283   -1.611218
     70          1           0        9.448163   -0.615119   -0.434752
     71          1           0       10.020324   -0.368431   -2.071571
     72          1           0       -3.665298   -3.228906    3.418430
     73          1           0       -6.233986   -1.666353   -2.039421
     74          1           0       -4.204211   -5.698399   -2.079162
     75          1           0       -3.325138   -5.754469   -0.547055
     76          1           0       -4.997470   -5.473903   -0.495445
     77          1           0       -2.143891    8.282256    1.195299
     78          1           0       -7.742857   -3.507109   -3.015522
     79          1           0       -6.337177   -4.738984   -2.613404
 ---------------------------------------------------------------------

 SCF Done:  E(RB3LYP) =  -1947.79824551     A.U. after   17 cycles

 Excitation energies and oscillator strengths:

 Excited State   1:      Singlet-A      2.0427 eV  606.97 nm  f=0.4662  <S**2>=0.000
     154 ->156         0.18711
     155 ->156         0.68272
     155 <-156        -0.12618
 This state for optimization and/or second-order correction.
 Total Energy, E(TD-HF/TD-KS) =  -1947.72317863
 Copying the excited state density for this state as the 1-particle RhoCI density.

 The electronic state is 1-A.
 Alpha  occ. eigenvalues --  -19.21985 -19.16248 -19.12714 -19.10113 -19.10002
 Alpha  occ. eigenvalues --  -19.09515 -14.37844 -14.34885 -14.34829 -14.29135
 Alpha  occ. eigenvalues --  -10.33957 -10.29988 -10.28406 -10.26109 -10.24363
 Alpha  occ. eigenvalues --  -10.24361 -10.24094 -10.23852 -10.23781 -10.23769
 Alpha  occ. eigenvalues --  -10.23493 -10.23407 -10.22834 -10.22196 -10.21563
 Alpha  occ. eigenvalues --  -10.21217 -10.21075 -10.20993 -10.20800 -10.20636
 Alpha  occ. eigenvalues --  -10.20502 -10.20403 -10.20220 -10.20143 -10.19908
 Alpha  occ. eigenvalues --  -10.19767 -10.19571 -10.19555 -10.19138 -10.19050
 Alpha  occ. eigenvalues --  -10.18996 -10.18647 -10.17583  -1.10625  -1.10058
 Alpha  occ. eigenvalues --   -1.03219  -1.02678  -0.97879  -0.97575  -0.97248
 Alpha  occ. eigenvalues --   -0.96096  -0.93189  -0.89594  -0.82740  -0.82547
 Alpha  occ. eigenvalues --   -0.82282  -0.81322  -0.80341  -0.79403  -0.78083
 Alpha  occ. eigenvalues --   -0.77269  -0.76881  -0.75696  -0.74739  -0.73119
 Alpha  occ. eigenvalues --   -0.72602  -0.71960  -0.70195  -0.69408  -0.68602
 Alpha  occ. eigenvalues --   -0.67719  -0.66101  -0.63574  -0.61882  -0.61655
 Alpha  occ. eigenvalues --   -0.60343  -0.59813  -0.58802  -0.58193  -0.57505
 Alpha  occ. eigenvalues --   -0.56054  -0.55293  -0.54405  -0.53623  -0.53118
 Alpha  occ. eigenvalues --   -0.52311  -0.51570  -0.50889  -0.50535  -0.49708
 Alpha  occ. eigenvalues --   -0.49222  -0.49153  -0.48830  -0.48446  -0.47681
 Alpha  occ. eigenvalues --   -0.47042  -0.46871  -0.46402  -0.46119  -0.45603
 Alpha  occ. eigenvalues --   -0.45532  -0.44980  -0.44344  -0.43935  -0.43816
 Alpha  occ. eigenvalues --   -0.43560  -0.43301  -0.42981  -0.42885  -0.42769
 Alpha  occ. eigenvalues --   -0.42539  -0.41995  -0.41869  -0.41620  -0.41229
 Alpha  occ. eigenvalues --   -0.40944  -0.40634  -0.40174  -0.39840  -0.39462
 Alpha  occ. eigenvalues --   -0.39379  -0.39214  -0.39114  -0.38915  -0.38570
 Alpha  occ. eigenvalues --   -0.38504  -0.37550  -0.37364  -0.37032  -0.36551
 Alpha  occ. eigenvalues --   -0.35997  -0.35640  -0.35226  -0.35118  -0.34167
 Alpha  occ. eigenvalues --   -0.34070  -0.32534  -0.32266  -0.32206  -0.31478
 Alpha  occ. eigenvalues --   -0.31054  -0.29814  -0.28368  -0.28127  -0.27876
 Alpha  occ. eigenvalues --   -0.26925  -0.25832  -0.25532  -0.25073  -0.24685
 Alpha  occ. eigenvalues --   -0.24363  -0.23742  -0.23579  -0.21765  -0.18886
 Alpha virt. eigenvalues --   -0.11090  -0.06877  -0.06518  -0.02553  -0.01095
 Alpha virt. eigenvalues --   -0.00462   0.00623   0.01222   0.01838   0.02536
 Alpha virt. eigenvalues --    0.02783   0.03837   0.05096   0.05343   0.05540

 Mulliken charges:
               1
     1  O   -0.200994
     2  O   -0.106272
     3  O   -0.268170
     4  O   -0.186839
     5  O   -0.321667
     6  O   -0.188449
     7  N   -0.081876
     8  N   -0.204775
     9  N   -0.181082
    10  N   -0.384905
    11  C    0.139438
    12  C    0.131378
    13  C   -0.026853
    14  C   -0.138932
    15  C   -0.044907
    16  C    0.093083
    17  C   -0.202479
    18  C    0.144067
    19  C   -0.087811
    20  C   -0.091388
    21  C    0.068358
    22  C    0.158043
    23  C   -0.067266
    24  C    0.199272
    25  C    0.117289
    26  C   -0.138647
    27  C   -0.071261
    28  C    0.185800
    29  C    0.121245
    30  C   -0.016734
    31  C   -0.106080
    32  C    0.071223
    33  C   -0.159193
    34  C    0.104768
    35  C    0.053975
    36  C    0.019508
    37  C    0.192284
    38  C    0.114084
    39  C   -0.256920
    40  C    0.183755
    41  C   -0.009444
    42  C    0.158777
    43  C   -0.089760
    44  H   -0.024100
    45  H    0.011769
    46  H    0.007746
    47  H    0.074832
    48  H    0.129115
    49  H   -0.010176
    50  H    0.028164
    51  H   -0.006416
    52  H   -0.117704
    53  H    0.019808
    54  H    0.048864
    55  H    0.032986
    56  H    0.039858
    57  H    0.036567
    58  H    0.056226
    59  H    0.036438
    60  H    0.232882
    61  H   -0.010949
    62  H    0.011249
    63  H    0.044165
    64  H    0.064934
    65  H    0.085960
    66  H    0.035484
    67  H    0.037076
    68  H    0.042181
    69  H   -0.016885
    70  H    0.014142
    71  H   -0.037680
    72  H    0.159632
    73  H   -0.009854
    74  H    0.039404
    75  H   -0.020637
    76  H    0.013629
    77  H    0.256364
    78  H    0.043012
    79  H    0.028274
 Sum of Mulliken charges =   0.00000

 Dipole moment (field-independent basis, Debye):
    X=              0.8751    Y=              1.9713    Z=              4.1622  Tot=              4.6878
 Quadrupole moment (field-independent basis, Debye-Ang):
   XX=           -213.3849   YY=           -235.1893   ZZ=           -267.6050
   XY=            -11.2203   XZ=             32.0910   YZ=              4.6954

 Normal termination of Gaussian 09 at Sun Jul  7 18:57:14 2019.
