 Gaussian 09, Revision D.01,
 Gaussian 09:  ES64L-G09RevD.01 24-Apr-2013

 --------------------------
 # td=(NStates=1) B3LYP/SVP
 --------------------------

 --
 TD
 --
 Symbolic Z-matrix:
 Charge =  0 Multiplicity = 1

                         Standard orientation:
 ---------------------------------------------------------------------
 Center     Atomic      Atomic             Coordinates (Angstroms)
 Number     Number       Type             X           Y           Z
 ---------------------------------------------------------------------
      1          8           0        5.373540    0.060152   -3.336276
      2          8           0       -2.861608   -3.105186    3.407675
      3          8           0       -3.218241   -0.870475    3.065120
      4          8           0       -1.674495    7.188090    1.519026
      5          8           0       -0.458959    7.022392   -0.424079
      6          8           0       -1.957707   -4.115820   -0.142272
      7          7           0        2.376526    0.816123    0.572237
      8          7           0        4.374865   -0.650514   -1.284747
      9          7           0       -1.783697    0.739125   -0.333287
     10          7           0       -2.666650   -1.889955   -0.566430
     11          6           0        4.790166   -1.259389   -0.041412
     12          6           0        4.324301   -0.441796    1.214457
     13          6           0        2.919011   -0.178987    1.336515
     14          6           0        1.901962   -0.756358    2.060237
     15          6           0        0.707889   -0.057140    1.786134
     16          6           0        0.996421    0.857919    0.767865
     17          6           0        6.350753   -1.432888   -0.129562
     18          6           0       -0.660651   -0.285521    2.507783
     19          6           0        6.646061   -0.905077   -1.365976
     20          6           0        0.269099    1.896449    0.097089
     21          6           0       -1.023468    1.907095   -0.279728
     22          6           0        5.475809   -0.500732   -2.180461
     23          6           0       -1.826762    2.994805   -0.836673
     24          6           0        2.297749   -1.768292    3.152514
     25          6           0        7.197389   -1.955529    0.864474
     26          6           0       -3.117578    2.429005   -1.211139
     27          6           0       -1.041504   -1.785830    2.496109
     28          6           0       -2.964802    0.984689   -0.889816
     29          6           0       -1.387664    4.422433   -0.812248
     30          6           0        8.006797   -0.689917   -1.998751
     31          6           0       -1.669688    5.072626    0.485239
     32          6           0       -4.283729    3.141688   -1.697957
     33          6           0       -3.940989    0.024303   -1.263866
     34          6           0       -2.436901   -1.899493    3.007525
     35          6           0       -3.854297   -1.443540   -1.088497
     36          6           0        9.256437   -0.780253   -1.530274
     37          6           0       -1.195162    6.616602    0.458129
     38          6           0       -4.745186   -2.450130   -1.487656
     39          6           0       -4.161488   -3.740716   -1.185695
     40          6           0       -2.745157   -3.254306   -0.588878
     41          6           0       -6.187578   -2.223183   -1.955925
     42          6           0       -4.607851   -5.145283   -1.299885
     43          6           0       -6.870978   -3.105076   -2.731955
     44          1           0        4.149992   -2.349604    0.177955
     45          1           0        4.918602    0.562117    1.396089
     46          1           0        4.520031   -0.895953    2.226523
     47          1           0        2.702928    1.277928   -0.218522
     48          1           0        3.427947   -0.746684   -1.555949
     49          1           0       -0.424588    0.018143    3.525356
     50          1           0       -1.490804    0.398410    1.990719
     51          1           0        0.859894    2.935897   -0.107359
     52          1           0        3.190011   -1.735359    3.656285
     53          1           0        1.500857   -1.846437    3.829745
     54          1           0        2.529794   -2.979440    2.722120
     55          1           0        6.572616   -2.613887    1.495531
     56          1           0        7.502784   -1.315352    1.847546
     57          1           0        8.034103   -2.459008    0.225246
     58          1           0       -1.085679   -2.416882    1.531944
     59          1           0       -0.448239   -2.525583    3.111598
     60          1           0       -1.606866   -0.292528   -0.170004
     61          1           0       -1.909626    4.913231   -1.639718
     62          1           0       -0.356096    4.587047   -1.025007
     63          1           0        8.029007   -0.512252   -3.044021
     64          1           0       -1.171210    4.630361    1.080400
     65          1           0       -2.749366    5.370743    0.683833
     66          1           0       -4.090748    4.173235   -1.949752
     67          1           0       -5.107192    3.028100   -0.993104
     68          1           0       -4.592706    2.725699   -2.740025
     69          1           0       -4.907879    0.476856   -1.632159
     70          1           0        9.669635   -0.732070   -0.534435
     71          1           0       10.185818   -0.752454   -2.319954
     72          1           0       -3.860530   -3.193854    3.632311
     73          1           0       -6.564984   -1.269936   -1.545586
     74          1           0       -4.307431   -5.385813   -2.409276
     75          1           0       -3.933083   -5.704847   -0.753964
     76          1           0       -5.726632   -5.085659   -1.069069
     77          1           0       -1.416531    8.162314    1.572779
     78          1           0       -7.846844   -2.606600   -3.082757
     79          1           0       -6.434975   -4.105624   -3.289579
 ---------------------------------------------------------------------

 SCF Done:  E(RB3LYP) =  -1947.82041599     A.U. after   19 cycles

 Excitation energies and oscillator strengths:

 Excited State   1:      Singlet-A      2.1266 eV  583.02 nm  f=0.3871  <S**2>=0.000
     154 ->156         0.23836
     155 ->156         0.65957
     155 <-156        -0.10802
 This state for optimization and/or second-order correction.
 Total Energy, E(TD-HF/TD-KS) =  -1947.74226560
 Copying the excited state density for this state as the 1-particle RhoCI density.

 The electronic state is 1-A.
 Alpha  occ. eigenvalues --  -19.21535 -19.17473 -19.13587 -19.10812 -19.09655
 Alpha  occ. eigenvalues --  -19.09397 -14.37328 -14.36539 -14.36067 -14.28720
 Alpha  occ. eigenvalues --  -10.33073 -10.30498 -10.29990 -10.27181 -10.26156
 Alpha  occ. eigenvalues --  -10.24632 -10.23991 -10.23458 -10.23401 -10.22755
 Alpha  occ. eigenvalues --  -10.22558 -10.22430 -10.22327 -10.22194 -10.21836
 Alpha  occ. eigenvalues --  -10.21750 -10.21567 -10.20819 -10.20743 -10.20725
 Alpha  occ. eigenvalues --  -10.20641 -10.20531 -10.20444 -10.20417 -10.20307
 Alpha  occ. eigenvalues --  -10.19803 -10.19762 -10.19700 -10.19664 -10.19553
 Alpha  occ. eigenvalues --  -10.19489 -10.19376 -10.19245  -1.12280  -1.06254
 Alpha  occ. eigenvalues --   -1.02182  -0.99776  -0.99083  -0.98937  -0.98324
 Alpha  occ. eigenvalues --   -0.94647  -0.93337  -0.90896  -0.83279  -0.83111
 Alpha  occ. eigenvalues --   -0.81890  -0.81208  -0.79626  -0.78957  -0.78335
 Alpha  occ. eigenvalues --   -0.77208  -0.76054  -0.75208  -0.74012  -0.72742
 Alpha  occ. eigenvalues --   -0.72337  -0.71402  -0.69928  -0.69022  -0.68751
 Alpha  occ. eigenvalues --   -0.66990  -0.65719  -0.63459  -0.62368  -0.61018
 Alpha  occ. eigenvalues --   -0.59646  -0.59005  -0.58263  -0.57706  -0.57311
 Alpha  occ. eigenvalues --   -0.56451  -0.55668  -0.54959  -0.53607  -0.52374
 Alpha  occ. eigenvalues --   -0.52145  -0.51360  -0.50787  -0.50531  -0.49850
 Alpha  occ. eigenvalues --   -0.49500  -0.49025  -0.48454  -0.47837  -0.46891
 Alpha  occ. eigenvalues --   -0.46817  -0.46585  -0.45782  -0.45681  -0.45433
 Alpha  occ. eigenvalues --   -0.45252  -0.44694  -0.44463  -0.43950  -0.43528
 Alpha  occ. eigenvalues --   -0.42996  -0.42792  -0.42674  -0.42542  -0.42102
 Alpha  occ. eigenvalues --   -0.41934  -0.41839  -0.41377  -0.41228  -0.40911
 Alpha  occ. eigenvalues --   -0.40604  -0.40187  -0.39894  -0.39825  -0.39607
 Alpha  occ. eigenvalues --   -0.39224  -0.38919  -0.38434  -0.38348  -0.37954
 Alpha  occ. eigenvalues --   -0.37657  -0.37376  -0.37127  -0.36639  -0.36422
 Alpha  occ. eigenvalues --   -0.36179  -0.35505  -0.34767  -0.34064  -0.34017
 Alpha  occ. eigenvalues --   -0.33854  -0.33572  -0.33245  -0.32926  -0.31125
 Alpha  occ. eigenvalues --   -0.30515  -0.28750  -0.28169  -0.28058  -0.27642
 Alpha  occ. eigenvalues --   -0.26380  -0.25940  -0.25204  -0.24953  -0.24668
 Alpha  occ. eigenvalues --   -0.24646  -0.23341  -0.22800  -0.21424  -0.18796
 Alpha virt. eigenvalues --   -0.10527  -0.07363  -0.06108  -0.00799  -0.00478
 Alpha virt. eigenvalues --    0.00183   0.00546   0.01198   0.01922   0.02362
 Alpha virt. eigenvalues --    0.03668   0.04136   0.04417   0.04673   0.04858

 Mulliken charges:
               1
     1  O   -0.276356
     2  O   -0.204390
     3  O   -0.325518
     4  O   -0.148044
     5  O   -0.229100
     6  O   -0.258131
     7  N   -0.046932
     8  N   -0.191374
     9  N   -0.061289
    10  N   -0.287523
    11  C    0.028436
    12  C    0.153286
    13  C   -0.091176
    14  C   -0.082007
    15  C   -0.105622
    16  C    0.032867
    17  C   -0.065554
    18  C    0.108318
    19  C   -0.073030
    20  C   -0.140697
    21  C    0.098973
    22  C    0.224628
    23  C   -0.079579
    24  C    0.060692
    25  C    0.013053
    26  C   -0.141333
    27  C   -0.029245
    28  C    0.068534
    29  C    0.111137
    30  C    0.050415
    31  C    0.122296
    32  C    0.102396
    33  C   -0.110746
    34  C    0.152411
    35  C    0.104933
    36  C   -0.114030
    37  C    0.110892
    38  C   -0.021208
    39  C   -0.234722
    40  C    0.162152
    41  C   -0.017724
    42  C    0.117826
    43  C   -0.084261
    44  H    0.048404
    45  H    0.015829
    46  H   -0.015170
    47  H    0.092047
    48  H    0.124624
    49  H    0.010766
    50  H    0.073128
    51  H    0.031809
    52  H   -0.004235
    53  H    0.005266
    54  H    0.016245
    55  H    0.014105
    56  H    0.059975
    57  H    0.077081
    58  H    0.085106
    59  H    0.025405
    60  H    0.170435
    61  H   -0.003929
    62  H    0.003403
    63  H    0.009058
    64  H   -0.077222
    65  H    0.040804
    66  H    0.003666
    67  H    0.040851
    68  H    0.037742
    69  H   -0.022442
    70  H    0.020360
    71  H    0.044263
    72  H    0.220800
    73  H    0.015865
    74  H    0.051242
    75  H    0.008202
    76  H    0.062161
    77  H    0.204163
    78  H    0.037334
    79  H    0.069201
 Sum of Mulliken charges =   0.00000

 Dipole moment (field-independent basis, Debye):
    X=              0.5220    Y=              3.1412    Z=              4.3192  Tot=              5.3661
 Quadrupole moment (field-independent basis, Debye-Ang):
   XX=           -221.8411   YY=           -231.4346   ZZ=           -262.1227
   XY=            -19.4737   XZ=             32.8487   YZ=              7.7899

 Normal termination of Gaussian 09 at Sun Jul  7 22:28:41 2019.
