 Gaussian 09, Revision D.01,
 Gaussian 09:  ES64L-G09RevD.01 24-Apr-2013

 --------------------------
 # td=(NStates=1) B3LYP/SVP
 --------------------------

 --
 TD
 --
 Symbolic Z-matrix:
 Charge =  0 Multiplicity = 1

                         Standard orientation:
 ---------------------------------------------------------------------
 Center     Atomic      Atomic             Coordinates (Angstroms)
 Number     Number       Type             X           Y           Z
 ---------------------------------------------------------------------
      1          8           0        5.350928    0.019016   -3.342918
      2          8           0       -2.997237   -3.088108    3.244144
      3          8           0       -3.366624   -0.830672    3.081975
      4          8           0       -1.487396    7.150757    1.575438
      5          8           0       -0.833109    7.134669   -0.590367
      6          8           0       -1.950643   -3.952777   -0.013964
      7          7           0        2.343280    0.696920    0.582708
      8          7           0        4.340301   -0.544173   -1.277962
      9          7           0       -1.846911    0.648685   -0.324157
     10          7           0       -2.678308   -1.805803   -0.527241
     11          6           0        4.736150   -1.254962   -0.108597
     12          6           0        4.428643   -0.394508    1.229467
     13          6           0        2.955087   -0.163548    1.396868
     14          6           0        1.904083   -0.776989    2.179469
     15          6           0        0.785807   -0.111381    1.902868
     16          6           0        0.997941    0.868463    0.806415
     17          6           0        6.357902   -1.361315   -0.259204
     18          6           0       -0.566495   -0.305315    2.691820
     19          6           0        6.690367   -0.786504   -1.493771
     20          6           0        0.321704    1.817457    0.174528
     21          6           0       -1.026398    1.790692   -0.258502
     22          6           0        5.392729   -0.337789   -2.158465
     23          6           0       -1.826871    2.906487   -0.822575
     24          6           0        2.188325   -1.890625    3.233821
     25          6           0        7.158903   -2.117348    0.739998
     26          6           0       -3.078687    2.430318   -1.259743
     27          6           0       -1.055985   -1.745834    2.826864
     28          6           0       -3.037821    1.012116   -0.934568
     29          6           0       -1.405433    4.357155   -0.784387
     30          6           0        7.953325   -0.555200   -2.026145
     31          6           0       -1.582257    5.079546    0.537304
     32          6           0       -4.276243    3.060371   -1.781004
     33          6           0       -3.959594   -0.001931   -1.340707
     34          6           0       -2.591274   -1.775968    3.028151
     35          6           0       -3.779003   -1.386769   -1.080638
     36          6           0        9.140543   -0.758979   -1.421223
     37          6           0       -1.256552    6.486985    0.371144
     38          6           0       -4.630896   -2.501226   -1.541518
     39          6           0       -4.109711   -3.636942   -1.140976
     40          6           0       -2.736531   -3.156968   -0.450157
     41          6           0       -6.010569   -2.289794   -2.090831
     42          6           0       -4.476594   -5.055576   -1.443034
     43          6           0       -6.653151   -3.204695   -2.961193
     44          1           0        4.314151   -2.224507    0.223592
     45          1           0        5.151509    0.383135    1.228008
     46          1           0        4.928726   -0.837184    2.026478
     47          1           0        2.807218    1.248976   -0.208475
     48          1           0        3.391084   -0.588761   -1.721049
     49          1           0       -0.401095    0.117280    3.708201
     50          1           0       -1.436570    0.456317    2.289946
     51          1           0        0.951640    2.650278   -0.061613
     52          1           0        3.163336   -2.115261    3.416706
     53          1           0        1.484992   -1.770421    4.097269
     54          1           0        1.787377   -2.980332    2.855838
     55          1           0        6.495286   -2.741691    1.473024
     56          1           0        7.689589   -1.371514    1.251882
     57          1           0        8.062104   -2.724484    0.289159
     58          1           0       -1.186594   -2.256014    1.785264
     59          1           0       -0.596540   -2.323209    3.560237
     60          1           0       -1.429692   -0.360240   -0.214954
     61          1           0       -2.188854    4.867121   -1.377155
     62          1           0       -0.264998    4.554818   -1.087123
     63          1           0        8.114280   -0.074056   -3.026966
     64          1           0       -0.769684    4.775756    1.288086
     65          1           0       -2.636839    4.706581    1.191865
     66          1           0       -4.304454    4.244601   -1.326290
     67          1           0       -5.232800    2.614016   -1.309706
     68          1           0       -4.148622    3.003293   -2.939034
     69          1           0       -4.744037    0.474371   -1.887222
     70          1           0        9.496436   -1.191504   -0.444313
     71          1           0       10.106404   -0.580096   -2.161262
     72          1           0       -3.991600   -2.961099    3.409761
     73          1           0       -6.547161   -1.381800   -1.724655
     74          1           0       -4.160567   -5.416387   -2.490032
     75          1           0       -3.809856   -5.918132   -0.920140
     76          1           0       -5.523012   -5.275762   -1.169323
     77          1           0       -1.134749    7.959145    1.484756
     78          1           0       -7.816202   -2.753288   -3.310937
     79          1           0       -6.164740   -4.078981   -3.576603
 ---------------------------------------------------------------------

 SCF Done:  E(RB3LYP) =  -1947.83820883     A.U. after   17 cycles

 Excitation energies and oscillator strengths:

 Excited State   1:      Singlet-A      2.1076 eV  588.26 nm  f=0.6028  <S**2>=0.000
     155 ->156         0.71046
     155 <-156        -0.14146
 This state for optimization and/or second-order correction.
 Total Energy, E(TD-HF/TD-KS) =  -1947.76075418
 Copying the excited state density for this state as the 1-particle RhoCI density.

 The electronic state is 1-A.
 Alpha  occ. eigenvalues --  -19.17050 -19.16926 -19.14021 -19.11989 -19.11246
 Alpha  occ. eigenvalues --  -19.09790 -14.39921 -14.37746 -14.36522 -14.28517
 Alpha  occ. eigenvalues --  -10.33224 -10.31128 -10.29990 -10.26872 -10.25896
 Alpha  occ. eigenvalues --  -10.24646 -10.24370 -10.24362 -10.24026 -10.23531
 Alpha  occ. eigenvalues --  -10.22997 -10.22978 -10.22924 -10.22813 -10.21943
 Alpha  occ. eigenvalues --  -10.21814 -10.21757 -10.21600 -10.21570 -10.21556
 Alpha  occ. eigenvalues --  -10.21327 -10.21113 -10.21094 -10.20843 -10.20842
 Alpha  occ. eigenvalues --  -10.20651 -10.20366 -10.20262 -10.19868 -10.19543
 Alpha  occ. eigenvalues --  -10.18571 -10.18466 -10.18337  -1.09782  -1.06801
 Alpha  occ. eigenvalues --   -1.02617  -1.01749  -1.00674  -1.00596  -0.98380
 Alpha  occ. eigenvalues --   -0.96539  -0.94950  -0.93204  -0.83237  -0.82865
 Alpha  occ. eigenvalues --   -0.82785  -0.81600  -0.80070  -0.79528  -0.78792
 Alpha  occ. eigenvalues --   -0.77203  -0.76485  -0.75780  -0.73062  -0.72137
 Alpha  occ. eigenvalues --   -0.71875  -0.71367  -0.69564  -0.68278  -0.68103
 Alpha  occ. eigenvalues --   -0.66517  -0.66252  -0.63953  -0.61748  -0.60312
 Alpha  occ. eigenvalues --   -0.59530  -0.58839  -0.58226  -0.57434  -0.56961
 Alpha  occ. eigenvalues --   -0.55665  -0.54692  -0.54528  -0.54174  -0.52877
 Alpha  occ. eigenvalues --   -0.52774  -0.51604  -0.51136  -0.50611  -0.49795
 Alpha  occ. eigenvalues --   -0.49387  -0.48902  -0.48437  -0.48089  -0.47570
 Alpha  occ. eigenvalues --   -0.47072  -0.46927  -0.46779  -0.46052  -0.45780
 Alpha  occ. eigenvalues --   -0.45412  -0.45139  -0.44796  -0.44438  -0.43772
 Alpha  occ. eigenvalues --   -0.43514  -0.43253  -0.43008  -0.42766  -0.42480
 Alpha  occ. eigenvalues --   -0.41801  -0.41507  -0.41393  -0.41057  -0.40819
 Alpha  occ. eigenvalues --   -0.40529  -0.40369  -0.40282  -0.40117  -0.39989
 Alpha  occ. eigenvalues --   -0.39507  -0.39322  -0.38823  -0.38732  -0.38422
 Alpha  occ. eigenvalues --   -0.37941  -0.37813  -0.37445  -0.37017  -0.36781
 Alpha  occ. eigenvalues --   -0.35570  -0.35003  -0.34777  -0.34407  -0.34091
 Alpha  occ. eigenvalues --   -0.33911  -0.33405  -0.33114  -0.32708  -0.32668
 Alpha  occ. eigenvalues --   -0.30953  -0.30395  -0.29293  -0.28424  -0.27769
 Alpha  occ. eigenvalues --   -0.27176  -0.26886  -0.26580  -0.26127  -0.25599
 Alpha  occ. eigenvalues --   -0.24292  -0.23879  -0.23115  -0.22111  -0.18262
 Alpha virt. eigenvalues --   -0.10491  -0.07130  -0.05411  -0.02630  -0.01082
 Alpha virt. eigenvalues --   -0.00287   0.00422   0.01624   0.01844   0.02335
 Alpha virt. eigenvalues --    0.02520   0.03668   0.04481   0.04504   0.04908

 Mulliken charges:
               1
     1  O   -0.233144
     2  O   -0.232007
     3  O   -0.239478
     4  O   -0.165754
     5  O   -0.235196
     6  O   -0.188721
     7  N   -0.062215
     8  N   -0.184417
     9  N   -0.131399
    10  N   -0.230550
    11  C    0.042195
    12  C    0.180109
    13  C   -0.043903
    14  C   -0.107996
    15  C   -0.074833
    16  C    0.113471
    17  C   -0.160245
    18  C    0.007330
    19  C    0.020868
    20  C   -0.152989
    21  C    0.099170
    22  C    0.152542
    23  C   -0.085688
    24  C    0.104130
    25  C    0.060715
    26  C   -0.089119
    27  C    0.016761
    28  C    0.064410
    29  C    0.069997
    30  C   -0.022123
    31  C   -0.087775
    32  C   -0.013499
    33  C   -0.095712
    34  C    0.137020
    35  C    0.114803
    36  C   -0.124192
    37  C    0.155837
    38  C    0.026690
    39  C   -0.168664
    40  C    0.114988
    41  C   -0.035593
    42  C    0.008174
    43  C   -0.112017
    44  H    0.029593
    45  H   -0.026106
    46  H   -0.037851
    47  H    0.139113
    48  H    0.153904
    49  H    0.013306
    50  H    0.059407
    51  H   -0.026535
    52  H   -0.018590
    53  H    0.028734
    54  H    0.038104
    55  H    0.047760
    56  H    0.025404
    57  H    0.061701
    58  H    0.086423
    59  H    0.015370
    60  H    0.197446
    61  H    0.018359
    62  H    0.048764
    63  H    0.029686
    64  H    0.053660
    65  H    0.096770
    66  H    0.045216
    67  H    0.063765
    68  H    0.072171
    69  H   -0.054360
    70  H    0.025857
    71  H    0.041194
    72  H    0.192294
    73  H    0.024018
    74  H    0.040282
    75  H    0.028318
    76  H    0.037037
    77  H    0.128160
    78  H    0.043432
    79  H    0.066215
 Sum of Mulliken charges =   0.00000

 Dipole moment (field-independent basis, Debye):
    X=              3.6867    Y=              1.3375    Z=              3.7937  Tot=              5.4564
 Quadrupole moment (field-independent basis, Debye-Ang):
   XX=           -224.0195   YY=           -261.8108   ZZ=           -264.1608
   XY=            -15.0350   XZ=             29.5074   YZ=              4.8544

 Normal termination of Gaussian 09 at Mon Jul  8 15:09:43 2019.
