 Gaussian 09, Revision D.01,
 Gaussian 09:  ES64L-G09RevD.01 24-Apr-2013

 --------------------------
 # td=(NStates=1) B3LYP/SVP
 --------------------------

 --
 TD
 --
 Symbolic Z-matrix:
 Charge =  0 Multiplicity = 1

                         Standard orientation:
 ---------------------------------------------------------------------
 Center     Atomic      Atomic             Coordinates (Angstroms)
 Number     Number       Type             X           Y           Z
 ---------------------------------------------------------------------
      1          8           0        5.424445    0.073966   -3.232846
      2          8           0       -2.969186   -3.215272    3.280642
      3          8           0       -3.230145   -0.955192    3.334533
      4          8           0       -1.557725    7.349632    1.595350
      5          8           0        0.211101    6.635231    0.117849
      6          8           0       -2.152746   -3.987548   -0.248852
      7          7           0        2.420930    0.637138    0.600143
      8          7           0        4.386840   -0.800110   -1.292139
      9          7           0       -1.858579    0.745923   -0.549999
     10          7           0       -2.780532   -1.744523   -0.578827
     11          6           0        4.903354   -1.335727   -0.021626
     12          6           0        4.463353   -0.501006    1.252513
     13          6           0        2.992351   -0.305794    1.403633
     14          6           0        1.931236   -0.863430    2.045694
     15          6           0        0.611143   -0.258534    1.742268
     16          6           0        1.014143    0.705465    0.666004
     17          6           0        6.360977   -1.447152   -0.192470
     18          6           0       -0.653773   -0.450746    2.383645
     19          6           0        6.758557   -0.897554   -1.404242
     20          6           0        0.322319    1.789111    0.025365
     21          6           0       -0.964211    1.851802   -0.381022
     22          6           0        5.452744   -0.514728   -2.126142
     23          6           0       -1.797058    3.020314   -0.842161
     24          6           0        2.178092   -1.872063    3.138968
     25          6           0        7.174657   -2.140480    0.810085
     26          6           0       -3.038491    2.601098   -1.217070
     27          6           0       -1.147382   -1.891740    2.434148
     28          6           0       -3.025438    1.079952   -1.054784
     29          6           0       -1.284406    4.432750   -0.783535
     30          6           0        8.096718   -0.713080   -2.084447
     31          6           0       -1.653646    5.134097    0.556051
     32          6           0       -4.195533    3.304756   -1.796635
     33          6           0       -4.013365    0.213599   -1.359562
     34          6           0       -2.579377   -1.953708    3.041535
     35          6           0       -3.841663   -1.165941   -1.140120
     36          6           0        9.264323   -0.903292   -1.530368
     37          6           0       -0.879936    6.391807    0.709458
     38          6           0       -4.903133   -2.286877   -1.468384
     39          6           0       -4.347104   -3.415770   -1.035500
     40          6           0       -2.914808   -3.077034   -0.632394
     41          6           0       -6.229028   -1.995311   -2.075203
     42          6           0       -4.817654   -4.842494   -1.292248
     43          6           0       -7.066355   -2.924654   -2.596772
     44          1           0        4.476392   -2.390179    0.071400
     45          1           0        5.035591    0.567308    1.218092
     46          1           0        4.924325   -0.914509    2.091203
     47          1           0        2.732583    1.071455   -0.436319
     48          1           0        3.546536   -0.598109   -1.529475
     49          1           0       -0.434946   -0.016002    3.225590
     50          1           0       -1.317935    0.282513    1.857227
     51          1           0        0.924040    2.665847   -0.279708
     52          1           0        3.161952   -1.635545    3.783120
     53          1           0        1.304119   -1.999612    3.837613
     54          1           0        2.461566   -3.086472    2.645054
     55          1           0        6.398914   -2.856621    1.198261
     56          1           0        7.462643   -1.663721    1.781623
     57          1           0        7.883806   -2.646296    0.321106
     58          1           0       -1.287793   -2.470656    1.424823
     59          1           0       -0.325602   -2.429408    2.947954
     60          1           0       -1.699553   -0.197750   -0.428823
     61          1           0       -1.899118    4.889825   -1.703683
     62          1           0       -0.159449    4.665414   -1.090618
     63          1           0        7.740738   -0.266545   -3.068397
     64          1           0       -1.311640    4.664634    1.508188
     65          1           0       -2.745581    5.249967    0.761760
     66          1           0       -3.820208    4.336458   -2.057276
     67          1           0       -4.855149    3.349076   -1.035282
     68          1           0       -4.596997    2.804050   -2.749067
     69          1           0       -5.047310    0.685513   -1.784999
     70          1           0        9.192728   -1.099929   -0.510217
     71          1           0       10.074306   -0.796550   -2.180499
     72          1           0       -4.027439   -2.965697    3.521945
     73          1           0       -6.709351   -0.916824   -2.017698
     74          1           0       -5.323231   -4.997211   -2.471874
     75          1           0       -4.057148   -5.352638   -0.889077
     76          1           0       -5.738155   -5.223685   -0.426745
     77          1           0       -0.947715    8.157491    1.275865
     78          1           0       -8.105402   -2.672871   -3.040588
     79          1           0       -6.926716   -3.874064   -2.846213
 ---------------------------------------------------------------------

 SCF Done:  E(RB3LYP) =  -1947.77599562     A.U. after   18 cycles

 Excitation energies and oscillator strengths:

 Excited State   1:      Singlet-A      2.3193 eV  534.57 nm  f=0.4953  <S**2>=0.000
     155 ->156         0.70063
 This state for optimization and/or second-order correction.
 Total Energy, E(TD-HF/TD-KS) =  -1947.69076195
 Copying the excited state density for this state as the 1-particle RhoCI density.

 The electronic state is 1-A.
 Alpha  occ. eigenvalues --  -19.19466 -19.18536 -19.15421 -19.11881 -19.10246
 Alpha  occ. eigenvalues --  -19.10137 -14.39109 -14.36845 -14.35670 -14.29729
 Alpha  occ. eigenvalues --  -10.34425 -10.31219 -10.29089 -10.26679 -10.26181
 Alpha  occ. eigenvalues --  -10.25112 -10.25023 -10.24561 -10.23923 -10.23632
 Alpha  occ. eigenvalues --  -10.23610 -10.23411 -10.23296 -10.22548 -10.22525
 Alpha  occ. eigenvalues --  -10.22346 -10.22187 -10.21802 -10.21574 -10.21085
 Alpha  occ. eigenvalues --  -10.21001 -10.20820 -10.20675 -10.20651 -10.20166
 Alpha  occ. eigenvalues --  -10.20119 -10.19982 -10.19921 -10.19914 -10.19224
 Alpha  occ. eigenvalues --  -10.18800 -10.18613 -10.18158  -1.07908  -1.06554
 Alpha  occ. eigenvalues --   -1.01231  -1.00434  -0.99398  -0.99317  -0.98636
 Alpha  occ. eigenvalues --   -0.97851  -0.94457  -0.92818  -0.83960  -0.83640
 Alpha  occ. eigenvalues --   -0.82638  -0.81754  -0.80158  -0.79951  -0.79238
 Alpha  occ. eigenvalues --   -0.78312  -0.76399  -0.75860  -0.74404  -0.73574
 Alpha  occ. eigenvalues --   -0.73306  -0.71263  -0.69357  -0.68981  -0.68440
 Alpha  occ. eigenvalues --   -0.66696  -0.66126  -0.64386  -0.62137  -0.60547
 Alpha  occ. eigenvalues --   -0.59656  -0.59083  -0.58177  -0.57110  -0.56687
 Alpha  occ. eigenvalues --   -0.55951  -0.55456  -0.54720  -0.54128  -0.53574
 Alpha  occ. eigenvalues --   -0.52758  -0.51488  -0.50564  -0.50409  -0.49923
 Alpha  occ. eigenvalues --   -0.49638  -0.49278  -0.48995  -0.48325  -0.47920
 Alpha  occ. eigenvalues --   -0.47425  -0.47285  -0.47075  -0.46765  -0.46482
 Alpha  occ. eigenvalues --   -0.45995  -0.45361  -0.44623  -0.44099  -0.43982
 Alpha  occ. eigenvalues --   -0.43654  -0.43190  -0.43024  -0.42772  -0.42509
 Alpha  occ. eigenvalues --   -0.42426  -0.42323  -0.42065  -0.41791  -0.41492
 Alpha  occ. eigenvalues --   -0.41206  -0.40915  -0.40617  -0.40382  -0.39978
 Alpha  occ. eigenvalues --   -0.39676  -0.39432  -0.39174  -0.38803  -0.38663
 Alpha  occ. eigenvalues --   -0.38475  -0.37582  -0.37345  -0.37028  -0.36254
 Alpha  occ. eigenvalues --   -0.35865  -0.35698  -0.35108  -0.34638  -0.34377
 Alpha  occ. eigenvalues --   -0.34282  -0.33769  -0.33001  -0.32462  -0.31863
 Alpha  occ. eigenvalues --   -0.31420  -0.31177  -0.30028  -0.29329  -0.27414
 Alpha  occ. eigenvalues --   -0.27274  -0.27074  -0.26853  -0.25487  -0.24762
 Alpha  occ. eigenvalues --   -0.24245  -0.24197  -0.23945  -0.22967  -0.19840
 Alpha virt. eigenvalues --   -0.10657  -0.06358  -0.05963  -0.03356  -0.01402
 Alpha virt. eigenvalues --   -0.00564   0.01000   0.01065   0.01327   0.01971
 Alpha virt. eigenvalues --    0.02516   0.02792   0.03236   0.03685   0.04327

 Mulliken charges:
               1
     1  O   -0.270177
     2  O   -0.224010
     3  O   -0.259912
     4  O   -0.290288
     5  O   -0.265222
     6  O   -0.246594
     7  N   -0.168972
     8  N   -0.130017
     9  N   -0.004743
    10  N   -0.236860
    11  C    0.099578
    12  C    0.172828
    13  C    0.011369
    14  C   -0.133953
    15  C   -0.118653
    16  C    0.032175
    17  C   -0.215533
    18  C    0.242543
    19  C   -0.097306
    20  C   -0.102047
    21  C    0.119494
    22  C    0.156200
    23  C   -0.058723
    24  C   -0.065070
    25  C    0.144020
    26  C   -0.159941
    27  C   -0.044445
    28  C    0.062286
    29  C   -0.024816
    30  C   -0.006908
    31  C    0.056574
    32  C    0.152935
    33  C   -0.163967
    34  C    0.167591
    35  C    0.081268
    36  C    0.065431
    37  C    0.180559
    38  C    0.073188
    39  C   -0.220231
    40  C    0.162975
    41  C   -0.018930
    42  C    0.040926
    43  C   -0.021802
    44  H    0.037908
    45  H    0.030512
    46  H   -0.034762
    47  H    0.173323
    48  H    0.056548
    49  H   -0.037785
    50  H   -0.000635
    51  H    0.002127
    52  H    0.037665
    53  H    0.043576
    54  H    0.037878
    55  H    0.004588
    56  H    0.048023
    57  H    0.005517
    58  H    0.092753
    59  H    0.023711
    60  H    0.095525
    61  H    0.038122
    62  H    0.075486
    63  H    0.026584
    64  H    0.057154
    65  H    0.043941
    66  H    0.010949
    67  H    0.008369
    68  H    0.055370
    69  H    0.023543
    70  H   -0.000004
    71  H    0.017845
    72  H    0.224408
    73  H    0.028526
    74  H    0.077065
    75  H   -0.006042
    76  H    0.026966
    77  H    0.216432
    78  H    0.024800
    79  H   -0.038807
 Sum of Mulliken charges =   0.00000

 Dipole moment (field-independent basis, Debye):
    X=             -0.0809    Y=              3.2277    Z=              2.2439  Tot=              3.9318
 Quadrupole moment (field-independent basis, Debye-Ang):
   XX=           -224.6584   YY=           -253.9727   ZZ=           -264.6881
   XY=            -20.7376   XZ=             35.1095   YZ=             -4.9961

 Normal termination of Gaussian 09 at Wed Jul 10 03:37:49 2019.
