 Gaussian 09, Revision D.01,
 Gaussian 09:  ES64L-G09RevD.01 24-Apr-2013

 --------------------------
 # td=(NStates=1) B3LYP/SVP
 --------------------------

 --
 TD
 --
 Symbolic Z-matrix:
 Charge =  0 Multiplicity = 1

                         Standard orientation:
 ---------------------------------------------------------------------
 Center     Atomic      Atomic             Coordinates (Angstroms)
 Number     Number       Type             X           Y           Z
 ---------------------------------------------------------------------
      1          8           0        5.265733   -0.342346   -3.358910
      2          8           0       -2.570408   -3.170114    3.474603
      3          8           0       -3.135950   -0.991569    3.072109
      4          8           0       -1.845008    7.091212    1.516740
      5          8           0       -0.900164    7.120635   -0.518479
      6          8           0       -1.771204   -4.002036   -0.001568
      7          7           0        2.315894    0.974089    0.582080
      8          7           0        4.371038   -0.683217   -1.305323
      9          7           0       -1.881346    0.643206   -0.333667
     10          7           0       -2.608258   -1.915428   -0.498878
     11          6           0        4.864308   -1.090451    0.012205
     12          6           0        4.499691   -0.164606    1.190951
     13          6           0        2.968383    0.130295    1.349931
     14          6           0        1.970829   -0.524726    2.123468
     15          6           0        0.742269    0.124965    1.962495
     16          6           0        0.917925    0.951582    0.849028
     17          6           0        6.411569   -1.242969   -0.192641
     18          6           0       -0.494222   -0.170637    2.695137
     19          6           0        6.739041   -0.796414   -1.457310
     20          6           0        0.146763    1.993016    0.137861
     21          6           0       -1.186927    1.823628   -0.353951
     22          6           0        5.403079   -0.516484   -2.237475
     23          6           0       -2.019419    2.827807   -0.856343
     24          6           0        2.335436   -1.416709    3.289616
     25          6           0        7.203776   -1.642697    1.040999
     26          6           0       -3.231289    2.320829   -1.189582
     27          6           0       -0.946861   -1.718016    2.493101
     28          6           0       -3.064006    0.819330   -0.983872
     29          6           0       -1.592566    4.338898   -0.934929
     30          6           0        7.945224   -0.710090   -2.206378
     31          6           0       -2.005188    5.094278    0.339355
     32          6           0       -4.275207    3.021261   -1.926048
     33          6           0       -3.993790   -0.143927   -1.370436
     34          6           0       -2.352241   -1.918235    3.068039
     35          6           0       -3.734108   -1.518854   -1.080140
     36          6           0        9.133636   -0.583874   -1.712735
     37          6           0       -1.534062    6.478292    0.336069
     38          6           0       -4.656124   -2.706710   -1.490137
     39          6           0       -3.969495   -3.816808   -1.056445
     40          6           0       -2.618718   -3.353611   -0.552844
     41          6           0       -5.853019   -2.424017   -2.254127
     42          6           0       -4.270600   -5.186924   -1.114998
     43          6           0       -6.758781   -3.475143   -2.550022
     44          1           0        4.299442   -2.065263    0.293714
     45          1           0        4.982426    0.683714    1.042808
     46          1           0        4.988399   -0.367231    2.240161
     47          1           0        2.752699    1.273932   -0.276365
     48          1           0        3.393799   -0.841020   -1.571487
     49          1           0       -0.523305    0.139820    3.747230
     50          1           0       -1.265017    0.368108    2.181909
     51          1           0        0.843463    2.851263   -0.026131
     52          1           0        3.396955   -1.210300    3.605711
     53          1           0        1.777411   -1.296310    4.209980
     54          1           0        2.190827   -2.404222    2.883274
     55          1           0        6.472500   -2.293579    1.792806
     56          1           0        7.425432   -0.799084    1.425149
     57          1           0        8.022847   -2.406289    0.778366
     58          1           0       -1.176077   -2.117502    1.376904
     59          1           0       -0.192329   -2.457015    2.855744
     60          1           0       -1.662767   -0.179886    0.161469
     61          1           0       -2.269625    4.785899   -1.770899
     62          1           0       -0.683070    4.532930   -1.249512
     63          1           0        7.662535   -0.586253   -3.246251
     64          1           0       -1.548324    4.593104    1.324860
     65          1           0       -3.100304    5.147520    0.588974
     66          1           0       -4.034211    4.107432   -1.874675
     67          1           0       -5.253431    2.790127   -1.372809
     68          1           0       -4.568222    2.649689   -2.877588
     69          1           0       -4.863922    0.400175   -1.912420
     70          1           0        9.273205   -0.779820   -0.676470
     71          1           0       10.093655   -0.582208   -2.466141
     72          1           0       -3.512953   -3.209978    3.811103
     73          1           0       -6.152742   -1.400549   -2.796937
     74          1           0       -4.232274   -5.719053   -1.979247
     75          1           0       -3.492912   -5.835603   -0.428203
     76          1           0       -5.228857   -5.562244   -0.544639
     77          1           0       -1.643348    8.082504    1.291355
     78          1           0       -7.626755   -3.162316   -3.086961
     79          1           0       -6.622268   -4.720967   -2.247289
 ---------------------------------------------------------------------

 SCF Done:  E(RB3LYP) =  -1947.86005661     A.U. after   16 cycles

 Excitation energies and oscillator strengths:

 Excited State   1:      Singlet-A      2.0482 eV  605.33 nm  f=0.4390  <S**2>=0.000
     155 ->156         0.69691
     155 <-156        -0.10246
 This state for optimization and/or second-order correction.
 Total Energy, E(TD-HF/TD-KS) =  -1947.78478574
 Copying the excited state density for this state as the 1-particle RhoCI density.

 The electronic state is 1-A.
 Alpha  occ. eigenvalues --  -19.18415 -19.17909 -19.13192 -19.11482 -19.10982
 Alpha  occ. eigenvalues --  -19.10849 -14.37844 -14.36563 -14.35266 -14.28831
 Alpha  occ. eigenvalues --  -10.32492 -10.30407 -10.28930 -10.26689 -10.25508
 Alpha  occ. eigenvalues --  -10.24616 -10.24012 -10.23386 -10.22731 -10.22684
 Alpha  occ. eigenvalues --  -10.22667 -10.22417 -10.22275 -10.22240 -10.21695
 Alpha  occ. eigenvalues --  -10.21651 -10.21596 -10.21059 -10.20835 -10.20657
 Alpha  occ. eigenvalues --  -10.20520 -10.20500 -10.20455 -10.19752 -10.19650
 Alpha  occ. eigenvalues --  -10.19536 -10.19455 -10.19155 -10.19069 -10.18814
 Alpha  occ. eigenvalues --  -10.18697 -10.18480 -10.17923  -1.08828  -1.08392
 Alpha  occ. eigenvalues --   -1.07241  -1.02658  -0.99378  -0.99176  -0.98948
 Alpha  occ. eigenvalues --   -0.98847  -0.93415  -0.91030  -0.83211  -0.82389
 Alpha  occ. eigenvalues --   -0.81567  -0.80594  -0.80052  -0.79419  -0.78501
 Alpha  occ. eigenvalues --   -0.77172  -0.75726  -0.74956  -0.74271  -0.72839
 Alpha  occ. eigenvalues --   -0.71574  -0.70986  -0.69098  -0.68872  -0.67988
 Alpha  occ. eigenvalues --   -0.67270  -0.65433  -0.63502  -0.61394  -0.60276
 Alpha  occ. eigenvalues --   -0.59139  -0.58466  -0.57813  -0.57549  -0.57293
 Alpha  occ. eigenvalues --   -0.56558  -0.55566  -0.54508  -0.53461  -0.52665
 Alpha  occ. eigenvalues --   -0.51588  -0.51445  -0.50659  -0.49960  -0.49744
 Alpha  occ. eigenvalues --   -0.48847  -0.48551  -0.48215  -0.47853  -0.47481
 Alpha  occ. eigenvalues --   -0.47135  -0.46800  -0.46582  -0.46111  -0.45889
 Alpha  occ. eigenvalues --   -0.45324  -0.44961  -0.44852  -0.44268  -0.44080
 Alpha  occ. eigenvalues --   -0.44009  -0.43487  -0.43256  -0.42935  -0.42617
 Alpha  occ. eigenvalues --   -0.42364  -0.42020  -0.41608  -0.41491  -0.41279
 Alpha  occ. eigenvalues --   -0.40584  -0.40451  -0.40144  -0.39969  -0.39800
 Alpha  occ. eigenvalues --   -0.39730  -0.39270  -0.39205  -0.38431  -0.37946
 Alpha  occ. eigenvalues --   -0.37761  -0.37410  -0.37337  -0.37109  -0.36826
 Alpha  occ. eigenvalues --   -0.35681  -0.35668  -0.34797  -0.34575  -0.34437
 Alpha  occ. eigenvalues --   -0.33971  -0.33094  -0.32938  -0.32388  -0.32119
 Alpha  occ. eigenvalues --   -0.31060  -0.30835  -0.28662  -0.28163  -0.27302
 Alpha  occ. eigenvalues --   -0.26901  -0.26666  -0.26429  -0.26141  -0.25066
 Alpha  occ. eigenvalues --   -0.24370  -0.24270  -0.23287  -0.21918  -0.18465
 Alpha virt. eigenvalues --   -0.10374  -0.06623  -0.05591  -0.01529  -0.01237
 Alpha virt. eigenvalues --    0.01540   0.02130   0.02618   0.03096   0.03189
 Alpha virt. eigenvalues --    0.03892   0.04358   0.04507   0.04895   0.05092

 Mulliken charges:
               1
     1  O   -0.128298
     2  O   -0.172313
     3  O   -0.246421
     4  O   -0.228908
     5  O   -0.260923
     6  O   -0.180310
     7  N   -0.046402
     8  N   -0.234329
     9  N   -0.017270
    10  N   -0.296968
    11  C    0.060778
    12  C    0.231997
    13  C   -0.127443
    14  C   -0.170956
    15  C   -0.067726
    16  C    0.007824
    17  C   -0.170590
    18  C    0.155159
    19  C   -0.107934
    20  C   -0.125964
    21  C    0.117111
    22  C    0.140501
    23  C   -0.088132
    24  C    0.093346
    25  C    0.105615
    26  C   -0.132340
    27  C   -0.105619
    28  C    0.053623
    29  C    0.177620
    30  C    0.026333
    31  C   -0.035013
    32  C    0.097935
    33  C   -0.107646
    34  C    0.133134
    35  C    0.086281
    36  C   -0.032728
    37  C    0.146940
    38  C    0.101636
    39  C   -0.151069
    40  C    0.169633
    41  C   -0.099521
    42  C    0.010155
    43  C   -0.062321
    44  H    0.028172
    45  H   -0.074254
    46  H    0.020627
    47  H    0.108897
    48  H    0.136029
    49  H    0.014976
    50  H   -0.012034
    51  H    0.017421
    52  H    0.002107
    53  H    0.010529
    54  H    0.029586
    55  H    0.041972
    56  H    0.000141
    57  H    0.061171
    58  H    0.115859
    59  H    0.015957
    60  H    0.136488
    61  H    0.016029
    62  H   -0.032629
    63  H    0.000582
    64  H    0.073514
    65  H    0.054620
    66  H    0.025121
    67  H    0.019837
    68  H    0.023602
    69  H   -0.012048
    70  H    0.001579
    71  H    0.050415
    72  H    0.188568
    73  H    0.051012
    74  H    0.011567
    75  H    0.027678
    76  H    0.032023
    77  H    0.207421
    78  H    0.015577
    79  H    0.073409
 Sum of Mulliken charges =   0.00000

 Dipole moment (field-independent basis, Debye):
    X=             -0.1991    Y=              1.4053    Z=              2.3165  Tot=              2.7167
 Quadrupole moment (field-independent basis, Debye-Ang):
   XX=           -216.3344   YY=           -250.6015   ZZ=           -258.8149
   XY=             -7.2987   XZ=             29.5322   YZ=              1.3651

 Normal termination of Gaussian 09 at Wed Jul 10 06:57:22 2019.
