 Gaussian 09, Revision D.01,
 Gaussian 09:  ES64L-G09RevD.01 24-Apr-2013

 --------------------------
 # td=(NStates=1) B3LYP/SVP
 --------------------------

 --
 TD
 --
 Symbolic Z-matrix:
 Charge =  0 Multiplicity = 1

                         Standard orientation:
 ---------------------------------------------------------------------
 Center     Atomic      Atomic             Coordinates (Angstroms)
 Number     Number       Type             X           Y           Z
 ---------------------------------------------------------------------
      1          8           0        5.331661   -0.540069   -3.396160
      2          8           0       -3.081651   -2.815086    3.266053
      3          8           0       -3.276598   -0.642678    2.976129
      4          8           0       -1.110518    7.155750    1.415296
      5          8           0        0.058270    6.785459   -0.325706
      6          8           0       -2.093759   -3.960856    0.152640
      7          7           0        2.354696    0.891901    0.493903
      8          7           0        4.402912   -0.699196   -1.292046
      9          7           0       -1.779515    0.667625   -0.453691
     10          7           0       -2.749771   -1.866713   -0.549634
     11          6           0        4.813662   -1.258377    0.077722
     12          6           0        4.390231   -0.350724    1.223914
     13          6           0        2.954156   -0.041268    1.314613
     14          6           0        1.979521   -0.599957    2.106537
     15          6           0        0.684654   -0.107443    1.735969
     16          6           0        0.915366    0.864554    0.818892
     17          6           0        6.305869   -1.430559   -0.073831
     18          6           0       -0.629780   -0.245620    2.493345
     19          6           0        6.669379   -1.054791   -1.395181
     20          6           0        0.205061    1.974515    0.117404
     21          6           0       -1.087315    1.890471   -0.329616
     22          6           0        5.416994   -0.701882   -2.197398
     23          6           0       -1.899385    2.939160   -0.962528
     24          6           0        2.254487   -1.670757    3.111134
     25          6           0        7.032443   -2.099815    0.980557
     26          6           0       -3.134305    2.452458   -1.329429
     27          6           0       -1.167059   -1.653083    2.472751
     28          6           0       -3.037085    0.989888   -1.011188
     29          6           0       -1.363260    4.387572   -0.970232
     30          6           0        8.005021   -1.042993   -2.140877
     31          6           0       -1.406389    4.967880    0.546562
     32          6           0       -4.269698    3.122023   -1.984395
     33          6           0       -3.988138    0.085481   -1.243298
     34          6           0       -2.624568   -1.611932    3.012483
     35          6           0       -3.835855   -1.345422   -1.057453
     36          6           0        9.182846   -1.061113   -1.441733
     37          6           0       -0.766098    6.384822    0.384210
     38          6           0       -4.899188   -2.335592   -1.452445
     39          6           0       -4.234122   -3.495778   -1.155379
     40          6           0       -2.937334   -3.202334   -0.462405
     41          6           0       -6.157569   -2.135770   -2.066860
     42          6           0       -4.722486   -4.962841   -0.997611
     43          6           0       -6.956436   -2.957648   -2.524726
     44          1           0        4.323341   -2.324748    0.206661
     45          1           0        5.043007    0.727018    0.986339
     46          1           0        4.557097   -0.815666    2.271345
     47          1           0        2.873436    1.572733   -0.235777
     48          1           0        3.442468   -0.793373   -1.492953
     49          1           0       -0.341838    0.043279    3.527568
     50          1           0       -1.211841    0.637161    2.332926
     51          1           0        1.004399    2.813814   -0.035223
     52          1           0        3.353633   -1.863716    3.271804
     53          1           0        1.756675   -1.669830    3.971222
     54          1           0        1.923264   -2.699340    2.794620
     55          1           0        6.224626   -2.524442    1.540382
     56          1           0        7.532310   -1.326286    1.553285
     57          1           0        7.974632   -2.849411    0.751713
     58          1           0       -1.374331   -1.895103    1.354577
     59          1           0       -0.510247   -2.288872    2.834532
     60          1           0       -1.512352   -0.360862   -0.153917
     61          1           0       -2.165273    5.045049   -1.546539
     62          1           0       -0.318403    4.495461   -1.317256
     63          1           0        7.928870   -1.080171   -3.282010
     64          1           0       -0.767133    4.251155    1.372301
     65          1           0       -2.346148    4.863322    1.323620
     66          1           0       -4.254653    4.288835   -2.291137
     67          1           0       -5.054787    3.076367   -1.184073
     68          1           0       -4.691690    2.597711   -2.728165
     69          1           0       -4.883640    0.277478   -1.728407
     70          1           0        9.440789   -0.998992   -0.448592
     71          1           0       10.098981   -1.262617   -2.133870
     72          1           0       -4.088632   -2.926592    3.633693
     73          1           0       -6.445248   -1.128699   -2.105740
     74          1           0       -4.706977   -5.451794   -1.942059
     75          1           0       -4.180097   -5.458915   -0.151302
     76          1           0       -5.792973   -5.005624   -0.374118
     77          1           0       -0.782696    7.938638    1.395724
     78          1           0       -8.083275   -2.802399   -2.986063
     79          1           0       -6.344506   -4.074799   -2.677909
 ---------------------------------------------------------------------

 SCF Done:  E(RB3LYP) =  -1947.76341428     A.U. after   17 cycles

 Excitation energies and oscillator strengths:

 Excited State   1:      Singlet-A      2.0211 eV  613.45 nm  f=0.4067  <S**2>=0.000
     155 ->156         0.70260
     155 <-156        -0.10679
 This state for optimization and/or second-order correction.
 Total Energy, E(TD-HF/TD-KS) =  -1947.68914073
 Copying the excited state density for this state as the 1-particle RhoCI density.

 The electronic state is 1-A.
 Alpha  occ. eigenvalues --  -19.17016 -19.16396 -19.13357 -19.10513 -19.10364
 Alpha  occ. eigenvalues --  -19.09555 -14.37744 -14.36966 -14.34895 -14.29304
 Alpha  occ. eigenvalues --  -10.32505 -10.29938 -10.28055 -10.26516 -10.25871
 Alpha  occ. eigenvalues --  -10.25080 -10.24343 -10.24168 -10.23953 -10.23406
 Alpha  occ. eigenvalues --  -10.23026 -10.22678 -10.22356 -10.22327 -10.22220
 Alpha  occ. eigenvalues --  -10.21970 -10.21720 -10.21286 -10.21216 -10.21153
 Alpha  occ. eigenvalues --  -10.21001 -10.20739 -10.20535 -10.20333 -10.19745
 Alpha  occ. eigenvalues --  -10.19667 -10.18931 -10.18808 -10.18770 -10.18586
 Alpha  occ. eigenvalues --  -10.18385 -10.18366 -10.17799  -1.13121  -1.08674
 Alpha  occ. eigenvalues --   -1.03276  -1.02080  -0.99821  -0.99115  -0.96437
 Alpha  occ. eigenvalues --   -0.95751  -0.92819  -0.92642  -0.82644  -0.82037
 Alpha  occ. eigenvalues --   -0.81898  -0.81442  -0.80802  -0.79429  -0.77018
 Alpha  occ. eigenvalues --   -0.76881  -0.75934  -0.75694  -0.74824  -0.72843
 Alpha  occ. eigenvalues --   -0.71688  -0.70985  -0.69953  -0.68734  -0.68330
 Alpha  occ. eigenvalues --   -0.66067  -0.65554  -0.63485  -0.61313  -0.60490
 Alpha  occ. eigenvalues --   -0.60159  -0.59240  -0.58644  -0.57331  -0.56648
 Alpha  occ. eigenvalues --   -0.55969  -0.55478  -0.54977  -0.53691  -0.53196
 Alpha  occ. eigenvalues --   -0.51657  -0.50836  -0.50761  -0.50201  -0.50012
 Alpha  occ. eigenvalues --   -0.49052  -0.48470  -0.48063  -0.47305  -0.47163
 Alpha  occ. eigenvalues --   -0.46887  -0.46763  -0.46103  -0.45960  -0.45220
 Alpha  occ. eigenvalues --   -0.45124  -0.44685  -0.44544  -0.44346  -0.43873
 Alpha  occ. eigenvalues --   -0.43507  -0.43159  -0.42820  -0.42578  -0.42295
 Alpha  occ. eigenvalues --   -0.41877  -0.41735  -0.41537  -0.41242  -0.41063
 Alpha  occ. eigenvalues --   -0.40763  -0.40604  -0.40446  -0.39886  -0.39305
 Alpha  occ. eigenvalues --   -0.38953  -0.38823  -0.38393  -0.38297  -0.37842
 Alpha  occ. eigenvalues --   -0.37612  -0.37060  -0.36732  -0.36344  -0.36094
 Alpha  occ. eigenvalues --   -0.35851  -0.35224  -0.34730  -0.34441  -0.33753
 Alpha  occ. eigenvalues --   -0.33554  -0.33310  -0.32643  -0.32185  -0.31186
 Alpha  occ. eigenvalues --   -0.31053  -0.30213  -0.29406  -0.28624  -0.27439
 Alpha  occ. eigenvalues --   -0.26630  -0.26488  -0.25931  -0.25197  -0.24831
 Alpha  occ. eigenvalues --   -0.24195  -0.23815  -0.23281  -0.23030  -0.19086
 Alpha virt. eigenvalues --   -0.11189  -0.06276  -0.05826  -0.00783  -0.00451
 Alpha virt. eigenvalues --    0.00801   0.01075   0.02411   0.02614   0.03208
 Alpha virt. eigenvalues --    0.03536   0.03769   0.04560   0.04943   0.05085

 Mulliken charges:
               1
     1  O   -0.218849
     2  O   -0.214743
     3  O   -0.191434
     4  O   -0.101187
     5  O   -0.170772
     6  O   -0.262604
     7  N   -0.216414
     8  N   -0.190253
     9  N   -0.168493
    10  N   -0.207621
    11  C    0.046864
    12  C    0.096484
    13  C   -0.038486
    14  C   -0.117514
    15  C   -0.110098
    16  C    0.055401
    17  C   -0.153269
    18  C    0.090388
    19  C   -0.099574
    20  C   -0.136260
    21  C    0.167093
    22  C    0.155765
    23  C   -0.084128
    24  C    0.131476
    25  C    0.084403
    26  C   -0.108359
    27  C    0.053232
    28  C    0.221241
    29  C    0.082707
    30  C   -0.003334
    31  C   -0.166579
    32  C    0.121446
    33  C   -0.113927
    34  C    0.104021
    35  C    0.026269
    36  C   -0.029242
    37  C    0.127890
    38  C    0.071643
    39  C   -0.222508
    40  C    0.162315
    41  C    0.067790
    42  C    0.029840
    43  C   -0.118959
    44  H    0.047531
    45  H    0.023942
    46  H    0.026353
    47  H    0.169691
    48  H    0.114223
    49  H   -0.008501
    50  H   -0.003818
    51  H    0.030725
    52  H   -0.010301
    53  H   -0.027850
    54  H    0.019488
    55  H    0.009568
    56  H    0.032431
    57  H    0.062125
    58  H    0.088582
    59  H   -0.041505
    60  H    0.207931
    61  H    0.040212
    62  H    0.049039
    63  H    0.050649
    64  H    0.078051
    65  H    0.066770
    66  H    0.050174
    67  H    0.024901
    68  H   -0.005111
    69  H   -0.078963
    70  H   -0.001380
    71  H    0.033205
    72  H    0.225380
    73  H   -0.045400
    74  H    0.041255
    75  H    0.037887
    76  H    0.033808
    77  H    0.101756
    78  H    0.062086
    79  H    0.043405
 Sum of Mulliken charges =   0.00000

 Dipole moment (field-independent basis, Debye):
    X=             -1.8693    Y=              2.5146    Z=              3.5335  Tot=              4.7227
 Quadrupole moment (field-independent basis, Debye-Ang):
   XX=           -216.8326   YY=           -247.9277   ZZ=           -259.6509
   XY=            -11.5441   XZ=             33.1254   YZ=             -3.7680

 Normal termination of Gaussian 09 at Tue Jul  9 16:35:11 2019.
