 Gaussian 09, Revision D.01,
 Gaussian 09:  ES64L-G09RevD.01 24-Apr-2013

 --------------------------
 # td=(NStates=1) B3LYP/SVP
 --------------------------

 --
 TD
 --
 Symbolic Z-matrix:
 Charge =  0 Multiplicity = 1

                         Standard orientation:
 ---------------------------------------------------------------------
 Center     Atomic      Atomic             Coordinates (Angstroms)
 Number     Number       Type             X           Y           Z
 ---------------------------------------------------------------------
      1          8           0        5.570116   -0.304023   -3.427168
      2          8           0       -2.660440   -3.191453    3.143689
      3          8           0       -3.173103   -0.941320    3.676575
      4          8           0       -1.789688    7.189613    1.421345
      5          8           0       -0.621435    6.954609   -0.567618
      6          8           0       -1.965937   -3.954562    0.003159
      7          7           0        2.387758    0.948131    0.473048
      8          7           0        4.472877   -0.765015   -1.271771
      9          7           0       -1.960582    0.711321   -0.299937
     10          7           0       -2.765263   -1.830977   -0.539881
     11          6           0        4.959718   -1.084039    0.012519
     12          6           0        4.499893   -0.182101    1.137002
     13          6           0        2.958959   -0.028051    1.242752
     14          6           0        2.072452   -0.569757    2.135190
     15          6           0        0.808979    0.050341    1.792512
     16          6           0        0.984785    0.896797    0.800418
     17          6           0        6.424829   -1.365797   -0.173589
     18          6           0       -0.477017   -0.205037    2.554865
     19          6           0        6.746779   -1.010707   -1.490268
     20          6           0        0.146917    1.861583    0.081235
     21          6           0       -1.181820    1.852451   -0.353584
     22          6           0        5.531825   -0.626266   -2.221704
     23          6           0       -1.987832    2.867444   -0.942607
     24          6           0        2.283815   -1.520822    3.281714
     25          6           0        7.323342   -1.644703    0.939532
     26          6           0       -3.227701    2.365302   -1.302832
     27          6           0       -0.988344   -1.653641    2.648384
     28          6           0       -3.227374    0.947776   -0.906138
     29          6           0       -1.510585    4.360990   -0.977669
     30          6           0        8.058486   -0.881608   -2.093481
     31          6           0       -1.751246    5.045822    0.351746
     32          6           0       -4.425111    3.102589   -1.833636
     33          6           0       -4.176371   -0.047126   -1.195284
     34          6           0       -2.451695   -1.831125    3.182796
     35          6           0       -3.910367   -1.433217   -1.022816
     36          6           0        9.244455   -0.669151   -1.491433
     37          6           0       -1.276432    6.436031    0.425763
     38          6           0       -4.803535   -2.608827   -1.354006
     39          6           0       -4.087751   -3.640860   -1.055643
     40          6           0       -2.814854   -3.300027   -0.396793
     41          6           0       -6.158299   -2.404804   -1.987016
     42          6           0       -4.506418   -5.190211   -1.295760
     43          6           0       -6.701171   -3.296226   -2.944955
     44          1           0        4.383723   -1.880894    0.388029
     45          1           0        4.927968    0.975818    0.976440
     46          1           0        4.831311   -0.483494    1.924075
     47          1           0        2.622563    1.536068   -0.394026
     48          1           0        3.458044   -1.043303   -1.606871
     49          1           0       -0.397312    0.417667    3.501670
     50          1           0       -1.179042    0.444418    2.208484
     51          1           0        0.690538    2.939179    0.002516
     52          1           0        3.213469   -1.197815    3.771837
     53          1           0        1.584064   -1.421235    4.194195
     54          1           0        2.347022   -2.767425    2.964622
     55          1           0        6.712985   -2.176493    1.686068
     56          1           0        7.710791   -0.687897    1.540288
     57          1           0        8.073976   -2.380053    0.717804
     58          1           0       -1.152042   -2.199928    1.572211
     59          1           0       -0.441841   -2.514564    3.108382
     60          1           0       -1.621832   -0.405099   -0.407412
     61          1           0       -1.890873    4.872152   -1.838649
     62          1           0       -0.415799    4.341994   -1.068965
     63          1           0        7.938856   -0.894914   -3.227617
     64          1           0       -1.240910    4.267025    0.911282
     65          1           0       -2.794841    4.973018    0.592432
     66          1           0       -4.243118    4.144457   -2.141592
     67          1           0       -5.269395    3.108693   -1.104898
     68          1           0       -4.881071    2.761331   -2.671815
     69          1           0       -5.204281    0.147161   -1.456947
     70          1           0        9.332932   -0.567027   -0.490566
     71          1           0       10.169964   -0.740173   -2.107877
     72          1           0       -3.475072   -3.443286    3.483030
     73          1           0       -6.735363   -1.583997   -1.427172
     74          1           0       -4.212697   -5.449096   -2.404568
     75          1           0       -3.895033   -5.807751   -0.653308
     76          1           0       -5.504213   -5.187462   -1.084334
     77          1           0       -1.417305    8.156075    1.369809
     78          1           0       -7.836462   -2.997663   -3.230370
     79          1           0       -6.297200   -4.280749   -3.409541
 ---------------------------------------------------------------------

 SCF Done:  E(RB3LYP) =  -1947.82129057     A.U. after   17 cycles

 Excitation energies and oscillator strengths:

 Excited State   1:      Singlet-A      2.1635 eV  573.07 nm  f=0.4407  <S**2>=0.000
     152 ->156         0.10716
     155 ->156         0.68865
     155 <-156        -0.10429
 This state for optimization and/or second-order correction.
 Total Energy, E(TD-HF/TD-KS) =  -1947.74178254
 Copying the excited state density for this state as the 1-particle RhoCI density.

 The electronic state is 1-A.
 Alpha  occ. eigenvalues --  -19.20258 -19.17260 -19.12695 -19.12586 -19.12108
 Alpha  occ. eigenvalues --  -19.10213 -14.37782 -14.35882 -14.35656 -14.29052
 Alpha  occ. eigenvalues --  -10.33343 -10.31776 -10.28642 -10.27464 -10.24965
 Alpha  occ. eigenvalues --  -10.24061 -10.23701 -10.23297 -10.23064 -10.23058
 Alpha  occ. eigenvalues --  -10.23002 -10.22962 -10.22037 -10.21941 -10.21619
 Alpha  occ. eigenvalues --  -10.21571 -10.21313 -10.21192 -10.20825 -10.20779
 Alpha  occ. eigenvalues --  -10.20339 -10.20239 -10.20198 -10.19820 -10.19738
 Alpha  occ. eigenvalues --  -10.19725 -10.19458 -10.19456 -10.19149 -10.18970
 Alpha  occ. eigenvalues --  -10.18730 -10.18658 -10.18454  -1.08627  -1.07611
 Alpha  occ. eigenvalues --   -1.07077  -1.00593  -0.98857  -0.97405  -0.97382
 Alpha  occ. eigenvalues --   -0.96272  -0.94062  -0.92839  -0.82387  -0.81636
 Alpha  occ. eigenvalues --   -0.81279  -0.80685  -0.80254  -0.79588  -0.77787
 Alpha  occ. eigenvalues --   -0.76875  -0.75424  -0.75313  -0.73913  -0.72431
 Alpha  occ. eigenvalues --   -0.71402  -0.71132  -0.69259  -0.68752  -0.68055
 Alpha  occ. eigenvalues --   -0.67627  -0.66132  -0.64137  -0.61289  -0.60953
 Alpha  occ. eigenvalues --   -0.60146  -0.59107  -0.58183  -0.57096  -0.56600
 Alpha  occ. eigenvalues --   -0.56418  -0.55302  -0.54531  -0.53851  -0.53309
 Alpha  occ. eigenvalues --   -0.52146  -0.51659  -0.51193  -0.50760  -0.49765
 Alpha  occ. eigenvalues --   -0.48670  -0.47966  -0.47785  -0.47507  -0.47138
 Alpha  occ. eigenvalues --   -0.46874  -0.46365  -0.45721  -0.45560  -0.45377
 Alpha  occ. eigenvalues --   -0.44957  -0.44814  -0.44686  -0.44008  -0.43603
 Alpha  occ. eigenvalues --   -0.43221  -0.42983  -0.42674  -0.42269  -0.42157
 Alpha  occ. eigenvalues --   -0.41965  -0.41873  -0.41698  -0.41242  -0.40904
 Alpha  occ. eigenvalues --   -0.40729  -0.40570  -0.40369  -0.39935  -0.39551
 Alpha  occ. eigenvalues --   -0.39461  -0.39242  -0.39189  -0.38696  -0.38549
 Alpha  occ. eigenvalues --   -0.38017  -0.37875  -0.37232  -0.36976  -0.36732
 Alpha  occ. eigenvalues --   -0.36162  -0.36089  -0.35757  -0.35326  -0.34724
 Alpha  occ. eigenvalues --   -0.34428  -0.33153  -0.31480  -0.31460  -0.31376
 Alpha  occ. eigenvalues --   -0.30490  -0.30359  -0.29057  -0.28526  -0.27735
 Alpha  occ. eigenvalues --   -0.26733  -0.26100  -0.25861  -0.25322  -0.25263
 Alpha  occ. eigenvalues --   -0.24750  -0.24153  -0.23550  -0.23031  -0.19289
 Alpha virt. eigenvalues --   -0.10703  -0.06411  -0.06295  -0.02719  -0.02023
 Alpha virt. eigenvalues --    0.00253   0.00687   0.00743   0.02551   0.02775
 Alpha virt. eigenvalues --    0.03565   0.03656   0.04383   0.04674   0.05282

 Mulliken charges:
               1
     1  O   -0.247124
     2  O   -0.175683
     3  O   -0.253664
     4  O   -0.204833
     5  O   -0.307269
     6  O   -0.101511
     7  N   -0.138697
     8  N   -0.264070
     9  N   -0.188178
    10  N   -0.330499
    11  C    0.104594
    12  C    0.325559
    13  C   -0.110781
    14  C   -0.090803
    15  C   -0.142333
    16  C    0.084962
    17  C   -0.119893
    18  C    0.237527
    19  C   -0.074290
    20  C   -0.138267
    21  C    0.088586
    22  C    0.201937
    23  C   -0.122637
    24  C    0.003391
    25  C    0.078032
    26  C   -0.103984
    27  C   -0.075180
    28  C    0.139917
    29  C    0.109639
    30  C   -0.033853
    31  C    0.042385
    32  C    0.143100
    33  C   -0.082632
    34  C    0.172557
    35  C    0.019035
    36  C    0.015973
    37  C    0.201203
    38  C    0.055510
    39  C   -0.268768
    40  C    0.160407
    41  C   -0.039589
    42  C    0.109195
    43  C   -0.082264
    44  H   -0.021700
    45  H    0.009670
    46  H   -0.146473
    47  H    0.155725
    48  H    0.169322
    49  H    0.004423
    50  H   -0.057587
    51  H    0.033540
    52  H    0.011180
    53  H    0.039122
    54  H    0.055350
    55  H    0.001556
    56  H    0.065010
    57  H    0.030790
    58  H    0.078664
    59  H    0.035449
    60  H    0.222004
    61  H    0.006921
    62  H    0.004518
    63  H    0.027730
    64  H    0.029863
    65  H    0.027805
    66  H    0.007596
    67  H    0.025875
    68  H   -0.013073
    69  H   -0.040470
    70  H   -0.019981
    71  H    0.034576
    72  H    0.148342
    73  H    0.052547
    74  H    0.045590
    75  H    0.019403
    76  H    0.011547
    77  H    0.226810
    78  H    0.049377
    79  H    0.072273
 Sum of Mulliken charges =   0.00000

 Dipole moment (field-independent basis, Debye):
    X=             -1.7799    Y=              0.2495    Z=              3.1950  Tot=              3.6658
 Quadrupole moment (field-independent basis, Debye-Ang):
   XX=           -222.9862   YY=           -237.7471   ZZ=           -267.5821
   XY=             -5.9168   XZ=             38.4869   YZ=              7.1642

 Normal termination of Gaussian 09 at Wed Jul 10 09:45:18 2019.
