 Gaussian 09, Revision D.01,
 Gaussian 09:  ES64L-G09RevD.01 24-Apr-2013

 --------------------------
 # td=(NStates=1) B3LYP/SVP
 --------------------------

 --
 TD
 --
 Symbolic Z-matrix:
 Charge =  0 Multiplicity = 1

                         Standard orientation:
 ---------------------------------------------------------------------
 Center     Atomic      Atomic             Coordinates (Angstroms)
 Number     Number       Type             X           Y           Z
 ---------------------------------------------------------------------
      1          8           0        5.266754   -0.130771   -3.235206
      2          8           0       -3.054239   -2.955588    3.163432
      3          8           0       -3.177652   -0.758914    3.082608
      4          8           0       -1.502574    7.163039    1.550297
      5          8           0       -0.434270    6.976277   -0.317309
      6          8           0       -1.847358   -4.026720   -0.450411
      7          7           0        2.473079    0.843141    0.517935
      8          7           0        4.410442   -0.636598   -1.223860
      9          7           0       -1.822046    0.596848   -0.366949
     10          7           0       -2.699846   -1.923700   -0.591853
     11          6           0        4.901112   -1.262993    0.015877
     12          6           0        4.434471   -0.353788    1.205999
     13          6           0        3.024372   -0.117695    1.328256
     14          6           0        2.025894   -0.674571    2.160305
     15          6           0        0.718075   -0.072102    1.743185
     16          6           0        1.074135    0.807176    0.731475
     17          6           0        6.360456   -1.378373   -0.166383
     18          6           0       -0.563046   -0.347634    2.439978
     19          6           0        6.693293   -0.880982   -1.282058
     20          6           0        0.270843    1.843105   -0.051985
     21          6           0       -1.059766    1.785625   -0.230502
     22          6           0        5.477027   -0.455746   -2.064681
     23          6           0       -1.878013    2.863353   -0.825120
     24          6           0        2.265722   -1.815195    3.212689
     25          6           0        7.302540   -1.880871    0.869015
     26          6           0       -3.096293    2.388483   -1.184742
     27          6           0       -1.070915   -1.774735    2.495608
     28          6           0       -3.059437    0.918536   -0.966299
     29          6           0       -1.358493    4.343564   -0.989540
     30          6           0        7.949379   -0.930765   -2.063273
     31          6           0       -1.725621    5.092413    0.301009
     32          6           0       -4.215471    3.053925   -1.798774
     33          6           0       -4.118280    0.063011   -1.197838
     34          6           0       -2.479343   -1.840595    2.978370
     35          6           0       -3.859851   -1.328195   -1.025799
     36          6           0        9.135233   -0.773603   -1.513628
     37          6           0       -1.146848    6.454388    0.486000
     38          6           0       -4.861601   -2.366882   -1.318223
     39          6           0       -4.189657   -3.551155   -1.071563
     40          6           0       -2.742659   -3.224956   -0.635474
     41          6           0       -6.236769   -2.187074   -1.692481
     42          6           0       -4.624971   -5.039575   -1.143503
     43          6           0       -7.073893   -2.967173   -2.532054
     44          1           0        4.398804   -2.210135    0.081011
     45          1           0        5.050228    0.551185    1.346906
     46          1           0        4.880670   -1.020972    1.953873
     47          1           0        2.794653    1.226624   -0.412209
     48          1           0        3.578633   -0.857886   -1.657967
     49          1           0       -0.538482    0.138328    3.551299
     50          1           0       -1.396237    0.256053    2.054775
     51          1           0        0.812092    2.634562   -0.448639
     52          1           0        3.389350   -2.129277    3.187246
     53          1           0        1.929436   -1.197768    4.135157
     54          1           0        1.596290   -2.633062    2.851413
     55          1           0        7.025343   -2.707230    1.573524
     56          1           0        7.609702   -0.968807    1.493621
     57          1           0        8.161648   -2.207847    0.308129
     58          1           0       -1.125730   -2.514563    1.621131
     59          1           0       -0.417667   -2.366158    3.210407
     60          1           0       -1.598525   -0.488478   -0.430444
     61          1           0       -1.618278    4.797904   -1.858362
     62          1           0       -0.247060    4.391347   -1.043916
     63          1           0        7.800204   -1.033340   -3.250858
     64          1           0       -1.360423    4.537965    1.116220
     65          1           0       -2.708768    5.182441    0.472428
     66          1           0       -3.980208    4.086778   -1.864932
     67          1           0       -5.220400    2.975662   -1.235834
     68          1           0       -4.335937    2.603768   -2.945875
     69          1           0       -4.992992    0.479579   -1.697573
     70          1           0        9.280032   -0.398122   -0.458609
     71          1           0       10.123105   -1.069723   -2.089618
     72          1           0       -4.096250   -2.987569    3.203482
     73          1           0       -6.715603   -1.034237   -1.231216
     74          1           0       -4.603652   -5.426037   -2.293500
     75          1           0       -3.848030   -5.444401   -0.623387
     76          1           0       -5.568777   -5.355838   -0.711609
     77          1           0       -1.183060    8.183889    1.426171
     78          1           0       -8.238578   -2.555959   -2.588337
     79          1           0       -6.801995   -4.068632   -2.721192
 ---------------------------------------------------------------------

 SCF Done:  E(RB3LYP) =  -1947.85560097     A.U. after   16 cycles

 Excitation energies and oscillator strengths:

 Excited State   1:      Singlet-A      2.1696 eV  571.46 nm  f=0.4306  <S**2>=0.000
     154 ->156         0.19152
     155 ->156         0.67874
 This state for optimization and/or second-order correction.
 Total Energy, E(TD-HF/TD-KS) =  -1947.77586880
 Copying the excited state density for this state as the 1-particle RhoCI density.

 The electronic state is 1-A.
 Alpha  occ. eigenvalues --  -19.18586 -19.18575 -19.11826 -19.09920 -19.09884
 Alpha  occ. eigenvalues --  -19.08778 -14.37890 -14.36494 -14.34302 -14.28884
 Alpha  occ. eigenvalues --  -10.31578 -10.30528 -10.28184 -10.25890 -10.24847
 Alpha  occ. eigenvalues --  -10.24729 -10.24435 -10.24325 -10.23364 -10.22701
 Alpha  occ. eigenvalues --  -10.22582 -10.21986 -10.21755 -10.21655 -10.21540
 Alpha  occ. eigenvalues --  -10.21537 -10.21478 -10.21426 -10.21186 -10.21163
 Alpha  occ. eigenvalues --  -10.21070 -10.20702 -10.20665 -10.20273 -10.20185
 Alpha  occ. eigenvalues --  -10.20078 -10.20000 -10.19993 -10.19851 -10.19709
 Alpha  occ. eigenvalues --  -10.19698 -10.19523 -10.18706  -1.10217  -1.09762
 Alpha  occ. eigenvalues --   -1.02453  -1.01518  -0.99829  -0.97362  -0.96161
 Alpha  occ. eigenvalues --   -0.94552  -0.94399  -0.92543  -0.84434  -0.82893
 Alpha  occ. eigenvalues --   -0.81949  -0.80422  -0.80181  -0.79247  -0.78881
 Alpha  occ. eigenvalues --   -0.77258  -0.76262  -0.75862  -0.73220  -0.72743
 Alpha  occ. eigenvalues --   -0.72479  -0.71131  -0.69307  -0.68769  -0.68496
 Alpha  occ. eigenvalues --   -0.67437  -0.65549  -0.63921  -0.61237  -0.60708
 Alpha  occ. eigenvalues --   -0.59852  -0.59645  -0.59162  -0.58906  -0.56398
 Alpha  occ. eigenvalues --   -0.56134  -0.55359  -0.54530  -0.53778  -0.52661
 Alpha  occ. eigenvalues --   -0.51588  -0.51250  -0.50956  -0.50653  -0.50543
 Alpha  occ. eigenvalues --   -0.49292  -0.48567  -0.48072  -0.47675  -0.47580
 Alpha  occ. eigenvalues --   -0.47105  -0.46829  -0.46199  -0.45989  -0.45314
 Alpha  occ. eigenvalues --   -0.44788  -0.44571  -0.43942  -0.43860  -0.43638
 Alpha  occ. eigenvalues --   -0.43403  -0.43181  -0.42810  -0.42590  -0.42183
 Alpha  occ. eigenvalues --   -0.42145  -0.41887  -0.41464  -0.41322  -0.41265
 Alpha  occ. eigenvalues --   -0.40919  -0.40711  -0.40496  -0.39956  -0.39873
 Alpha  occ. eigenvalues --   -0.39429  -0.39320  -0.39121  -0.38855  -0.38508
 Alpha  occ. eigenvalues --   -0.38339  -0.38128  -0.37226  -0.36838  -0.36579
 Alpha  occ. eigenvalues --   -0.35987  -0.35782  -0.35022  -0.34913  -0.34764
 Alpha  occ. eigenvalues --   -0.34106  -0.33109  -0.32215  -0.31759  -0.31394
 Alpha  occ. eigenvalues --   -0.30428  -0.28672  -0.28048  -0.27776  -0.26816
 Alpha  occ. eigenvalues --   -0.26533  -0.26241  -0.26064  -0.25087  -0.24641
 Alpha  occ. eigenvalues --   -0.24443  -0.23775  -0.23503  -0.21986  -0.19622
 Alpha virt. eigenvalues --   -0.11022  -0.06521  -0.04831  -0.02240   0.00190
 Alpha virt. eigenvalues --    0.00577   0.00798   0.01378   0.02267   0.02576
 Alpha virt. eigenvalues --    0.03083   0.03391   0.03624   0.04523   0.04640

 Mulliken charges:
               1
     1  O   -0.238250
     2  O   -0.149388
     3  O   -0.336806
     4  O   -0.228433
     5  O   -0.227238
     6  O   -0.216864
     7  N   -0.118352
     8  N   -0.168830
     9  N   -0.171897
    10  N   -0.250815
    11  C    0.102564
    12  C    0.154752
    13  C   -0.002469
    14  C   -0.182852
    15  C   -0.052785
    16  C    0.020565
    17  C   -0.152589
    18  C    0.044359
    19  C   -0.074273
    20  C   -0.034176
    21  C    0.168478
    22  C    0.123904
    23  C   -0.124550
    24  C    0.044112
    25  C    0.063023
    26  C   -0.103168
    27  C   -0.021419
    28  C    0.106940
    29  C    0.151444
    30  C   -0.019341
    31  C    0.104347
    32  C    0.049789
    33  C   -0.114739
    34  C    0.114600
    35  C    0.136983
    36  C   -0.081783
    37  C    0.091491
    38  C    0.050216
    39  C   -0.242797
    40  C    0.121765
    41  C   -0.110144
    42  C    0.096438
    43  C   -0.090433
    44  H    0.005329
    45  H    0.003908
    46  H   -0.028957
    47  H    0.149706
    48  H    0.106488
    49  H    0.033935
    50  H    0.025875
    51  H   -0.034929
    52  H    0.026543
    53  H    0.057863
    54  H    0.065144
    55  H    0.030051
    56  H    0.050104
    57  H    0.029014
    58  H    0.078029
    59  H    0.024556
    60  H    0.195495
    61  H   -0.009019
    62  H    0.007352
    63  H    0.065485
    64  H    0.016596
    65  H   -0.008328
    66  H    0.001633
    67  H    0.050391
    68  H    0.057774
    69  H   -0.008690
    70  H    0.038817
    71  H    0.046546
    72  H    0.239690
    73  H    0.037256
    74  H    0.047703
    75  H   -0.000666
    76  H    0.021118
    77  H    0.236843
    78  H    0.057364
    79  H    0.052603
 Sum of Mulliken charges =   0.00000

 Dipole moment (field-independent basis, Debye):
    X=              1.1577    Y=              1.7681    Z=              3.1513  Tot=              3.7944
 Quadrupole moment (field-independent basis, Debye-Ang):
   XX=           -215.5341   YY=           -243.2488   ZZ=           -267.2986
   XY=            -16.0236   XZ=             25.8604   YZ=             -2.4722

 Normal termination of Gaussian 09 at Wed Jul 10 04:47:57 2019.
