 Gaussian 09, Revision D.01,
 Gaussian 09:  ES64L-G09RevD.01 24-Apr-2013

 --------------------------
 # td=(NStates=1) B3LYP/SVP
 --------------------------

 --
 TD
 --
 Symbolic Z-matrix:
 Charge =  0 Multiplicity = 1

                         Standard orientation:
 ---------------------------------------------------------------------
 Center     Atomic      Atomic             Coordinates (Angstroms)
 Number     Number       Type             X           Y           Z
 ---------------------------------------------------------------------
      1          8           0        5.427257   -0.240177   -3.366097
      2          8           0       -2.837204   -3.018115    3.196769
      3          8           0       -3.216206   -0.764933    3.304477
      4          8           0       -1.598543    7.094084    1.601651
      5          8           0       -1.065066    7.051020   -0.718924
      6          8           0       -1.692974   -3.987307   -0.155400
      7          7           0        2.332760    0.916052    0.343445
      8          7           0        4.512183   -0.626911   -1.314623
      9          7           0       -1.983224    0.573294   -0.382297
     10          7           0       -2.613440   -1.881485   -0.592996
     11          6           0        4.908200   -1.088488   -0.050863
     12          6           0        4.417697   -0.045430    1.062031
     13          6           0        2.962389    0.169667    1.241527
     14          6           0        2.153887   -0.496822    2.081873
     15          6           0        0.803064    0.047121    1.815367
     16          6           0        0.931562    0.950721    0.707548
     17          6           0        6.360594   -1.265852   -0.116237
     18          6           0       -0.424443   -0.177752    2.598710
     19          6           0        6.770699   -0.740684   -1.363302
     20          6           0        0.065940    1.878811    0.034469
     21          6           0       -1.283956    1.724135   -0.358238
     22          6           0        5.523465   -0.560195   -2.243628
     23          6           0       -2.060009    2.813608   -0.819683
     24          6           0        2.381481   -1.522616    3.170428
     25          6           0        7.225454   -1.729210    0.954479
     26          6           0       -3.278461    2.319236   -1.168424
     27          6           0       -0.996054   -1.577213    2.558658
     28          6           0       -3.237691    0.870130   -0.969824
     29          6           0       -1.555850    4.271001   -0.871834
     30          6           0        8.049974   -0.600526   -1.949221
     31          6           0       -1.988532    5.037779    0.350253
     32          6           0       -4.436665    2.867231   -1.879150
     33          6           0       -4.081877   -0.113778   -1.359368
     34          6           0       -2.464179   -1.695454    3.088833
     35          6           0       -3.699129   -1.422982   -1.114967
     36          6           0        9.230270   -0.875653   -1.246353
     37          6           0       -1.447625    6.490707    0.230432
     38          6           0       -4.628607   -2.702425   -1.445409
     39          6           0       -3.925736   -3.739309   -1.137257
     40          6           0       -2.625212   -3.306818   -0.645305
     41          6           0       -6.081692   -2.532920   -1.939908
     42          6           0       -4.128068   -5.247733   -0.990863
     43          6           0       -6.886781   -3.630732   -2.264353
     44          1           0        4.136968   -1.859599    0.307262
     45          1           0        5.074512    0.851029    0.996543
     46          1           0        5.054750   -0.510623    2.041122
     47          1           0        2.833924    1.344788   -0.387839
     48          1           0        3.390443   -0.623908   -1.351962
     49          1           0       -0.281242    0.008393    3.610733
     50          1           0       -1.231758    0.448561    2.372495
     51          1           0        0.413310    2.715017   -0.414358
     52          1           0        3.541530   -1.616126    3.413428
     53          1           0        1.712309   -1.306794    4.100930
     54          1           0        2.003415   -2.541953    3.095246
     55          1           0        6.613648   -2.151251    1.691225
     56          1           0        7.700458   -0.852673    1.652957
     57          1           0        7.986264   -2.438263    0.404462
     58          1           0       -1.022891   -2.072524    1.605418
     59          1           0       -0.261211   -2.113239    3.161045
     60          1           0       -1.805918   -0.494996   -0.125491
     61          1           0       -2.020419    4.765877   -1.609465
     62          1           0       -0.387350    4.536183   -1.169367
     63          1           0        8.190573   -0.242811   -3.014980
     64          1           0       -1.402405    4.602999    1.196789
     65          1           0       -3.167157    5.122818    0.455726
     66          1           0       -4.335697    4.077700   -2.178228
     67          1           0       -5.282455    2.725973   -1.220517
     68          1           0       -4.676113    2.303253   -2.873631
     69          1           0       -5.149111    0.174477   -1.683096
     70          1           0        9.458442   -1.042272   -0.204088
     71          1           0        9.989144   -0.789377   -1.934644
     72          1           0       -3.961566   -2.863672    3.416427
     73          1           0       -6.339735   -1.609079   -2.195322
     74          1           0       -4.028684   -5.685294   -1.916886
     75          1           0       -3.423970   -5.650385   -0.297916
     76          1           0       -5.056118   -5.432708   -0.419244
     77          1           0       -1.287802    7.977426    1.428965
     78          1           0       -7.716214   -3.352183   -2.846642
     79          1           0       -6.462607   -4.553318   -2.144134
 ---------------------------------------------------------------------

 SCF Done:  E(RB3LYP) =  -1947.82389736     A.U. after   16 cycles

 Excitation energies and oscillator strengths:

 Excited State   1:      Singlet-A      2.1589 eV  574.30 nm  f=0.5370  <S**2>=0.000
     155 ->156         0.70367
     155 <-156        -0.11750
 This state for optimization and/or second-order correction.
 Total Energy, E(TD-HF/TD-KS) =  -1947.74456027
 Copying the excited state density for this state as the 1-particle RhoCI density.

 The electronic state is 1-A.
 Alpha  occ. eigenvalues --  -19.18383 -19.16772 -19.16545 -19.12796 -19.11017
 Alpha  occ. eigenvalues --  -19.09858 -14.38399 -14.35515 -14.35144 -14.30075
 Alpha  occ. eigenvalues --  -10.33545 -10.31698 -10.28146 -10.27136 -10.24441
 Alpha  occ. eigenvalues --  -10.24166 -10.24018 -10.23806 -10.23710 -10.23175
 Alpha  occ. eigenvalues --  -10.22710 -10.22547 -10.22017 -10.21814 -10.21720
 Alpha  occ. eigenvalues --  -10.21505 -10.21339 -10.21230 -10.20974 -10.20872
 Alpha  occ. eigenvalues --  -10.20849 -10.20834 -10.20726 -10.20529 -10.20135
 Alpha  occ. eigenvalues --  -10.19681 -10.19621 -10.19514 -10.19328 -10.19195
 Alpha  occ. eigenvalues --  -10.18835 -10.18012 -10.17916  -1.10305  -1.07062
 Alpha  occ. eigenvalues --   -1.04426  -1.00759  -1.00526  -0.99278  -0.98564
 Alpha  occ. eigenvalues --   -0.97828  -0.95023  -0.92980  -0.83207  -0.82449
 Alpha  occ. eigenvalues --   -0.81959  -0.81706  -0.80680  -0.79670  -0.78482
 Alpha  occ. eigenvalues --   -0.77460  -0.77188  -0.75932  -0.74915  -0.72569
 Alpha  occ. eigenvalues --   -0.71044  -0.70858  -0.69906  -0.69057  -0.67374
 Alpha  occ. eigenvalues --   -0.66973  -0.65893  -0.63967  -0.62217  -0.60937
 Alpha  occ. eigenvalues --   -0.59667  -0.58127  -0.57563  -0.57125  -0.56988
 Alpha  occ. eigenvalues --   -0.55670  -0.55554  -0.55110  -0.54518  -0.53649
 Alpha  occ. eigenvalues --   -0.52423  -0.52195  -0.50616  -0.50562  -0.50028
 Alpha  occ. eigenvalues --   -0.49487  -0.49373  -0.48520  -0.47707  -0.47660
 Alpha  occ. eigenvalues --   -0.47359  -0.47070  -0.46817  -0.46321  -0.45915
 Alpha  occ. eigenvalues --   -0.45811  -0.45485  -0.45154  -0.44430  -0.44329
 Alpha  occ. eigenvalues --   -0.43761  -0.43230  -0.42963  -0.42898  -0.42564
 Alpha  occ. eigenvalues --   -0.42398  -0.42119  -0.41851  -0.41704  -0.41350
 Alpha  occ. eigenvalues --   -0.41074  -0.40980  -0.40783  -0.40285  -0.40113
 Alpha  occ. eigenvalues --   -0.39911  -0.39619  -0.39088  -0.38672  -0.38620
 Alpha  occ. eigenvalues --   -0.38451  -0.38052  -0.37866  -0.37418  -0.37094
 Alpha  occ. eigenvalues --   -0.36473  -0.36300  -0.35743  -0.35604  -0.34877
 Alpha  occ. eigenvalues --   -0.34433  -0.34039  -0.32859  -0.32813  -0.31684
 Alpha  occ. eigenvalues --   -0.31561  -0.31511  -0.30394  -0.28902  -0.27951
 Alpha  occ. eigenvalues --   -0.27346  -0.26147  -0.25752  -0.25686  -0.25203
 Alpha  occ. eigenvalues --   -0.25072  -0.24380  -0.23738  -0.22828  -0.19081
 Alpha virt. eigenvalues --   -0.10809  -0.06977  -0.06590  -0.01668  -0.01386
 Alpha virt. eigenvalues --    0.00465   0.00877   0.01340   0.01432   0.02494
 Alpha virt. eigenvalues --    0.02997   0.03794   0.04050   0.04250   0.04855

 Mulliken charges:
               1
     1  O   -0.167698
     2  O   -0.271970
     3  O   -0.236984
     4  O   -0.273310
     5  O   -0.148077
     6  O   -0.228292
     7  N   -0.063022
     8  N   -0.223568
     9  N   -0.137109
    10  N   -0.269544
    11  C    0.071818
    12  C    0.010583
    13  C   -0.038982
    14  C   -0.066340
    15  C   -0.089946
    16  C    0.130411
    17  C   -0.119599
    18  C    0.164455
    19  C   -0.066206
    20  C   -0.035930
    21  C    0.045741
    22  C    0.158275
    23  C   -0.052128
    24  C    0.036939
    25  C    0.051960
    26  C   -0.088123
    27  C   -0.033761
    28  C    0.105873
    29  C    0.092197
    30  C   -0.079965
    31  C   -0.024172
    32  C    0.020675
    33  C   -0.170811
    34  C    0.170422
    35  C    0.090856
    36  C    0.000673
    37  C    0.145881
    38  C    0.014376
    39  C   -0.243994
    40  C    0.175844
    41  C    0.010875
    42  C    0.173126
    43  C    0.075256
    44  H    0.015488
    45  H   -0.006247
    46  H    0.009294
    47  H    0.105963
    48  H    0.155014
    49  H   -0.021280
    50  H   -0.015829
    51  H   -0.074230
    52  H    0.025865
    53  H    0.020732
    54  H    0.036380
    55  H   -0.004056
    56  H    0.052496
    57  H    0.074606
    58  H    0.061305
    59  H    0.007054
    60  H    0.203472
    61  H   -0.039321
    62  H    0.053626
    63  H    0.035016
    64  H    0.049621
    65  H    0.081429
    66  H    0.040159
    67  H    0.027734
    68  H    0.054101
    69  H    0.013719
    70  H    0.030077
    71  H    0.001264
    72  H    0.238072
    73  H   -0.065099
    74  H    0.014545
    75  H    0.011849
    76  H    0.016596
    77  H    0.159651
    78  H    0.018792
    79  H   -0.004568
 Sum of Mulliken charges =   0.00000

 Dipole moment (field-independent basis, Debye):
    X=             -0.7940    Y=              2.0085    Z=              2.1225  Tot=              3.0281
 Quadrupole moment (field-independent basis, Debye-Ang):
   XX=           -218.2688   YY=           -252.1422   ZZ=           -266.0713
   XY=             -2.0737   XZ=             32.6178   YZ=             -3.6522

 Normal termination of Gaussian 09 at Mon Jul  8 07:12:19 2019.
