 Gaussian 09, Revision D.01,
 Gaussian 09:  ES64L-G09RevD.01 24-Apr-2013

 --------------------------
 # td=(NStates=1) B3LYP/SVP
 --------------------------

 --
 TD
 --
 Symbolic Z-matrix:
 Charge =  0 Multiplicity = 1

                         Standard orientation:
 ---------------------------------------------------------------------
 Center     Atomic      Atomic             Coordinates (Angstroms)
 Number     Number       Type             X           Y           Z
 ---------------------------------------------------------------------
      1          8           0        5.246787   -0.522622   -3.401445
      2          8           0       -2.873266   -3.003177    3.129267
      3          8           0       -3.133452   -0.763276    3.528645
      4          8           0       -1.754163    7.317632    1.294060
      5          8           0       -0.366049    6.922397   -0.436485
      6          8           0       -1.906140   -3.969773   -0.165228
      7          7           0        2.330032    0.919789    0.594169
      8          7           0        4.362471   -0.773069   -1.178392
      9          7           0       -1.868160    0.707137   -0.379844
     10          7           0       -2.701914   -1.829386   -0.614688
     11          6           0        4.924898   -1.242989    0.051054
     12          6           0        4.548971   -0.268584    1.232540
     13          6           0        3.038131    0.032121    1.337689
     14          6           0        2.045022   -0.578844    2.214187
     15          6           0        0.827881    0.139983    1.879371
     16          6           0        1.010735    0.900449    0.731684
     17          6           0        6.348387   -1.355316   -0.132407
     18          6           0       -0.591802   -0.226971    2.438122
     19          6           0        6.706334   -0.845365   -1.396536
     20          6           0        0.265729    1.930461    0.020524
     21          6           0       -1.072159    1.884543   -0.310987
     22          6           0        5.398941   -0.724805   -2.179252
     23          6           0       -1.929761    2.949198   -0.845571
     24          6           0        2.168247   -1.561292    3.274410
     25          6           0        7.097608   -1.817428    1.052534
     26          6           0       -3.127892    2.289742   -1.184990
     27          6           0       -1.016807   -1.683813    2.422073
     28          6           0       -3.038905    0.896053   -1.092122
     29          6           0       -1.448873    4.351604   -1.017395
     30          6           0        7.949347   -0.834184   -2.144748
     31          6           0       -1.764676    5.128337    0.257369
     32          6           0       -4.167032    3.108144   -1.865199
     33          6           0       -4.062311   -0.081853   -1.233730
     34          6           0       -2.449371   -1.677956    3.058963
     35          6           0       -3.827256   -1.387960   -1.067804
     36          6           0        9.224220   -0.923824   -1.599310
     37          6           0       -1.300202    6.500494    0.323223
     38          6           0       -4.766966   -2.526924   -1.451464
     39          6           0       -4.128914   -3.759808   -1.104540
     40          6           0       -2.798709   -3.212587   -0.540144
     41          6           0       -6.181723   -2.370772   -1.995209
     42          6           0       -4.501139   -5.109094   -1.073816
     43          6           0       -6.895533   -3.429430   -2.326001
     44          1           0        4.348908   -2.123324    0.245285
     45          1           0        4.988945    0.878066    1.131868
     46          1           0        4.855168   -0.758194    2.206952
     47          1           0        2.891758    1.687179    0.157357
     48          1           0        3.306513   -1.004100   -1.492939
     49          1           0       -0.729096    0.077672    3.547440
     50          1           0       -1.189449    0.454002    1.997470
     51          1           0        0.804758    2.957428   -0.072478
     52          1           0        3.355919   -1.578655    3.325838
     53          1           0        1.677709   -1.507550    4.248871
     54          1           0        2.026553   -2.664415    2.744920
     55          1           0        6.423825   -2.332051    1.811955
     56          1           0        7.598881   -0.810442    1.499057
     57          1           0        7.861258   -2.775024    0.999169
     58          1           0       -0.868089   -2.230912    1.389406
     59          1           0       -0.412894   -2.233082    2.955175
     60          1           0       -1.314271   -0.099814   -0.415736
     61          1           0       -1.970223    4.858874   -1.833873
     62          1           0       -0.316482    4.456994   -1.161373
     63          1           0        7.890063   -0.549849   -3.227967
     64          1           0       -1.254766    4.559167    1.130940
     65          1           0       -2.814350    5.168814    0.778810
     66          1           0       -3.707803    4.076518   -2.450276
     67          1           0       -5.165323    3.248405   -1.185578
     68          1           0       -4.426683    2.520873   -2.626496
     69          1           0       -5.014728    0.129732   -1.864312
     70          1           0        9.224940   -1.052096   -0.707362
     71          1           0       10.071267   -0.630814   -2.284548
     72          1           0       -3.676138   -3.037382    3.655849
     73          1           0       -6.792558   -1.494628   -2.054136
     74          1           0       -4.707921   -5.534003   -2.078627
     75          1           0       -3.604252   -5.685754   -0.630760
     76          1           0       -5.281507   -5.160719   -0.408000
     77          1           0       -1.224704    8.216875    1.093112
     78          1           0       -7.952200   -3.547027   -2.837858
     79          1           0       -6.376285   -4.449454   -2.521505
 ---------------------------------------------------------------------

 SCF Done:  E(RB3LYP) =  -1947.78027642     A.U. after   19 cycles

 Excitation energies and oscillator strengths:

 Excited State   1:      Singlet-A      2.1259 eV  583.22 nm  f=0.3792  <S**2>=0.000
     153 ->156         0.10036
     154 ->156         0.25116
     155 ->156         0.65081
     155 <-156        -0.10436
 This state for optimization and/or second-order correction.
 Total Energy, E(TD-HF/TD-KS) =  -1947.70215201
 Copying the excited state density for this state as the 1-particle RhoCI density.

 The electronic state is 1-A.
 Alpha  occ. eigenvalues --  -19.20037 -19.16150 -19.12440 -19.12373 -19.10568
 Alpha  occ. eigenvalues --  -19.10004 -14.38750 -14.36562 -14.35923 -14.28136
 Alpha  occ. eigenvalues --  -10.32857 -10.31591 -10.29290 -10.25947 -10.25543
 Alpha  occ. eigenvalues --  -10.24812 -10.24595 -10.24240 -10.23870 -10.23808
 Alpha  occ. eigenvalues --  -10.23473 -10.23089 -10.23088 -10.22837 -10.22559
 Alpha  occ. eigenvalues --  -10.22122 -10.21954 -10.21741 -10.21622 -10.21098
 Alpha  occ. eigenvalues --  -10.20905 -10.20790 -10.20657 -10.20071 -10.19694
 Alpha  occ. eigenvalues --  -10.19612 -10.19594 -10.19333 -10.19179 -10.18730
 Alpha  occ. eigenvalues --  -10.18620 -10.17985 -10.17957  -1.09224  -1.06604
 Alpha  occ. eigenvalues --   -1.00743  -1.00574  -1.00308  -0.98349  -0.98327
 Alpha  occ. eigenvalues --   -0.97909  -0.94035  -0.92406  -0.83602  -0.82133
 Alpha  occ. eigenvalues --   -0.81980  -0.80713  -0.80263  -0.79862  -0.78672
 Alpha  occ. eigenvalues --   -0.77801  -0.76575  -0.76034  -0.75097  -0.73226
 Alpha  occ. eigenvalues --   -0.71697  -0.71046  -0.69817  -0.69386  -0.68806
 Alpha  occ. eigenvalues --   -0.66506  -0.66093  -0.64259  -0.61631  -0.59375
 Alpha  occ. eigenvalues --   -0.58945  -0.58694  -0.57298  -0.56859  -0.56484
 Alpha  occ. eigenvalues --   -0.56062  -0.55732  -0.55249  -0.54203  -0.53689
 Alpha  occ. eigenvalues --   -0.52734  -0.51562  -0.51394  -0.51047  -0.49808
 Alpha  occ. eigenvalues --   -0.48717  -0.48536  -0.48388  -0.47802  -0.47389
 Alpha  occ. eigenvalues --   -0.46911  -0.46542  -0.46298  -0.45865  -0.45578
 Alpha  occ. eigenvalues --   -0.45428  -0.45187  -0.44788  -0.44465  -0.44181
 Alpha  occ. eigenvalues --   -0.43610  -0.43109  -0.42913  -0.42569  -0.42401
 Alpha  occ. eigenvalues --   -0.41918  -0.41588  -0.41405  -0.41285  -0.41149
 Alpha  occ. eigenvalues --   -0.40456  -0.40325  -0.39902  -0.39655  -0.39470
 Alpha  occ. eigenvalues --   -0.39321  -0.39169  -0.39105  -0.38759  -0.38487
 Alpha  occ. eigenvalues --   -0.38384  -0.37804  -0.37584  -0.37532  -0.36824
 Alpha  occ. eigenvalues --   -0.36267  -0.36019  -0.35517  -0.35134  -0.34270
 Alpha  occ. eigenvalues --   -0.33379  -0.32355  -0.31880  -0.31726  -0.31588
 Alpha  occ. eigenvalues --   -0.31189  -0.30758  -0.29208  -0.28019  -0.27539
 Alpha  occ. eigenvalues --   -0.26687  -0.26230  -0.26040  -0.25616  -0.24357
 Alpha  occ. eigenvalues --   -0.23828  -0.23551  -0.23310  -0.21851  -0.19671
 Alpha virt. eigenvalues --   -0.11328  -0.07378  -0.06117  -0.02416  -0.00889
 Alpha virt. eigenvalues --    0.00036   0.00302   0.00438   0.01838   0.02268
 Alpha virt. eigenvalues --    0.02718   0.03159   0.03443   0.03901   0.04665

 Mulliken charges:
               1
     1  O   -0.247728
     2  O   -0.205170
     3  O   -0.245104
     4  O   -0.213605
     5  O   -0.311672
     6  O   -0.217349
     7  N   -0.022843
     8  N   -0.284165
     9  N   -0.069526
    10  N   -0.216078
    11  C    0.151133
    12  C    0.111561
    13  C   -0.130508
    14  C   -0.133651
    15  C   -0.096618
    16  C    0.018938
    17  C   -0.118198
    18  C    0.104973
    19  C   -0.023035
    20  C   -0.086407
    21  C    0.056022
    22  C    0.180252
    23  C   -0.076542
    24  C    0.038452
    25  C   -0.023523
    26  C   -0.137839
    27  C    0.067255
    28  C    0.125340
    29  C    0.146955
    30  C   -0.085488
    31  C   -0.054257
    32  C    0.075375
    33  C   -0.120630
    34  C    0.173557
    35  C    0.062733
    36  C    0.124181
    37  C    0.157090
    38  C    0.022195
    39  C   -0.198375
    40  C    0.140938
    41  C    0.019250
    42  C    0.107253
    43  C   -0.110998
    44  H    0.001287
    45  H    0.023830
    46  H    0.017726
    47  H    0.130424
    48  H    0.176395
    49  H    0.002197
    50  H   -0.033957
    51  H    0.027595
    52  H   -0.004110
    53  H    0.053473
    54  H    0.045801
    55  H    0.031944
    56  H    0.077173
    57  H    0.066653
    58  H    0.082191
    59  H   -0.044617
    60  H    0.133347
    61  H    0.011371
    62  H    0.048466
    63  H    0.025874
    64  H    0.062308
    65  H    0.049702
    66  H    0.040811
    67  H    0.053154
    68  H   -0.016239
    69  H    0.006030
    70  H   -0.106795
    71  H    0.047502
    72  H    0.165898
    73  H   -0.012242
    74  H    0.046221
    75  H    0.033360
    76  H    0.017050
    77  H    0.230761
    78  H    0.037776
    79  H    0.017495
 Sum of Mulliken charges =   0.00000

 Dipole moment (field-independent basis, Debye):
    X=              1.1735    Y=              2.4924    Z=              3.1458  Tot=              4.1815
 Quadrupole moment (field-independent basis, Debye-Ang):
   XX=           -223.5157   YY=           -245.3740   ZZ=           -265.6416
   XY=             -8.3746   XZ=             35.0816   YZ=             -2.6794

 Normal termination of Gaussian 09 at Mon Jul  8 11:45:58 2019.
