 Gaussian 09, Revision D.01,
 Gaussian 09:  ES64L-G09RevD.01 24-Apr-2013

 --------------------------
 # td=(NStates=1) B3LYP/SVP
 --------------------------

 --
 TD
 --
 Symbolic Z-matrix:
 Charge =  0 Multiplicity = 1

                         Standard orientation:
 ---------------------------------------------------------------------
 Center     Atomic      Atomic             Coordinates (Angstroms)
 Number     Number       Type             X           Y           Z
 ---------------------------------------------------------------------
      1          8           0        5.429307   -0.366036   -3.317576
      2          8           0       -2.679834   -3.328298    3.236875
      3          8           0       -3.178377   -1.149337    3.172612
      4          8           0       -1.865378    7.314654    1.377575
      5          8           0       -0.196663    6.899162   -0.280409
      6          8           0       -2.015927   -3.991113   -0.250354
      7          7           0        2.367040    0.970985    0.544477
      8          7           0        4.510303   -0.619080   -1.275311
      9          7           0       -1.948592    0.657512   -0.383597
     10          7           0       -2.788742   -1.796330   -0.608317
     11          6           0        4.893750   -1.147949    0.035799
     12          6           0        4.469542   -0.257503    1.110149
     13          6           0        2.992084   -0.010956    1.274103
     14          6           0        2.008566   -0.706526    2.039417
     15          6           0        0.822255   -0.183533    1.711004
     16          6           0        1.097262    0.880548    0.770183
     17          6           0        6.478687   -1.294481   -0.112452
     18          6           0       -0.494488   -0.398760    2.382053
     19          6           0        6.807816   -0.895325   -1.325112
     20          6           0        0.148226    1.812606    0.147519
     21          6           0       -1.188199    1.796241   -0.208620
     22          6           0        5.500343   -0.597363   -2.177001
     23          6           0       -1.952443    2.949297   -0.736350
     24          6           0        2.402740   -1.754684    3.058748
     25          6           0        7.272195   -1.628416    1.067558
     26          6           0       -3.237504    2.393504   -1.109822
     27          6           0       -0.963274   -1.809725    2.392315
     28          6           0       -3.204843    0.972191   -0.883361
     29          6           0       -1.401061    4.327943   -0.837627
     30          6           0        7.958450   -0.724467   -2.091251
     31          6           0       -1.715483    5.013896    0.438849
     32          6           0       -4.355182    3.256559   -1.625300
     33          6           0       -4.091406    0.098544   -1.324528
     34          6           0       -2.396213   -2.009764    3.059009
     35          6           0       -3.909320   -1.304816   -1.013758
     36          6           0        9.331181   -0.860132   -1.694092
     37          6           0       -1.194752    6.479885    0.453581
     38          6           0       -4.844850   -2.427185   -1.444450
     39          6           0       -4.226735   -3.593227   -1.174281
     40          6           0       -2.773447   -3.173301   -0.705876
     41          6           0       -6.311517   -2.182897   -1.813186
     42          6           0       -4.646473   -5.015276   -1.275981
     43          6           0       -7.028358   -2.974330   -2.478090
     44          1           0        4.563200   -2.272806    0.137607
     45          1           0        5.067566    0.827018    1.071385
     46          1           0        4.828381   -0.646188    2.010760
     47          1           0        2.989826    1.519308    0.029222
     48          1           0        3.518151   -0.769908   -1.651627
     49          1           0       -0.347283   -0.155101    3.440262
     50          1           0       -1.319411    0.320438    2.003082
     51          1           0        0.611650    2.869452   -0.197498
     52          1           0        3.413489   -1.749287    3.197314
     53          1           0        1.817112   -2.013013    4.089168
     54          1           0        2.255705   -2.653539    2.463918
     55          1           0        6.847691   -2.408710    1.649413
     56          1           0        7.564026   -0.725169    1.652395
     57          1           0        8.171216   -2.166282    0.918860
     58          1           0       -1.104310   -1.927298    1.388458
     59          1           0       -0.282046   -2.576733    2.785279
     60          1           0       -1.832078   -0.362709   -0.061254
     61          1           0       -2.000504    4.913081   -1.541361
     62          1           0       -0.448957    4.136181   -0.995987
     63          1           0        7.745481   -0.378257   -3.223585
     64          1           0       -1.287237    4.451681    1.176845
     65          1           0       -2.679574    5.079595    0.716617
     66          1           0       -3.922687    4.162480   -2.257855
     67          1           0       -5.145018    3.646157   -0.714801
     68          1           0       -4.992306    2.377578   -2.364789
     69          1           0       -5.080635    0.313423   -1.644487
     70          1           0        9.613175   -1.071748   -0.478036
     71          1           0       10.051515   -0.878544   -2.512729
     72          1           0       -3.585688   -3.256670    3.475017
     73          1           0       -6.916809   -1.217735   -1.431063
     74          1           0       -4.862071   -5.426623   -2.255022
     75          1           0       -3.853996   -5.683379   -0.641008
     76          1           0       -5.755421   -5.098221   -1.029591
     77          1           0       -1.282856    7.985197    1.410502
     78          1           0       -8.061022   -2.749836   -2.720107
     79          1           0       -6.708665   -4.121300   -2.800755
 ---------------------------------------------------------------------

 SCF Done:  E(RB3LYP) =  -1947.79062930     A.U. after   16 cycles

 Excitation energies and oscillator strengths:

 Excited State   1:      Singlet-A      2.1725 eV  570.69 nm  f=0.5456  <S**2>=0.000
     155 ->156         0.70801
     155 <-156        -0.12364
 This state for optimization and/or second-order correction.
 Total Energy, E(TD-HF/TD-KS) =  -1947.71079088
 Copying the excited state density for this state as the 1-particle RhoCI density.

 The electronic state is 1-A.
 Alpha  occ. eigenvalues --  -19.19514 -19.17160 -19.14469 -19.12589 -19.11284
 Alpha  occ. eigenvalues --  -19.11000 -14.39512 -14.35984 -14.35596 -14.29376
 Alpha  occ. eigenvalues --  -10.34446 -10.31023 -10.28294 -10.27220 -10.25793
 Alpha  occ. eigenvalues --  -10.24180 -10.23973 -10.23688 -10.23668 -10.23516
 Alpha  occ. eigenvalues --  -10.22989 -10.22711 -10.22511 -10.21882 -10.21746
 Alpha  occ. eigenvalues --  -10.21494 -10.20900 -10.20837 -10.20751 -10.20441
 Alpha  occ. eigenvalues --  -10.20339 -10.20259 -10.20233 -10.19755 -10.19628
 Alpha  occ. eigenvalues --  -10.19596 -10.19548 -10.19323 -10.19207 -10.19174
 Alpha  occ. eigenvalues --  -10.19022 -10.18195 -10.18110  -1.10436  -1.09677
 Alpha  occ. eigenvalues --   -1.05864  -1.02700  -1.01952  -1.01791  -0.98567
 Alpha  occ. eigenvalues --   -0.97137  -0.94929  -0.93335  -0.84440  -0.83316
 Alpha  occ. eigenvalues --   -0.82696  -0.81714  -0.80476  -0.80207  -0.78016
 Alpha  occ. eigenvalues --   -0.77809  -0.76656  -0.75602  -0.75024  -0.73054
 Alpha  occ. eigenvalues --   -0.71558  -0.70940  -0.69717  -0.68855  -0.67536
 Alpha  occ. eigenvalues --   -0.67261  -0.65798  -0.64165  -0.61177  -0.61159
 Alpha  occ. eigenvalues --   -0.60670  -0.59646  -0.58504  -0.57666  -0.57604
 Alpha  occ. eigenvalues --   -0.56350  -0.55877  -0.55274  -0.53659  -0.52799
 Alpha  occ. eigenvalues --   -0.52115  -0.51774  -0.51580  -0.50825  -0.50026
 Alpha  occ. eigenvalues --   -0.49240  -0.49176  -0.48710  -0.48240  -0.48086
 Alpha  occ. eigenvalues --   -0.47548  -0.47211  -0.46353  -0.46077  -0.45841
 Alpha  occ. eigenvalues --   -0.45279  -0.45111  -0.44866  -0.44476  -0.44139
 Alpha  occ. eigenvalues --   -0.43819  -0.43605  -0.43424  -0.43129  -0.43038
 Alpha  occ. eigenvalues --   -0.42695  -0.42555  -0.42260  -0.41854  -0.41752
 Alpha  occ. eigenvalues --   -0.41528  -0.40878  -0.40644  -0.40375  -0.39965
 Alpha  occ. eigenvalues --   -0.39687  -0.39342  -0.39237  -0.38788  -0.38712
 Alpha  occ. eigenvalues --   -0.38315  -0.37687  -0.37365  -0.37253  -0.36672
 Alpha  occ. eigenvalues --   -0.36474  -0.35708  -0.35238  -0.34844  -0.34517
 Alpha  occ. eigenvalues --   -0.33826  -0.33426  -0.33199  -0.32695  -0.32605
 Alpha  occ. eigenvalues --   -0.32471  -0.31014  -0.29413  -0.28978  -0.27958
 Alpha  occ. eigenvalues --   -0.27715  -0.27610  -0.26389  -0.26002  -0.24789
 Alpha  occ. eigenvalues --   -0.24265  -0.23809  -0.23244  -0.23081  -0.18503
 Alpha virt. eigenvalues --   -0.10332  -0.06330  -0.05664  -0.03896   0.00412
 Alpha virt. eigenvalues --    0.01055   0.01651   0.01895   0.02500   0.02944
 Alpha virt. eigenvalues --    0.03676   0.04204   0.04314   0.04460   0.05334

 Mulliken charges:
               1
     1  O   -0.159961
     2  O   -0.154954
     3  O   -0.185463
     4  O   -0.153050
     5  O   -0.299189
     6  O   -0.186412
     7  N    0.072594
     8  N   -0.197891
     9  N   -0.133121
    10  N   -0.262286
    11  C    0.074876
    12  C    0.172002
    13  C   -0.167049
    14  C   -0.099334
    15  C   -0.102852
    16  C    0.031461
    17  C   -0.194059
    18  C    0.057010
    19  C   -0.025473
    20  C   -0.115070
    21  C    0.081839
    22  C    0.106478
    23  C   -0.175498
    24  C    0.134293
    25  C    0.128493
    26  C   -0.097234
    27  C    0.028262
    28  C    0.198523
    29  C    0.273586
    30  C   -0.092367
    31  C    0.103794
    32  C   -0.083492
    33  C   -0.098432
    34  C    0.109671
    35  C    0.018156
    36  C   -0.069889
    37  C    0.179503
    38  C    0.025236
    39  C   -0.188417
    40  C    0.162264
    41  C   -0.021727
    42  C    0.040765
    43  C   -0.081612
    44  H    0.039157
    45  H    0.020180
    46  H   -0.026654
    47  H    0.102838
    48  H    0.150535
    49  H   -0.004141
    50  H    0.034380
    51  H    0.010339
    52  H   -0.041938
    53  H    0.053603
    54  H    0.020408
    55  H   -0.005819
    56  H    0.047173
    57  H    0.000199
    58  H    0.015182
    59  H    0.019817
    60  H    0.183335
    61  H   -0.001367
    62  H   -0.032003
    63  H    0.055347
    64  H    0.005955
    65  H   -0.011133
    66  H    0.060039
    67  H    0.071443
    68  H    0.053029
    69  H   -0.034685
    70  H    0.053470
    71  H    0.037513
    72  H    0.146863
    73  H    0.033810
    74  H    0.022347
    75  H    0.068230
    76  H    0.011553
    77  H    0.137460
    78  H    0.015835
    79  H    0.033729
 Sum of Mulliken charges =   0.00000

 Dipole moment (field-independent basis, Debye):
    X=              0.8890    Y=              1.5446    Z=              4.1139  Tot=              4.4833
 Quadrupole moment (field-independent basis, Debye-Ang):
   XX=           -223.8822   YY=           -254.3337   ZZ=           -263.1183
   XY=            -10.7118   XZ=             29.8111   YZ=              2.0607

 Normal termination of Gaussian 09 at Tue Jul  9 11:28:08 2019.
