 Gaussian 09, Revision D.01,
 Gaussian 09:  ES64L-G09RevD.01 24-Apr-2013

 --------------------------
 # td=(NStates=1) B3LYP/SVP
 --------------------------

 --
 TD
 --
 Symbolic Z-matrix:
 Charge =  0 Multiplicity = 1

                         Standard orientation:
 ---------------------------------------------------------------------
 Center     Atomic      Atomic             Coordinates (Angstroms)
 Number     Number       Type             X           Y           Z
 ---------------------------------------------------------------------
      1          8           0        5.429790   -0.304821   -3.327537
      2          8           0       -2.708064   -2.965182    3.199750
      3          8           0       -3.220975   -0.860761    3.048220
      4          8           0       -1.927438    7.066309    1.327131
      5          8           0       -1.012466    6.983605   -0.620479
      6          8           0       -1.583751   -4.049778   -0.080438
      7          7           0        2.369858    1.092712    0.576437
      8          7           0        4.445047   -0.632393   -1.258389
      9          7           0       -1.994765    0.613534   -0.276700
     10          7           0       -2.534889   -1.922099   -0.447071
     11          6           0        4.946762   -0.931489    0.166549
     12          6           0        4.514068    0.110871    1.262187
     13          6           0        3.031793    0.171596    1.302317
     14          6           0        2.077487   -0.419300    2.038858
     15          6           0        0.774469    0.171026    1.737330
     16          6           0        1.060111    1.098985    0.685778
     17          6           0        6.356460   -1.031200   -0.049915
     18          6           0       -0.476422   -0.118503    2.470011
     19          6           0        6.743877   -0.808506   -1.379340
     20          6           0        0.115921    2.073584    0.056423
     21          6           0       -1.198683    1.772946   -0.363442
     22          6           0        5.425485   -0.556667   -2.095993
     23          6           0       -2.097696    2.846935   -1.039133
     24          6           0        2.212915   -1.430590    3.199504
     25          6           0        7.277322   -1.546067    1.002093
     26          6           0       -3.256567    2.244735   -1.324782
     27          6           0       -1.014351   -1.596611    2.508498
     28          6           0       -3.188712    0.782663   -0.857268
     29          6           0       -1.784687    4.250900   -1.031455
     30          6           0        8.000207   -0.851114   -2.035868
     31          6           0       -2.009461    5.029496    0.244866
     32          6           0       -4.621721    2.709275   -1.818876
     33          6           0       -3.996767   -0.266453   -1.184234
     34          6           0       -2.420258   -1.722289    2.986879
     35          6           0       -3.756010   -1.568249   -0.907667
     36          6           0        9.250137   -0.776665   -1.571794
     37          6           0       -1.629550    6.423721    0.198957
     38          6           0       -4.496823   -2.779898   -1.348883
     39          6           0       -3.768445   -3.925589   -1.011418
     40          6           0       -2.508789   -3.312359   -0.469697
     41          6           0       -5.888432   -2.655108   -1.916288
     42          6           0       -4.134667   -5.340597   -1.084675
     43          6           0       -6.736249   -3.613460   -2.360549
     44          1           0        4.503184   -1.982107    0.477431
     45          1           0        4.986215    0.924497    1.200718
     46          1           0        4.917737   -0.189820    2.244314
     47          1           0        2.768645    1.637324   -0.123227
     48          1           0        3.435698   -0.447033   -1.852694
     49          1           0       -0.339222    0.052621    3.493229
     50          1           0       -1.489847    0.561147    2.096299
     51          1           0        0.661899    2.969574   -0.343129
     52          1           0        3.310169   -1.502331    3.526399
     53          1           0        1.602321   -1.133348    4.203262
     54          1           0        1.817270   -2.480284    2.855617
     55          1           0        6.767197   -2.178080    1.772537
     56          1           0        7.592917   -0.643573    1.458085
     57          1           0        8.243211   -2.150840    0.691207
     58          1           0       -1.075597   -1.885412    1.494074
     59          1           0       -0.278801   -2.197314    3.196460
     60          1           0       -1.647997   -0.428689   -0.236617
     61          1           0       -2.542519    4.721312   -1.749288
     62          1           0       -0.781628    4.505723   -1.185254
     63          1           0        7.925340   -0.814166   -3.182426
     64          1           0       -1.481849    4.452143    0.994528
     65          1           0       -3.008347    5.015924    0.584311
     66          1           0       -4.535176    3.745045   -2.323491
     67          1           0       -5.373298    2.560659   -1.015396
     68          1           0       -4.957939    2.152567   -2.623871
     69          1           0       -4.864512    0.137997   -1.698367
     70          1           0        9.644272   -0.661157   -0.459291
     71          1           0       10.013369   -1.131709   -2.238749
     72          1           0       -3.718330   -2.805090    3.310021
     73          1           0       -6.394700   -1.549821   -2.119784
     74          1           0       -4.376200   -5.556798   -2.108510
     75          1           0       -3.348284   -6.086013   -0.699838
     76          1           0       -4.964525   -5.395515   -0.404734
     77          1           0       -1.546159    7.954759    1.263707
     78          1           0       -7.644353   -3.332129   -2.784237
     79          1           0       -6.450031   -4.473433   -2.300263
 ---------------------------------------------------------------------

 SCF Done:  E(RB3LYP) =  -1947.83748218     A.U. after   18 cycles

 Excitation energies and oscillator strengths:

 Excited State   1:      Singlet-A      2.1519 eV  576.17 nm  f=0.3447  <S**2>=0.000
     152 ->156        -0.11900
     155 ->156         0.68909
 This state for optimization and/or second-order correction.
 Total Energy, E(TD-HF/TD-KS) =  -1947.75840186
 Copying the excited state density for this state as the 1-particle RhoCI density.

 The electronic state is 1-A.
 Alpha  occ. eigenvalues --  -19.17989 -19.17608 -19.13001 -19.11125 -19.10089
 Alpha  occ. eigenvalues --  -19.07922 -14.38194 -14.37313 -14.37020 -14.29964
 Alpha  occ. eigenvalues --  -10.31896 -10.29738 -10.27048 -10.26875 -10.26632
 Alpha  occ. eigenvalues --  -10.25959 -10.25139 -10.23853 -10.23533 -10.22942
 Alpha  occ. eigenvalues --  -10.22528 -10.21946 -10.21876 -10.21698 -10.21692
 Alpha  occ. eigenvalues --  -10.21617 -10.21505 -10.21215 -10.21152 -10.21000
 Alpha  occ. eigenvalues --  -10.20770 -10.20620 -10.20495 -10.19791 -10.19764
 Alpha  occ. eigenvalues --  -10.19616 -10.19480 -10.19081 -10.18910 -10.18874
 Alpha  occ. eigenvalues --  -10.18809 -10.18271 -10.17509  -1.12252  -1.11468
 Alpha  occ. eigenvalues --   -1.02120  -1.01388  -1.00585  -1.00402  -1.00202
 Alpha  occ. eigenvalues --   -0.98310  -0.92964  -0.92433  -0.84637  -0.83024
 Alpha  occ. eigenvalues --   -0.81668  -0.81041  -0.80692  -0.80224  -0.79463
 Alpha  occ. eigenvalues --   -0.77714  -0.76514  -0.75992  -0.75560  -0.73476
 Alpha  occ. eigenvalues --   -0.71295  -0.70801  -0.70615  -0.69195  -0.69069
 Alpha  occ. eigenvalues --   -0.67597  -0.67142  -0.65564  -0.61304  -0.61074
 Alpha  occ. eigenvalues --   -0.60226  -0.59420  -0.57941  -0.57176  -0.56191
 Alpha  occ. eigenvalues --   -0.56162  -0.55794  -0.54622  -0.53970  -0.53670
 Alpha  occ. eigenvalues --   -0.53018  -0.52264  -0.51912  -0.51439  -0.50342
 Alpha  occ. eigenvalues --   -0.49364  -0.48956  -0.48680  -0.48423  -0.48207
 Alpha  occ. eigenvalues --   -0.47779  -0.47656  -0.47137  -0.46700  -0.46518
 Alpha  occ. eigenvalues --   -0.46099  -0.45636  -0.45302  -0.44603  -0.44061
 Alpha  occ. eigenvalues --   -0.43876  -0.43526  -0.43465  -0.43072  -0.42857
 Alpha  occ. eigenvalues --   -0.42722  -0.41976  -0.41773  -0.41525  -0.41478
 Alpha  occ. eigenvalues --   -0.41073  -0.40698  -0.40180  -0.40032  -0.39883
 Alpha  occ. eigenvalues --   -0.39798  -0.38992  -0.38804  -0.38750  -0.38644
 Alpha  occ. eigenvalues --   -0.38228  -0.38150  -0.38075  -0.37255  -0.37068
 Alpha  occ. eigenvalues --   -0.36668  -0.35944  -0.35259  -0.35065  -0.34607
 Alpha  occ. eigenvalues --   -0.34190  -0.33958  -0.33324  -0.31706  -0.31408
 Alpha  occ. eigenvalues --   -0.31238  -0.31031  -0.29186  -0.28950  -0.28327
 Alpha  occ. eigenvalues --   -0.27207  -0.26987  -0.25787  -0.24630  -0.24136
 Alpha  occ. eigenvalues --   -0.23920  -0.23686  -0.22842  -0.22640  -0.19884
 Alpha virt. eigenvalues --   -0.11198  -0.06337  -0.05959  -0.00938   0.00325
 Alpha virt. eigenvalues --    0.01065   0.01758   0.01875   0.03051   0.03257
 Alpha virt. eigenvalues --    0.03318   0.04288   0.04708   0.04859   0.05307

 Mulliken charges:
               1
     1  O   -0.293137
     2  O   -0.150046
     3  O   -0.222889
     4  O   -0.172078
     5  O   -0.187732
     6  O   -0.230089
     7  N    0.051618
     8  N   -0.227835
     9  N   -0.100085
    10  N   -0.316808
    11  C    0.098159
    12  C    0.313187
    13  C   -0.105378
    14  C   -0.110215
    15  C   -0.042997
    16  C   -0.069113
    17  C   -0.194200
    18  C   -0.006231
    19  C    0.013320
    20  C   -0.064330
    21  C    0.106866
    22  C    0.094271
    23  C   -0.076909
    24  C   -0.010087
    25  C    0.067513
    26  C   -0.124262
    27  C   -0.002054
    28  C    0.029239
    29  C    0.117178
    30  C   -0.043560
    31  C    0.023614
    32  C    0.122131
    33  C   -0.080983
    34  C    0.087959
    35  C    0.169128
    36  C   -0.065026
    37  C    0.091398
    38  C    0.038396
    39  C   -0.180461
    40  C    0.148188
    41  C   -0.118337
    42  C    0.110233
    43  C    0.137083
    44  H    0.058141
    45  H   -0.095404
    46  H   -0.000037
    47  H    0.081375
    48  H    0.197376
    49  H   -0.019140
    50  H    0.060912
    51  H    0.009413
    52  H    0.008259
    53  H    0.043791
    54  H    0.067330
    55  H    0.020436
    56  H    0.020926
    57  H    0.057854
    58  H    0.050110
    59  H    0.037305
    60  H    0.202768
    61  H    0.019107
    62  H   -0.008932
    63  H    0.039089
    64  H    0.035940
    65  H    0.010398
    66  H    0.022336
    67  H    0.046679
    68  H    0.007723
    69  H   -0.043837
    70  H    0.031759
    71  H    0.022382
    72  H    0.180048
    73  H    0.022305
    74  H    0.041302
    75  H    0.042246
    76  H    0.030818
    77  H    0.176254
    78  H    0.008518
    79  H   -0.110188
 Sum of Mulliken charges =   0.00000

 Dipole moment (field-independent basis, Debye):
    X=             -1.4564    Y=              2.7512    Z=              3.4228  Tot=              4.6267
 Quadrupole moment (field-independent basis, Debye-Ang):
   XX=           -222.8823   YY=           -248.0307   ZZ=           -266.8310
   XY=             -2.8243   XZ=             40.0399   YZ=              3.8025

 Normal termination of Gaussian 09 at Tue Jul  9 22:24:38 2019.
