 Gaussian 09, Revision D.01,
 Gaussian 09:  ES64L-G09RevD.01 24-Apr-2013

 --------------------------
 # td=(NStates=1) B3LYP/SVP
 --------------------------

 --
 TD
 --
 Symbolic Z-matrix:
 Charge =  0 Multiplicity = 1

                         Standard orientation:
 ---------------------------------------------------------------------
 Center     Atomic      Atomic             Coordinates (Angstroms)
 Number     Number       Type             X           Y           Z
 ---------------------------------------------------------------------
      1          8           0        5.543140   -0.258286   -3.320279
      2          8           0       -2.892833   -3.111081    3.170847
      3          8           0       -3.259132   -0.832202    3.357451
      4          8           0       -1.562140    7.238155    1.492760
      5          8           0       -0.713566    6.944455   -0.575857
      6          8           0       -1.910895   -4.088667   -0.254067
      7          7           0        2.389081    0.887241    0.546913
      8          7           0        4.432271   -0.706639   -1.304383
      9          7           0       -1.870547    0.612473   -0.332270
     10          7           0       -2.713842   -1.883526   -0.474663
     11          6           0        4.875136   -1.198020   -0.012397
     12          6           0        4.522626   -0.196835    1.187048
     13          6           0        3.069310   -0.064014    1.308091
     14          6           0        2.034772   -0.604481    2.106397
     15          6           0        0.824399   -0.091009    1.676976
     16          6           0        1.029496    0.833065    0.682658
     17          6           0        6.344588   -1.429204   -0.205142
     18          6           0       -0.504677   -0.314706    2.424752
     19          6           0        6.792288   -1.010584   -1.366036
     20          6           0        0.261819    1.879497    0.013935
     21          6           0       -1.135045    1.694017   -0.316411
     22          6           0        5.535348   -0.532148   -2.159160
     23          6           0       -1.963960    2.908871   -0.759799
     24          6           0        2.265227   -1.692076    3.215541
     25          6           0        7.170399   -1.982681    0.871443
     26          6           0       -3.127516    2.307835   -1.167038
     27          6           0       -1.160813   -1.742533    2.497014
     28          6           0       -3.079964    0.921526   -0.940810
     29          6           0       -1.506334    4.348518   -0.950492
     30          6           0        8.097518   -0.773600   -2.032576
     31          6           0       -1.559475    5.141294    0.487118
     32          6           0       -4.312331    3.006358   -1.735940
     33          6           0       -4.067756   -0.005336   -1.176144
     34          6           0       -2.467941   -1.738646    3.065791
     35          6           0       -3.806951   -1.368245   -1.001245
     36          6           0        9.343989   -0.695101   -1.368193
     37          6           0       -1.247036    6.483199    0.432118
     38          6           0       -4.857677   -2.493890   -1.354285
     39          6           0       -4.190179   -3.589591   -1.038399
     40          6           0       -2.794313   -3.362510   -0.477692
     41          6           0       -6.126161   -2.167834   -1.866260
     42          6           0       -4.718000   -4.954406   -1.338897
     43          6           0       -6.963668   -2.962658   -2.674357
     44          1           0        4.317651   -2.156986    0.245822
     45          1           0        4.898964    0.734038    0.975858
     46          1           0        4.729312   -0.542187    2.242349
     47          1           0        2.726674    1.346355   -0.572516
     48          1           0        3.395482   -0.462105   -1.577181
     49          1           0       -0.370668   -0.079809    3.538137
     50          1           0       -1.247195    0.548111    2.321516
     51          1           0        0.597100    2.768307   -0.263538
     52          1           0        3.466642   -1.898235    3.225865
     53          1           0        1.810871   -1.280315    4.084543
     54          1           0        1.757277   -2.648503    2.944355
     55          1           0        6.542014   -2.264688    1.688676
     56          1           0        7.526063   -1.011569    1.335652
     57          1           0        7.785813   -2.682447    0.733419
     58          1           0       -1.315200   -2.185891    1.492606
     59          1           0       -0.474734   -2.464396    3.141416
     60          1           0       -1.654041   -0.513293   -0.244327
     61          1           0       -2.164435    4.998332   -1.753496
     62          1           0       -0.362305    4.451138   -1.400501
     63          1           0        7.873758   -0.424685   -3.067907
     64          1           0       -0.983175    4.580784    1.217703
     65          1           0       -2.545705    4.843173    0.725701
     66          1           0       -4.020935    4.062933   -1.854879
     67          1           0       -5.023634    3.094295   -0.906898
     68          1           0       -4.610894    2.554775   -2.716929
     69          1           0       -4.882775    0.433793   -1.842433
     70          1           0        9.516873   -1.099941   -0.371201
     71          1           0       10.292628   -0.235986   -2.025676
     72          1           0       -3.896040   -3.040761    3.654040
     73          1           0       -6.426602   -1.203123   -2.113475
     74          1           0       -4.899848   -5.439391   -2.431547
     75          1           0       -4.013840   -5.678237   -0.813850
     76          1           0       -5.622528   -5.320268   -1.064186
     77          1           0       -0.946244    8.063000    1.474766
     78          1           0       -7.812658   -2.706112   -3.422254
     79          1           0       -6.721695   -3.970374   -2.781286
 ---------------------------------------------------------------------

 SCF Done:  E(RB3LYP) =  -1947.78432485     A.U. after   16 cycles

 Excitation energies and oscillator strengths:

 Excited State   1:      Singlet-A      2.0492 eV  605.05 nm  f=0.5145  <S**2>=0.000
     155 ->156         0.70338
     155 <-156        -0.11877
 This state for optimization and/or second-order correction.
 Total Energy, E(TD-HF/TD-KS) =  -1947.70901983
 Copying the excited state density for this state as the 1-particle RhoCI density.

 The electronic state is 1-A.
 Alpha  occ. eigenvalues --  -19.19437 -19.16255 -19.12724 -19.12506 -19.12425
 Alpha  occ. eigenvalues --  -19.10728 -14.38941 -14.36378 -14.36345 -14.30283
 Alpha  occ. eigenvalues --  -10.32173 -10.31148 -10.28790 -10.28452 -10.25685
 Alpha  occ. eigenvalues --  -10.24528 -10.24083 -10.23836 -10.23673 -10.23019
 Alpha  occ. eigenvalues --  -10.22502 -10.21782 -10.21623 -10.21621 -10.21236
 Alpha  occ. eigenvalues --  -10.21190 -10.21046 -10.21005 -10.20986 -10.20899
 Alpha  occ. eigenvalues --  -10.20735 -10.20469 -10.20365 -10.20322 -10.20193
 Alpha  occ. eigenvalues --  -10.20142 -10.19756 -10.19554 -10.19540 -10.19192
 Alpha  occ. eigenvalues --  -10.19122 -10.19102 -10.18675  -1.09962  -1.05752
 Alpha  occ. eigenvalues --   -1.04687  -1.03748  -1.00240  -0.99063  -0.98045
 Alpha  occ. eigenvalues --   -0.96252  -0.93938  -0.92054  -0.82526  -0.82447
 Alpha  occ. eigenvalues --   -0.81739  -0.81057  -0.80340  -0.80191  -0.78534
 Alpha  occ. eigenvalues --   -0.76990  -0.76347  -0.75639  -0.74557  -0.72250
 Alpha  occ. eigenvalues --   -0.71476  -0.70930  -0.69482  -0.68826  -0.68176
 Alpha  occ. eigenvalues --   -0.66485  -0.65866  -0.64129  -0.61459  -0.60619
 Alpha  occ. eigenvalues --   -0.60499  -0.59173  -0.58045  -0.56488  -0.56261
 Alpha  occ. eigenvalues --   -0.55670  -0.54675  -0.54062  -0.53533  -0.53473
 Alpha  occ. eigenvalues --   -0.52956  -0.52764  -0.51155  -0.50422  -0.49749
 Alpha  occ. eigenvalues --   -0.49046  -0.48781  -0.48162  -0.48060  -0.47693
 Alpha  occ. eigenvalues --   -0.47436  -0.47068  -0.46582  -0.46037  -0.45859
 Alpha  occ. eigenvalues --   -0.45661  -0.45422  -0.45220  -0.44369  -0.44139
 Alpha  occ. eigenvalues --   -0.43751  -0.43501  -0.43356  -0.42977  -0.42785
 Alpha  occ. eigenvalues --   -0.42650  -0.42276  -0.41501  -0.41444  -0.41104
 Alpha  occ. eigenvalues --   -0.40703  -0.39810  -0.39673  -0.39399  -0.39161
 Alpha  occ. eigenvalues --   -0.38967  -0.38807  -0.38505  -0.38176  -0.38101
 Alpha  occ. eigenvalues --   -0.37823  -0.37770  -0.37205  -0.37035  -0.36659
 Alpha  occ. eigenvalues --   -0.36615  -0.36423  -0.36039  -0.35615  -0.35081
 Alpha  occ. eigenvalues --   -0.34455  -0.33819  -0.32622  -0.32378  -0.31369
 Alpha  occ. eigenvalues --   -0.31028  -0.30181  -0.29135  -0.28879  -0.28205
 Alpha  occ. eigenvalues --   -0.27250  -0.26747  -0.26222  -0.25948  -0.25313
 Alpha  occ. eigenvalues --   -0.25051  -0.24504  -0.23602  -0.22766  -0.18714
 Alpha virt. eigenvalues --   -0.10864  -0.06780  -0.05267  -0.02244  -0.01479
 Alpha virt. eigenvalues --   -0.01284  -0.00269   0.00919   0.01467   0.02191
 Alpha virt. eigenvalues --    0.03167   0.03395   0.03446   0.04580   0.05353

 Mulliken charges:
               1
     1  O   -0.195978
     2  O   -0.321860
     3  O   -0.244758
     4  O   -0.204927
     5  O   -0.252410
     6  O   -0.122470
     7  N   -0.189674
     8  N   -0.269480
     9  N   -0.082532
    10  N   -0.362194
    11  C    0.104667
    12  C    0.249493
    13  C   -0.120326
    14  C   -0.146664
    15  C   -0.029938
    16  C    0.092990
    17  C   -0.226641
    18  C   -0.016125
    19  C   -0.064211
    20  C   -0.021721
    21  C    0.016680
    22  C    0.157079
    23  C   -0.053174
    24  C    0.073711
    25  C    0.225735
    26  C   -0.165227
    27  C    0.004359
    28  C    0.089111
    29  C   -0.073226
    30  C    0.013145
    31  C    0.037493
    32  C    0.139619
    33  C   -0.136285
    34  C    0.162336
    35  C    0.099118
    36  C   -0.082165
    37  C    0.152708
    38  C    0.140572
    39  C   -0.191536
    40  C    0.215736
    41  C   -0.019724
    42  C    0.033513
    43  C   -0.062910
    44  H    0.024705
    45  H   -0.035806
    46  H    0.019977
    47  H    0.178226
    48  H    0.160754
    49  H    0.002982
    50  H    0.032043
    51  H   -0.082608
    52  H    0.023955
    53  H    0.023894
    54  H    0.050486
    55  H   -0.029828
    56  H    0.029421
    57  H   -0.015623
    58  H    0.083691
    59  H    0.058665
    60  H    0.219576
    61  H    0.063827
    62  H    0.061605
    63  H    0.028987
    64  H    0.045368
    65  H    0.025634
    66  H   -0.012769
    67  H    0.030959
    68  H    0.048478
    69  H    0.001773
    70  H    0.033566
    71  H    0.061092
    72  H    0.228727
    73  H   -0.020348
    74  H    0.031883
    75  H    0.017706
    76  H   -0.013841
    77  H    0.218368
    78  H    0.055846
    79  H   -0.003279
 Sum of Mulliken charges =   0.00000

 Dipole moment (field-independent basis, Debye):
    X=             -0.1173    Y=              2.3725    Z=              2.9110  Tot=              3.7572
 Quadrupole moment (field-independent basis, Debye-Ang):
   XX=           -229.7233   YY=           -250.4151   ZZ=           -261.0355
   XY=             -1.6974   XZ=             38.6894   YZ=              4.7120

 Normal termination of Gaussian 09 at Wed Jul 10 17:44:15 2019.
