 Gaussian 09, Revision D.01,
 Gaussian 09:  ES64L-G09RevD.01 24-Apr-2013

 --------------------------
 # td=(NStates=1) B3LYP/SVP
 --------------------------

 --
 TD
 --
 Symbolic Z-matrix:
 Charge =  0 Multiplicity = 1

                         Standard orientation:
 ---------------------------------------------------------------------
 Center     Atomic      Atomic             Coordinates (Angstroms)
 Number     Number       Type             X           Y           Z
 ---------------------------------------------------------------------
      1          8           0        5.386553   -0.131384   -3.338444
      2          8           0       -2.948929   -3.030075    3.162276
      3          8           0       -3.365019   -0.852482    3.005332
      4          8           0       -1.138619    7.194881    1.549170
      5          8           0       -0.127788    6.918296   -0.420191
      6          8           0       -2.198572   -4.011547   -0.181032
      7          7           0        2.436639    0.784239    0.625536
      8          7           0        4.522103   -0.602383   -1.335437
      9          7           0       -1.963884    0.667659   -0.264040
     10          7           0       -2.832459   -1.868561   -0.628822
     11          6           0        4.800068   -1.357332   -0.026191
     12          6           0        4.427549   -0.489593    1.235035
     13          6           0        3.065274   -0.190805    1.327217
     14          6           0        2.076751   -0.796592    2.148508
     15          6           0        0.810375   -0.235407    1.784454
     16          6           0        1.124902    0.783244    0.870801
     17          6           0        6.312941   -1.523599   -0.215081
     18          6           0       -0.580642   -0.327017    2.348355
     19          6           0        6.753973   -0.963033   -1.406470
     20          6           0        0.294060    1.826684    0.115858
     21          6           0       -1.074744    1.666499   -0.154387
     22          6           0        5.534146   -0.426481   -2.161406
     23          6           0       -1.778964    2.879202   -0.746005
     24          6           0        2.286723   -1.927610    3.184663
     25          6           0        6.986004   -2.262886    0.815195
     26          6           0       -2.985398    2.499674   -1.154080
     27          6           0       -1.110296   -1.715060    2.386241
     28          6           0       -3.104673    1.069429   -0.881493
     29          6           0       -1.210263    4.305912   -0.782557
     30          6           0        8.070570   -0.915515   -2.046480
     31          6           0       -1.423015    5.056197    0.532246
     32          6           0       -4.141417    3.414404   -1.611417
     33          6           0       -4.048139    0.166374   -1.372181
     34          6           0       -2.575733   -1.770237    2.879683
     35          6           0       -3.934628   -1.277027   -1.086682
     36          6           0        9.273168   -1.027964   -1.546074
     37          6           0       -0.820348    6.514477    0.443068
     38          6           0       -5.048475   -2.293054   -1.464997
     39          6           0       -4.431656   -3.462100   -1.089377
     40          6           0       -3.050098   -3.242480   -0.580191
     41          6           0       -6.410429   -1.943695   -1.966966
     42          6           0       -4.834857   -4.910308   -1.165549
     43          6           0       -7.166505   -2.795829   -2.694097
     44          1           0        4.291752   -2.354001    0.152073
     45          1           0        4.791089    0.493808    1.213202
     46          1           0        4.718976   -1.081654    2.125095
     47          1           0        2.979918    1.529065   -0.170141
     48          1           0        3.437491   -0.366571   -1.714832
     49          1           0       -0.506554    0.004790    3.476494
     50          1           0       -1.488655    0.184809    1.755196
     51          1           0        0.916418    2.868270   -0.148659
     52          1           0        3.334353   -2.244089    3.323429
     53          1           0        2.198459   -1.734929    4.180638
     54          1           0        1.847866   -2.642712    2.694224
     55          1           0        6.496585   -2.769446    1.406405
     56          1           0        7.440079   -1.484369    1.478438
     57          1           0        7.955401   -2.743992    0.483559
     58          1           0       -1.087590   -2.238147    1.413467
     59          1           0       -0.592735   -2.305162    3.156733
     60          1           0       -1.723713   -0.254572   -0.005803
     61          1           0       -1.731343    5.072465   -1.442229
     62          1           0       -0.190255    4.413520   -1.110700
     63          1           0        7.938816   -0.937476   -3.266079
     64          1           0       -0.855026    4.545968    1.524882
     65          1           0       -2.470581    5.205437    0.806238
     66          1           0       -3.582173    4.247401   -1.840557
     67          1           0       -4.841770    3.606714   -0.857658
     68          1           0       -4.809380    3.102057   -2.520966
     69          1           0       -4.900647    0.443057   -1.805499
     70          1           0        9.353957   -1.330908   -0.554693
     71          1           0       10.220818   -1.106123   -2.187295
     72          1           0       -3.913451   -2.937008    3.305292
     73          1           0       -6.893456   -1.050119   -1.605039
     74          1           0       -4.657511   -5.270145   -2.131012
     75          1           0       -4.190650   -5.316795   -0.316744
     76          1           0       -5.900311   -4.971975   -0.777736
     77          1           0       -0.967758    8.147034    1.413898
     78          1           0       -8.167259   -2.416534   -2.967420
     79          1           0       -6.966291   -3.846702   -3.001621
 ---------------------------------------------------------------------

 SCF Done:  E(RB3LYP) =  -1947.82946062     A.U. after   16 cycles

 Excitation energies and oscillator strengths:

 Excited State   1:      Singlet-A      2.0644 eV  600.58 nm  f=0.4422  <S**2>=0.000
     155 ->156         0.70036
     155 <-156        -0.10043
 This state for optimization and/or second-order correction.
 Total Energy, E(TD-HF/TD-KS) =  -1947.75359461
 Copying the excited state density for this state as the 1-particle RhoCI density.

 The electronic state is 1-A.
 Alpha  occ. eigenvalues --  -19.19074 -19.17031 -19.13970 -19.11541 -19.11066
 Alpha  occ. eigenvalues --  -19.09045 -14.39497 -14.37509 -14.36182 -14.28664
 Alpha  occ. eigenvalues --  -10.32787 -10.30614 -10.27770 -10.26368 -10.26253
 Alpha  occ. eigenvalues --  -10.25102 -10.24896 -10.23989 -10.23626 -10.22605
 Alpha  occ. eigenvalues --  -10.22446 -10.22371 -10.21958 -10.21528 -10.21421
 Alpha  occ. eigenvalues --  -10.21208 -10.21041 -10.20817 -10.20710 -10.20619
 Alpha  occ. eigenvalues --  -10.20363 -10.20340 -10.20031 -10.19930 -10.19699
 Alpha  occ. eigenvalues --  -10.19648 -10.19406 -10.18894 -10.18763 -10.18718
 Alpha  occ. eigenvalues --  -10.18662 -10.18338 -10.18064  -1.11490  -1.08892
 Alpha  occ. eigenvalues --   -1.02970  -1.02153  -1.01914  -1.00236  -0.99203
 Alpha  occ. eigenvalues --   -0.98873  -0.92448  -0.91616  -0.83162  -0.82558
 Alpha  occ. eigenvalues --   -0.81774  -0.80838  -0.80160  -0.79796  -0.77882
 Alpha  occ. eigenvalues --   -0.77638  -0.76666  -0.75932  -0.74529  -0.72422
 Alpha  occ. eigenvalues --   -0.71783  -0.71570  -0.70189  -0.69026  -0.68639
 Alpha  occ. eigenvalues --   -0.66518  -0.65748  -0.63707  -0.60875  -0.60547
 Alpha  occ. eigenvalues --   -0.59879  -0.58750  -0.58607  -0.58392  -0.57249
 Alpha  occ. eigenvalues --   -0.55958  -0.55656  -0.54616  -0.54053  -0.53190
 Alpha  occ. eigenvalues --   -0.52164  -0.51013  -0.50489  -0.49957  -0.49653
 Alpha  occ. eigenvalues --   -0.49128  -0.48491  -0.48242  -0.48009  -0.47497
 Alpha  occ. eigenvalues --   -0.47280  -0.47153  -0.47043  -0.46883  -0.46374
 Alpha  occ. eigenvalues --   -0.45932  -0.45468  -0.45273  -0.44934  -0.44506
 Alpha  occ. eigenvalues --   -0.44200  -0.43893  -0.43531  -0.43164  -0.42609
 Alpha  occ. eigenvalues --   -0.42515  -0.42263  -0.41974  -0.41850  -0.41349
 Alpha  occ. eigenvalues --   -0.41193  -0.40773  -0.40542  -0.40258  -0.40062
 Alpha  occ. eigenvalues --   -0.39876  -0.39170  -0.39124  -0.38768  -0.38567
 Alpha  occ. eigenvalues --   -0.37916  -0.37622  -0.37270  -0.36910  -0.36183
 Alpha  occ. eigenvalues --   -0.35888  -0.35383  -0.34784  -0.34737  -0.34511
 Alpha  occ. eigenvalues --   -0.33981  -0.33950  -0.33727  -0.32354  -0.31122
 Alpha  occ. eigenvalues --   -0.30531  -0.30417  -0.29434  -0.28632  -0.27294
 Alpha  occ. eigenvalues --   -0.26989  -0.26898  -0.26247  -0.24930  -0.24586
 Alpha  occ. eigenvalues --   -0.24366  -0.24021  -0.23625  -0.22566  -0.18740
 Alpha virt. eigenvalues --   -0.10581  -0.05972  -0.05371  -0.01364  -0.00722
 Alpha virt. eigenvalues --   -0.00033   0.01704   0.01813   0.02051   0.02856
 Alpha virt. eigenvalues --    0.03198   0.04138   0.04596   0.04714   0.05133

 Mulliken charges:
               1
     1  O   -0.236844
     2  O   -0.172518
     3  O   -0.246717
     4  O   -0.176976
     5  O   -0.187108
     6  O   -0.183644
     7  N   -0.118598
     8  N   -0.248838
     9  N   -0.008889
    10  N   -0.260832
    11  C    0.084518
    12  C    0.239219
    13  C   -0.108635
    14  C   -0.159758
    15  C   -0.071238
    16  C    0.013439
    17  C   -0.180865
    18  C   -0.021438
    19  C   -0.058898
    20  C   -0.123474
    21  C    0.089837
    22  C    0.138324
    23  C   -0.061944
    24  C    0.207964
    25  C    0.229923
    26  C   -0.133623
    27  C   -0.033710
    28  C    0.137632
    29  C    0.070615
    30  C   -0.046757
    31  C   -0.086062
    32  C    0.132990
    33  C   -0.012332
    34  C    0.125437
    35  C    0.014699
    36  C   -0.024072
    37  C    0.111698
    38  C    0.058904
    39  C   -0.266528
    40  C    0.152953
    41  C   -0.028594
    42  C    0.101900
    43  C   -0.035556
    44  H    0.040783
    45  H   -0.027875
    46  H   -0.005978
    47  H    0.190694
    48  H    0.175346
    49  H    0.023779
    50  H    0.064977
    51  H    0.051483
    52  H   -0.042591
    53  H   -0.000340
    54  H    0.003965
    55  H   -0.074491
    56  H    0.025046
    57  H    0.034684
    58  H    0.075677
    59  H    0.023202
    60  H    0.126543
    61  H    0.024857
    62  H    0.016413
    63  H    0.050211
    64  H    0.070227
    65  H    0.036360
    66  H   -0.015681
    67  H    0.021142
    68  H    0.034835
    69  H   -0.090340
    70  H   -0.020679
    71  H    0.041881
    72  H    0.173705
    73  H    0.014598
    74  H    0.035747
    75  H    0.039876
    76  H    0.019734
    77  H    0.184137
    78  H    0.024031
    79  H    0.038438
 Sum of Mulliken charges =   0.00000

 Dipole moment (field-independent basis, Debye):
    X=             -0.8667    Y=              2.9712    Z=              3.9079  Tot=              4.9850
 Quadrupole moment (field-independent basis, Debye-Ang):
   XX=           -220.9802   YY=           -237.8275   ZZ=           -266.7655
   XY=            -17.6274   XZ=             37.8907   YZ=              1.9129

 Normal termination of Gaussian 09 at Mon Jul  8 16:04:55 2019.
