 Gaussian 09, Revision D.01,
 Gaussian 09:  ES64L-G09RevD.01 24-Apr-2013

 --------------------------
 # td=(NStates=1) B3LYP/SVP
 --------------------------

 --
 TD
 --
 Symbolic Z-matrix:
 Charge =  0 Multiplicity = 1

                         Standard orientation:
 ---------------------------------------------------------------------
 Center     Atomic      Atomic             Coordinates (Angstroms)
 Number     Number       Type             X           Y           Z
 ---------------------------------------------------------------------
      1          8           0        5.520596   -0.078053   -3.268878
      2          8           0       -2.873557   -2.932589    3.499072
      3          8           0       -3.157175   -0.701983    3.273838
      4          8           0       -1.885830    7.070069    1.474476
      5          8           0       -0.769639    6.936531   -0.416520
      6          8           0       -1.851819   -4.046138    0.043946
      7          7           0        2.330923    0.931868    0.507065
      8          7           0        4.375940   -0.658593   -1.349803
      9          7           0       -1.883164    0.682066   -0.369051
     10          7           0       -2.634789   -1.814342   -0.415600
     11          6           0        4.820645   -1.236717   -0.066634
     12          6           0        4.400471   -0.206503    1.115615
     13          6           0        2.988125    0.013395    1.273631
     14          6           0        2.041320   -0.616758    2.053804
     15          6           0        0.716882   -0.002291    1.795805
     16          6           0        0.981010    0.941097    0.822475
     17          6           0        6.319045   -1.187294   -0.141426
     18          6           0       -0.555603   -0.216950    2.500377
     19          6           0        6.696840   -0.726700   -1.300253
     20          6           0        0.152324    1.930607    0.214258
     21          6           0       -1.133302    1.838388   -0.322004
     22          6           0        5.545000   -0.518117   -2.158238
     23          6           0       -1.922159    2.920130   -0.926922
     24          6           0        2.235364   -1.615096    3.165378
     25          6           0        7.218882   -1.845899    0.968449
     26          6           0       -3.070882    2.303558   -1.353138
     27          6           0       -1.068649   -1.616870    2.630217
     28          6           0       -3.090868    0.896366   -1.055384
     29          6           0       -1.521942    4.307743   -0.998123
     30          6           0        8.070052   -0.676076   -2.040748
     31          6           0       -1.967579    5.012571    0.322194
     32          6           0       -4.252459    3.070828   -1.896694
     33          6           0       -3.944816   -0.185074   -1.418400
     34          6           0       -2.505986   -1.674681    3.164906
     35          6           0       -3.770368   -1.475632   -1.116501
     36          6           0        9.303016   -0.796178   -1.541592
     37          6           0       -1.419800    6.377506    0.456114
     38          6           0       -4.675103   -2.674983   -1.533290
     39          6           0       -3.962625   -3.705029   -1.114045
     40          6           0       -2.717912   -3.258915   -0.409656
     41          6           0       -6.004450   -2.412785   -2.208859
     42          6           0       -4.322174   -5.215607   -1.260260
     43          6           0       -6.918871   -3.434023   -2.626732
     44          1           0        4.409696   -2.121106    0.257440
     45          1           0        5.227313    0.600504    0.866774
     46          1           0        4.698153   -0.787860    2.196013
     47          1           0        2.833682    1.381009   -0.261480
     48          1           0        3.423335   -0.802293   -1.870349
     49          1           0       -0.472519    0.109899    3.471096
     50          1           0       -1.209470    0.432423    1.971311
     51          1           0        0.800048    2.832104   -0.090853
     52          1           0        3.290013   -1.588564    3.653684
     53          1           0        1.526691   -1.632844    4.241723
     54          1           0        2.043926   -2.687993    2.646736
     55          1           0        6.570036   -2.538584    1.663158
     56          1           0        7.842153   -1.140862    1.690313
     57          1           0        7.985669   -2.732516    0.560526
     58          1           0       -1.051300   -2.390501    1.682498
     59          1           0       -0.449878   -2.180779    3.460568
     60          1           0       -1.524571   -0.400411   -0.020266
     61          1           0       -1.692933    4.796617   -1.986614
     62          1           0       -0.445853    4.453574   -0.985997
     63          1           0        7.944372   -0.190490   -2.995484
     64          1           0       -1.477436    4.541181    1.089831
     65          1           0       -3.127846    5.000768    0.417440
     66          1           0       -4.055119    4.093093   -2.083034
     67          1           0       -5.082509    2.995726   -1.131508
     68          1           0       -4.483659    2.624085   -2.765092
     69          1           0       -4.933213    0.051538   -1.721449
     70          1           0        9.377605   -1.070446   -0.345365
     71          1           0       10.069868   -0.575000   -2.171448
     72          1           0       -3.786249   -2.870135    3.782525
     73          1           0       -6.323066   -1.414786   -2.310817
     74          1           0       -4.672276   -5.499605   -2.412097
     75          1           0       -3.361836   -5.857417   -0.981867
     76          1           0       -5.122472   -5.336415   -0.358319
     77          1           0       -1.366021    7.940366    1.322413
     78          1           0       -7.865187   -3.275346   -3.175712
     79          1           0       -6.702692   -4.612686   -2.727990
 ---------------------------------------------------------------------

 SCF Done:  E(RB3LYP) =  -1947.84283839     A.U. after   17 cycles

 Excitation energies and oscillator strengths:

 Excited State   1:      Singlet-A      2.1238 eV  583.78 nm  f=0.4997  <S**2>=0.000
     155 ->156         0.69693
     155 <-156        -0.11416
 This state for optimization and/or second-order correction.
 Total Energy, E(TD-HF/TD-KS) =  -1947.76479006
 Copying the excited state density for this state as the 1-particle RhoCI density.

 The electronic state is 1-A.
 Alpha  occ. eigenvalues --  -19.19763 -19.16795 -19.12873 -19.11289 -19.10831
 Alpha  occ. eigenvalues --  -19.09927 -14.37868 -14.36607 -14.36115 -14.29453
 Alpha  occ. eigenvalues --  -10.32344 -10.30092 -10.28577 -10.26461 -10.25187
 Alpha  occ. eigenvalues --  -10.24961 -10.24231 -10.24170 -10.23295 -10.22921
 Alpha  occ. eigenvalues --  -10.22828 -10.22812 -10.22560 -10.22510 -10.22363
 Alpha  occ. eigenvalues --  -10.22216 -10.21783 -10.21737 -10.21354 -10.20864
 Alpha  occ. eigenvalues --  -10.20782 -10.20631 -10.20592 -10.20569 -10.20415
 Alpha  occ. eigenvalues --  -10.20256 -10.19631 -10.19502 -10.19470 -10.19346
 Alpha  occ. eigenvalues --  -10.19000 -10.18248 -10.17772  -1.11765  -1.09009
 Alpha  occ. eigenvalues --   -1.04160  -1.00854  -1.00475  -0.98925  -0.98770
 Alpha  occ. eigenvalues --   -0.96851  -0.93822  -0.90348  -0.83310  -0.82200
 Alpha  occ. eigenvalues --   -0.81890  -0.80930  -0.79587  -0.79260  -0.77922
 Alpha  occ. eigenvalues --   -0.76806  -0.76131  -0.75360  -0.73777  -0.72823
 Alpha  occ. eigenvalues --   -0.71492  -0.70238  -0.68807  -0.68343  -0.67477
 Alpha  occ. eigenvalues --   -0.67212  -0.65745  -0.62858  -0.60402  -0.60060
 Alpha  occ. eigenvalues --   -0.59558  -0.59188  -0.58404  -0.57499  -0.56189
 Alpha  occ. eigenvalues --   -0.55652  -0.55200  -0.54969  -0.53575  -0.52856
 Alpha  occ. eigenvalues --   -0.52233  -0.51236  -0.50794  -0.50580  -0.50265
 Alpha  occ. eigenvalues --   -0.49434  -0.48850  -0.48679  -0.47834  -0.47190
 Alpha  occ. eigenvalues --   -0.46983  -0.46742  -0.46523  -0.45750  -0.45513
 Alpha  occ. eigenvalues --   -0.45169  -0.44814  -0.43714  -0.43615  -0.43408
 Alpha  occ. eigenvalues --   -0.43150  -0.42682  -0.42655  -0.42460  -0.42298
 Alpha  occ. eigenvalues --   -0.42073  -0.41909  -0.41649  -0.41377  -0.40974
 Alpha  occ. eigenvalues --   -0.40805  -0.40531  -0.39873  -0.39646  -0.39055
 Alpha  occ. eigenvalues --   -0.38827  -0.38769  -0.38715  -0.38479  -0.38052
 Alpha  occ. eigenvalues --   -0.37798  -0.37604  -0.37247  -0.36971  -0.36477
 Alpha  occ. eigenvalues --   -0.35878  -0.34860  -0.34730  -0.34590  -0.34319
 Alpha  occ. eigenvalues --   -0.33805  -0.33412  -0.32754  -0.31933  -0.31772
 Alpha  occ. eigenvalues --   -0.31686  -0.30761  -0.28747  -0.28457  -0.28060
 Alpha  occ. eigenvalues --   -0.27020  -0.26626  -0.26400  -0.25862  -0.25576
 Alpha  occ. eigenvalues --   -0.24354  -0.23823  -0.23635  -0.22451  -0.19188
 Alpha virt. eigenvalues --   -0.10895  -0.06330  -0.06042  -0.01357  -0.00869
 Alpha virt. eigenvalues --    0.00396   0.00914   0.02113   0.02838   0.03416
 Alpha virt. eigenvalues --    0.03608   0.03790   0.04213   0.04653   0.04999

 Mulliken charges:
               1
     1  O   -0.194557
     2  O   -0.171302
     3  O   -0.197022
     4  O   -0.171906
     5  O   -0.260424
     6  O   -0.251307
     7  N   -0.069235
     8  N   -0.270605
     9  N   -0.187639
    10  N   -0.344826
    11  C    0.154485
    12  C   -0.005252
    13  C    0.006085
    14  C   -0.083726
    15  C   -0.096916
    16  C    0.045208
    17  C   -0.133844
    18  C    0.239309
    19  C   -0.043318
    20  C   -0.134399
    21  C    0.109105
    22  C    0.137396
    23  C   -0.049917
    24  C   -0.075330
    25  C   -0.053941
    26  C   -0.176396
    27  C   -0.142825
    28  C    0.142037
    29  C    0.093707
    30  C    0.003976
    31  C    0.055512
    32  C    0.168547
    33  C   -0.094809
    34  C    0.122533
    35  C    0.065315
    36  C   -0.003729
    37  C    0.105890
    38  C    0.111112
    39  C   -0.212891
    40  C    0.202448
    41  C    0.015413
    42  C   -0.032599
    43  C   -0.085110
    44  H   -0.016796
    45  H    0.024030
    46  H    0.028818
    47  H    0.120056
    48  H    0.167549
    49  H   -0.024654
    50  H   -0.009978
    51  H    0.012985
    52  H    0.028057
    53  H    0.054166
    54  H    0.060485
    55  H    0.033809
    56  H    0.072254
    57  H    0.067950
    58  H    0.105168
    59  H    0.031525
    60  H    0.246349
    61  H    0.032072
    62  H   -0.013069
    63  H    0.015207
    64  H    0.007508
    65  H    0.070649
    66  H   -0.003432
    67  H    0.038847
    68  H   -0.007513
    69  H   -0.044276
    70  H    0.045812
    71  H    0.004885
    72  H    0.163992
    73  H   -0.009962
    74  H    0.062665
    75  H    0.056790
    76  H    0.059431
    77  H    0.199976
    78  H    0.032610
    79  H    0.051783
 Sum of Mulliken charges =   0.00000

 Dipole moment (field-independent basis, Debye):
    X=              0.7404    Y=              2.3574    Z=              2.3346  Tot=              3.3993
 Quadrupole moment (field-independent basis, Debye-Ang):
   XX=           -218.6334   YY=           -252.0730   ZZ=           -259.8434
   XY=             -9.5854   XZ=             29.0925   YZ=              3.5531

 Normal termination of Gaussian 09 at Sun Jul  7 19:19:44 2019.
