 Gaussian 09, Revision D.01,
 Gaussian 09:  ES64L-G09RevD.01 24-Apr-2013

 --------------------------
 # td=(NStates=1) B3LYP/SVP
 --------------------------

 --
 TD
 --
 Symbolic Z-matrix:
 Charge =  0 Multiplicity = 1

                         Standard orientation:
 ---------------------------------------------------------------------
 Center     Atomic      Atomic             Coordinates (Angstroms)
 Number     Number       Type             X           Y           Z
 ---------------------------------------------------------------------
      1          8           0        5.436797   -0.056920   -3.335686
      2          8           0       -3.058890   -3.088201    3.258723
      3          8           0       -3.222975   -0.835513    3.542929
      4          8           0       -1.740403    7.309646    1.287838
      5          8           0       -0.249978    6.933578   -0.355263
      6          8           0       -1.954638   -3.926537    0.068868
      7          7           0        2.376813    0.892303    0.647054
      8          7           0        4.344851   -0.606745   -1.261073
      9          7           0       -1.834970    0.602439   -0.203459
     10          7           0       -2.706329   -1.810420   -0.429691
     11          6           0        4.723088   -1.258309   -0.039549
     12          6           0        4.406058   -0.402306    1.203452
     13          6           0        2.941236   -0.136236    1.344775
     14          6           0        2.034520   -0.777277    2.125139
     15          6           0        0.733532   -0.127350    1.836154
     16          6           0        1.062002    0.896200    0.872302
     17          6           0        6.265219   -1.420243   -0.234279
     18          6           0       -0.540783   -0.274296    2.639920
     19          6           0        6.615364   -0.985679   -1.433572
     20          6           0        0.126815    1.946191    0.317797
     21          6           0       -1.100646    1.810360   -0.283545
     22          6           0        5.389331   -0.421130   -2.146466
     23          6           0       -1.855780    2.949887   -0.846760
     24          6           0        2.147563   -1.851589    3.113933
     25          6           0        7.142923   -1.835932    0.846478
     26          6           0       -3.101745    2.412501   -1.197971
     27          6           0       -1.202974   -1.745391    2.650106
     28          6           0       -3.030137    0.891762   -0.898298
     29          6           0       -1.422250    4.363506   -0.798653
     30          6           0        7.915250   -0.836641   -2.098779
     31          6           0       -1.667906    5.115777    0.466821
     32          6           0       -4.213172    3.047925   -1.981287
     33          6           0       -4.023787    0.020285   -1.249402
     34          6           0       -2.562165   -1.848214    3.088835
     35          6           0       -3.705759   -1.420284   -1.051900
     36          6           0        9.162529   -0.793347   -1.570461
     37          6           0       -1.147030    6.511504    0.383542
     38          6           0       -4.580242   -2.470890   -1.655965
     39          6           0       -4.024081   -3.658130   -1.339654
     40          6           0       -2.721977   -3.236922   -0.536560
     41          6           0       -5.919461   -2.212675   -2.363317
     42          6           0       -4.444632   -5.098173   -1.432608
     43          6           0       -6.870494   -3.124211   -2.780605
     44          1           0        4.267157   -2.375212   -0.030139
     45          1           0        4.977122    0.552390    1.352486
     46          1           0        4.851334   -0.948047    2.188309
     47          1           0        2.704863    1.386021   -0.126481
     48          1           0        3.398606   -1.006969   -1.702255
     49          1           0       -0.384882    0.295637    3.625331
     50          1           0       -1.385162    0.498311    1.989275
     51          1           0        0.688389    2.829438    0.125581
     52          1           0        3.334880   -2.288232    3.336064
     53          1           0        1.612357   -1.791775    4.056219
     54          1           0        1.643160   -2.913237    2.791395
     55          1           0        6.516985   -2.702975    1.421774
     56          1           0        7.396715   -1.026984    1.608049
     57          1           0        8.208356   -2.041058    0.458407
     58          1           0       -1.044226   -2.479682    1.675201
     59          1           0       -0.489590   -2.239232    3.354537
     60          1           0       -1.754520   -0.382122   -0.233107
     61          1           0       -1.926385    5.064454   -1.745543
     62          1           0       -0.305683    4.466067   -0.987652
     63          1           0        7.709454   -0.661491   -3.125651
     64          1           0       -1.284493    4.569861    1.299691
     65          1           0       -2.792702    5.007826    0.737738
     66          1           0       -4.032890    4.153376   -2.203825
     67          1           0       -5.020742    3.010162   -1.230149
     68          1           0       -4.513474    2.508855   -2.827384
     69          1           0       -4.901867    0.445932   -1.807422
     70          1           0        9.347716   -0.867223   -0.674647
     71          1           0        9.993052   -0.638306   -2.105440
     72          1           0       -3.776732   -2.947447    3.766977
     73          1           0       -6.261609   -1.068290   -2.667281
     74          1           0       -4.342456   -5.328569   -2.468157
     75          1           0       -3.783658   -5.644473   -0.803209
     76          1           0       -5.390133   -5.134474   -0.936024
     77          1           0       -0.953631    8.069095    1.249783
     78          1           0       -7.706404   -2.494331   -3.281574
     79          1           0       -6.723229   -4.292795   -2.787689
 ---------------------------------------------------------------------

 SCF Done:  E(RB3LYP) =  -1947.80190932     A.U. after   16 cycles

 Excitation energies and oscillator strengths:

 Excited State   1:      Singlet-A      2.0918 eV  592.70 nm  f=0.2927  <S**2>=0.000
     155 ->156         0.70250
 This state for optimization and/or second-order correction.
 Total Energy, E(TD-HF/TD-KS) =  -1947.72503553
 Copying the excited state density for this state as the 1-particle RhoCI density.

 The electronic state is 1-A.
 Alpha  occ. eigenvalues --  -19.19869 -19.16953 -19.13942 -19.13259 -19.10869
 Alpha  occ. eigenvalues --  -19.10187 -14.37500 -14.36726 -14.35759 -14.30676
 Alpha  occ. eigenvalues --  -10.33204 -10.30769 -10.29123 -10.28996 -10.25909
 Alpha  occ. eigenvalues --  -10.24659 -10.24625 -10.24467 -10.23053 -10.22485
 Alpha  occ. eigenvalues --  -10.22175 -10.22113 -10.22080 -10.21947 -10.21893
 Alpha  occ. eigenvalues --  -10.21836 -10.21798 -10.21732 -10.21431 -10.21413
 Alpha  occ. eigenvalues --  -10.21265 -10.21164 -10.20820 -10.20605 -10.20526
 Alpha  occ. eigenvalues --  -10.20209 -10.19548 -10.19454 -10.19384 -10.19293
 Alpha  occ. eigenvalues --  -10.18488 -10.18416 -10.17163  -1.10117  -1.09388
 Alpha  occ. eigenvalues --   -1.05019  -1.01589  -1.00084  -0.99328  -0.97155
 Alpha  occ. eigenvalues --   -0.95641  -0.95147  -0.94567  -0.83356  -0.82245
 Alpha  occ. eigenvalues --   -0.81294  -0.80654  -0.80128  -0.78964  -0.78359
 Alpha  occ. eigenvalues --   -0.76646  -0.75926  -0.75516  -0.74316  -0.72591
 Alpha  occ. eigenvalues --   -0.71347  -0.71174  -0.70319  -0.68870  -0.67777
 Alpha  occ. eigenvalues --   -0.66866  -0.65227  -0.63513  -0.62560  -0.60004
 Alpha  occ. eigenvalues --   -0.59204  -0.58744  -0.57888  -0.56973  -0.56752
 Alpha  occ. eigenvalues --   -0.56036  -0.55325  -0.53996  -0.53876  -0.53040
 Alpha  occ. eigenvalues --   -0.52446  -0.51498  -0.50902  -0.50576  -0.50071
 Alpha  occ. eigenvalues --   -0.49149  -0.48610  -0.48567  -0.47835  -0.47333
 Alpha  occ. eigenvalues --   -0.47004  -0.46854  -0.46696  -0.46676  -0.45755
 Alpha  occ. eigenvalues --   -0.45315  -0.44999  -0.44890  -0.44166  -0.43764
 Alpha  occ. eigenvalues --   -0.43505  -0.43284  -0.43068  -0.42837  -0.42590
 Alpha  occ. eigenvalues --   -0.42448  -0.41750  -0.41515  -0.41362  -0.41322
 Alpha  occ. eigenvalues --   -0.40700  -0.40192  -0.40032  -0.39827  -0.39552
 Alpha  occ. eigenvalues --   -0.39322  -0.38909  -0.38574  -0.38479  -0.38389
 Alpha  occ. eigenvalues --   -0.38297  -0.38051  -0.37275  -0.36868  -0.36512
 Alpha  occ. eigenvalues --   -0.35953  -0.35762  -0.35336  -0.34922  -0.34115
 Alpha  occ. eigenvalues --   -0.33596  -0.33086  -0.32935  -0.31390  -0.31104
 Alpha  occ. eigenvalues --   -0.29971  -0.29723  -0.29379  -0.29176  -0.29095
 Alpha  occ. eigenvalues --   -0.27660  -0.26116  -0.25785  -0.25564  -0.25378
 Alpha  occ. eigenvalues --   -0.24449  -0.24280  -0.23799  -0.23117  -0.18944
 Alpha virt. eigenvalues --   -0.10312  -0.06096  -0.05267  -0.01875  -0.01390
 Alpha virt. eigenvalues --   -0.00558  -0.00413   0.01564   0.01889   0.02634
 Alpha virt. eigenvalues --    0.02960   0.03448   0.03863   0.04059   0.04668

 Mulliken charges:
               1
     1  O   -0.243019
     2  O   -0.116049
     3  O   -0.317755
     4  O   -0.219459
     5  O   -0.257661
     6  O   -0.155004
     7  N    0.024438
     8  N   -0.216667
     9  N   -0.069423
    10  N   -0.216779
    11  C    0.041178
    12  C    0.106542
    13  C   -0.087816
    14  C   -0.027208
    15  C   -0.088088
    16  C   -0.037513
    17  C   -0.170461
    18  C   -0.043401
    19  C   -0.050576
    20  C   -0.098151
    21  C    0.156179
    22  C    0.168338
    23  C   -0.014222
    24  C   -0.032781
    25  C    0.008987
    26  C   -0.161703
    27  C   -0.032628
    28  C    0.079950
    29  C   -0.025768
    30  C    0.012627
    31  C    0.027099
    32  C    0.113271
    33  C   -0.121586
    34  C    0.162048
    35  C    0.049556
    36  C    0.125941
    37  C    0.175409
    38  C    0.037648
    39  C   -0.284218
    40  C    0.157439
    41  C   -0.074743
    42  C    0.179105
    43  C   -0.071782
    44  H    0.055300
    45  H    0.011085
    46  H    0.017103
    47  H    0.100232
    48  H    0.172441
    49  H    0.047137
    50  H    0.061505
    51  H   -0.035214
    52  H    0.019074
    53  H    0.027910
    54  H    0.036480
    55  H    0.044513
    56  H    0.048771
    57  H    0.045090
    58  H    0.099352
    59  H    0.031011
    60  H    0.128989
    61  H    0.043026
    62  H    0.035268
    63  H   -0.005877
    64  H    0.034328
    65  H    0.040310
    66  H    0.027276
    67  H    0.027622
    68  H    0.026914
    69  H   -0.011940
    70  H   -0.088844
    71  H   -0.008246
    72  H    0.130006
    73  H    0.040124
    74  H    0.038141
    75  H    0.009386
    76  H    0.031309
    77  H    0.224575
    78  H    0.048004
    79  H    0.056547
 Sum of Mulliken charges =   0.00000

 Dipole moment (field-independent basis, Debye):
    X=             -0.8290    Y=             -0.1112    Z=              1.1725  Tot=              1.4402
 Quadrupole moment (field-independent basis, Debye-Ang):
   XX=           -229.0415   YY=           -242.8943   ZZ=           -265.5884
   XY=             -3.4602   XZ=             39.5913   YZ=              5.9829

 Normal termination of Gaussian 09 at Tue Jul  9 08:07:48 2019.
