 Gaussian 09, Revision D.01,
 Gaussian 09:  ES64L-G09RevD.01 24-Apr-2013

 --------------------------
 # td=(NStates=1) B3LYP/SVP
 --------------------------

 --
 TD
 --
 Symbolic Z-matrix:
 Charge =  0 Multiplicity = 1

                         Standard orientation:
 ---------------------------------------------------------------------
 Center     Atomic      Atomic             Coordinates (Angstroms)
 Number     Number       Type             X           Y           Z
 ---------------------------------------------------------------------
      1          8           0        5.440123   -0.200614   -3.376052
      2          8           0       -2.776336   -3.126981    3.340547
      3          8           0       -3.191431   -0.908881    3.287837
      4          8           0       -1.656145    7.051786    1.668508
      5          8           0       -0.997491    7.214111   -0.578331
      6          8           0       -1.799993   -4.015682   -0.194007
      7          7           0        2.293819    0.954581    0.479314
      8          7           0        4.526047   -0.510299   -1.356885
      9          7           0       -1.811462    0.693800   -0.501511
     10          7           0       -2.699768   -1.904548   -0.532175
     11          6           0        4.855242   -1.006026    0.005623
     12          6           0        4.510080    0.013157    1.207583
     13          6           0        2.990457    0.104217    1.316021
     14          6           0        2.140123   -0.535347    2.148849
     15          6           0        0.817106   -0.049586    1.710951
     16          6           0        0.938521    0.945013    0.724351
     17          6           0        6.394615   -1.214520   -0.088139
     18          6           0       -0.530000   -0.312387    2.452710
     19          6           0        6.722527   -0.984746   -1.384646
     20          6           0        0.158644    1.908481    0.036211
     21          6           0       -1.061487    1.814723   -0.406922
     22          6           0        5.565530   -0.513315   -2.260830
     23          6           0       -1.947025    2.817306   -0.896096
     24          6           0        2.293222   -1.584273    3.200797
     25          6           0        7.179601   -1.734429    1.073341
     26          6           0       -3.209634    2.374252   -1.274373
     27          6           0       -1.054330   -1.760041    2.611968
     28          6           0       -3.061853    0.923199   -1.027371
     29          6           0       -1.559836    4.365746   -0.924421
     30          6           0        8.104339   -0.876622   -2.072454
     31          6           0       -1.894741    5.100098    0.462758
     32          6           0       -4.377550    2.988968   -1.949580
     33          6           0       -4.011706   -0.098714   -1.362961
     34          6           0       -2.467258   -1.848136    3.115611
     35          6           0       -3.768335   -1.470628   -1.097106
     36          6           0        9.317817   -0.920861   -1.516050
     37          6           0       -1.464711    6.548395    0.401592
     38          6           0       -4.696831   -2.631935   -1.456812
     39          6           0       -4.060371   -3.781501   -1.047561
     40          6           0       -2.755789   -3.348393   -0.542592
     41          6           0       -6.066498   -2.473800   -1.956015
     42          6           0       -4.408696   -5.182842   -1.132804
     43          6           0       -6.904918   -3.485318   -2.424384
     44          1           0        4.478715   -1.983065    0.251577
     45          1           0        5.085865    0.837983    0.884208
     46          1           0        4.956423   -0.442607    2.173457
     47          1           0        2.816264    1.681251   -0.043219
     48          1           0        3.642124   -0.669377   -1.525456
     49          1           0       -0.499108    0.138841    3.479096
     50          1           0       -1.404571    0.376644    1.854052
     51          1           0        0.590609    2.869787    0.038455
     52          1           0        3.390547   -1.995975    3.115327
     53          1           0        1.816216   -1.371673    4.270139
     54          1           0        1.732259   -2.522183    2.861794
     55          1           0        6.591416   -2.334829    1.751312
     56          1           0        7.553510   -0.914619    1.804044
     57          1           0        8.042741   -2.367616    0.831204
     58          1           0       -0.938964   -2.314288    1.734340
     59          1           0       -0.427104   -2.177069    3.611985
     60          1           0       -1.620055   -0.394484   -0.337010
     61          1           0       -2.351655    4.863172   -1.708686
     62          1           0       -0.634027    4.529793   -1.032314
     63          1           0        7.813911   -0.614809   -3.158644
     64          1           0       -1.394685    4.664493    1.423775
     65          1           0       -3.071955    5.288766    0.785127
     66          1           0       -4.400884    4.118440   -2.396510
     67          1           0       -5.322059    2.950270   -1.424813
     68          1           0       -4.525518    2.262288   -2.808553
     69          1           0       -4.836680    0.288653   -1.951108
     70          1           0        9.429909   -0.921731   -0.337565
     71          1           0       10.271031   -0.608163   -2.151599
     72          1           0       -3.583589   -3.064305    3.742950
     73          1           0       -6.489780   -1.541161   -2.093801
     74          1           0       -4.698821   -5.270004   -2.304052
     75          1           0       -3.364296   -5.697007   -1.036845
     76          1           0       -5.246226   -5.405253   -0.537480
     77          1           0       -1.534885    8.124516    1.521021
     78          1           0       -7.857854   -3.173969   -2.602066
     79          1           0       -6.436633   -4.496180   -2.376861
 ---------------------------------------------------------------------

 SCF Done:  E(RB3LYP) =  -1947.85160673     A.U. after   16 cycles

 Excitation energies and oscillator strengths:

 Excited State   1:      Singlet-A      2.1479 eV  577.23 nm  f=0.4115  <S**2>=0.000
     155 ->156         0.69448
 This state for optimization and/or second-order correction.
 Total Energy, E(TD-HF/TD-KS) =  -1947.77267259
 Copying the excited state density for this state as the 1-particle RhoCI density.

 The electronic state is 1-A.
 Alpha  occ. eigenvalues --  -19.19718 -19.17226 -19.13725 -19.11652 -19.11324
 Alpha  occ. eigenvalues --  -19.11132 -14.37574 -14.36126 -14.33824 -14.29315
 Alpha  occ. eigenvalues --  -10.33208 -10.30615 -10.28802 -10.26965 -10.25105
 Alpha  occ. eigenvalues --  -10.24476 -10.23542 -10.23416 -10.23345 -10.22823
 Alpha  occ. eigenvalues --  -10.22515 -10.22288 -10.22194 -10.22173 -10.21753
 Alpha  occ. eigenvalues --  -10.21622 -10.21606 -10.21559 -10.21487 -10.20753
 Alpha  occ. eigenvalues --  -10.20726 -10.20705 -10.20553 -10.20499 -10.20264
 Alpha  occ. eigenvalues --  -10.20111 -10.20056 -10.19655 -10.19628 -10.19438
 Alpha  occ. eigenvalues --  -10.19410 -10.19229 -10.18981  -1.10703  -1.07515
 Alpha  occ. eigenvalues --   -1.05885  -1.02289  -1.00928  -0.98770  -0.98489
 Alpha  occ. eigenvalues --   -0.98072  -0.94098  -0.92905  -0.82758  -0.81606
 Alpha  occ. eigenvalues --   -0.81552  -0.81003  -0.80045  -0.78980  -0.77409
 Alpha  occ. eigenvalues --   -0.76981  -0.76262  -0.75467  -0.74527  -0.72331
 Alpha  occ. eigenvalues --   -0.71731  -0.71051  -0.69826  -0.69118  -0.67855
 Alpha  occ. eigenvalues --   -0.66722  -0.66109  -0.64273  -0.61613  -0.60693
 Alpha  occ. eigenvalues --   -0.59212  -0.58628  -0.58239  -0.57445  -0.56756
 Alpha  occ. eigenvalues --   -0.55991  -0.55442  -0.54610  -0.54016  -0.52727
 Alpha  occ. eigenvalues --   -0.51957  -0.51699  -0.50408  -0.49449  -0.49076
 Alpha  occ. eigenvalues --   -0.48731  -0.48395  -0.47994  -0.47841  -0.47575
 Alpha  occ. eigenvalues --   -0.47432  -0.46696  -0.46603  -0.46184  -0.45461
 Alpha  occ. eigenvalues --   -0.45321  -0.45199  -0.44467  -0.44078  -0.43937
 Alpha  occ. eigenvalues --   -0.43477  -0.43372  -0.43192  -0.42830  -0.42477
 Alpha  occ. eigenvalues --   -0.42313  -0.42110  -0.41717  -0.41458  -0.40989
 Alpha  occ. eigenvalues --   -0.40537  -0.40472  -0.40238  -0.40058  -0.39941
 Alpha  occ. eigenvalues --   -0.39818  -0.39497  -0.39154  -0.38885  -0.38279
 Alpha  occ. eigenvalues --   -0.38120  -0.37931  -0.37719  -0.37589  -0.36984
 Alpha  occ. eigenvalues --   -0.36316  -0.35819  -0.35048  -0.34925  -0.34752
 Alpha  occ. eigenvalues --   -0.34410  -0.32489  -0.32320  -0.32054  -0.31438
 Alpha  occ. eigenvalues --   -0.31263  -0.30659  -0.29286  -0.28591  -0.27804
 Alpha  occ. eigenvalues --   -0.27441  -0.27067  -0.26412  -0.25655  -0.24978
 Alpha  occ. eigenvalues --   -0.24412  -0.24055  -0.23669  -0.22536  -0.19456
 Alpha virt. eigenvalues --   -0.10757  -0.06865  -0.05559  -0.02048  -0.00757
 Alpha virt. eigenvalues --    0.01336   0.01541   0.01736   0.01902   0.02645
 Alpha virt. eigenvalues --    0.03026   0.04140   0.04651   0.04959   0.05152

 Mulliken charges:
               1
     1  O   -0.149126
     2  O   -0.117666
     3  O   -0.216750
     4  O   -0.256242
     5  O   -0.280049
     6  O   -0.188194
     7  N   -0.095280
     8  N   -0.144103
     9  N   -0.123026
    10  N   -0.270731
    11  C    0.030700
    12  C    0.168881
    13  C   -0.084347
    14  C   -0.082801
    15  C   -0.099446
    16  C    0.130292
    17  C   -0.142925
    18  C   -0.040484
    19  C   -0.153610
    20  C   -0.129565
    21  C    0.179643
    22  C    0.165603
    23  C   -0.138758
    24  C    0.028118
    25  C    0.072593
    26  C   -0.056215
    27  C   -0.012910
    28  C    0.044987
    29  C    0.202799
    30  C    0.024151
    31  C   -0.109060
    32  C    0.026535
    33  C   -0.096883
    34  C    0.112894
    35  C    0.110002
    36  C   -0.092547
    37  C    0.186003
    38  C    0.060117
    39  C   -0.215776
    40  C    0.151336
    41  C   -0.057159
    42  C    0.065387
    43  C    0.034864
    44  H    0.017231
    45  H   -0.020974
    46  H    0.020151
    47  H    0.122653
    48  H    0.072907
    49  H    0.014708
    50  H    0.049583
    51  H   -0.031039
    52  H    0.009336
    53  H    0.052883
    54  H    0.045108
    55  H    0.006600
    56  H    0.041681
    57  H    0.038852
    58  H    0.047461
    59  H    0.043425
    60  H    0.194319
    61  H    0.048292
    62  H   -0.055752
    63  H    0.034128
    64  H    0.071089
    65  H    0.073323
    66  H    0.051925
    67  H    0.026915
    68  H    0.045351
    69  H   -0.036998
    70  H    0.041672
    71  H    0.052860
    72  H    0.129006
    73  H   -0.039506
    74  H    0.052991
    75  H    0.057608
    76  H    0.034988
    77  H    0.229649
    78  H    0.001987
    79  H    0.014333
 Sum of Mulliken charges =   0.00000

 Dipole moment (field-independent basis, Debye):
    X=             -1.2955    Y=              2.0184    Z=              3.6857  Tot=              4.3974
 Quadrupole moment (field-independent basis, Debye-Ang):
   XX=           -221.6206   YY=           -248.9301   ZZ=           -262.6261
   XY=             -6.8790   XZ=             33.7231   YZ=              2.4737

 Normal termination of Gaussian 09 at Tue Jul  9 21:06:11 2019.
