 Gaussian 09, Revision D.01,
 Gaussian 09:  ES64L-G09RevD.01 24-Apr-2013

 --------------------------
 # td=(NStates=1) B3LYP/SVP
 --------------------------

 --
 TD
 --
 Symbolic Z-matrix:
 Charge =  0 Multiplicity = 1

                         Standard orientation:
 ---------------------------------------------------------------------
 Center     Atomic      Atomic             Coordinates (Angstroms)
 Number     Number       Type             X           Y           Z
 ---------------------------------------------------------------------
      1          8           0        5.537807   -0.397763   -3.368081
      2          8           0       -2.765092   -2.913736    3.379078
      3          8           0       -3.208281   -0.674685    3.236118
      4          8           0       -1.755592    7.101537    1.367043
      5          8           0       -0.204665    6.845868   -0.380759
      6          8           0       -2.080354   -4.046959    0.146640
      7          7           0        2.346175    0.877610    0.325220
      8          7           0        4.390137   -0.819420   -1.339392
      9          7           0       -1.893553    0.676086   -0.392873
     10          7           0       -2.628607   -1.900881   -0.513712
     11          6           0        4.758482   -1.243492   -0.023892
     12          6           0        4.460387   -0.262648    1.083665
     13          6           0        3.036058    0.000735    1.292977
     14          6           0        2.012279   -0.523022    2.157041
     15          6           0        0.705191    0.025522    1.736550
     16          6           0        1.000803    0.858043    0.688644
     17          6           0        6.274802   -1.454062   -0.140638
     18          6           0       -0.628256   -0.144877    2.528621
     19          6           0        6.762046   -0.996801   -1.390597
     20          6           0        0.216942    1.852628    0.060555
     21          6           0       -1.010286    1.769875   -0.419353
     22          6           0        5.440514   -0.677868   -2.217711
     23          6           0       -1.870035    2.895609   -0.953056
     24          6           0        2.199409   -1.374408    3.301658
     25          6           0        7.110013   -1.701241    1.030332
     26          6           0       -3.193990    2.476056   -1.288830
     27          6           0       -1.099950   -1.530616    2.460525
     28          6           0       -3.115080    1.033761   -0.981229
     29          6           0       -1.482685    4.314999   -0.936294
     30          6           0        7.950093   -0.865335   -1.968502
     31          6           0       -1.675353    5.003722    0.375550
     32          6           0       -4.397658    3.127661   -1.929838
     33          6           0       -3.996359   -0.043429   -1.377862
     34          6           0       -2.453604   -1.600759    3.132117
     35          6           0       -3.772584   -1.454069   -1.059050
     36          6           0        9.158230   -0.934011   -1.376687
     37          6           0       -1.105517    6.398419    0.334607
     38          6           0       -4.819985   -2.520720   -1.340882
     39          6           0       -4.123686   -3.691439   -1.075510
     40          6           0       -2.812013   -3.278383   -0.451828
     41          6           0       -6.103291   -2.325660   -2.019241
     42          6           0       -4.450063   -5.142479   -1.072710
     43          6           0       -6.842635   -3.274873   -2.577884
     44          1           0        4.069665   -2.088576    0.135925
     45          1           0        5.152572    0.598204    1.132162
     46          1           0        4.645556   -0.819937    2.149854
     47          1           0        2.728012    1.420831   -0.434782
     48          1           0        3.398032   -0.778485   -1.732431
     49          1           0       -0.068113    0.181897    3.477702
     50          1           0       -1.470119    0.485568    2.094510
     51          1           0        0.729309    2.712493   -0.136005
     52          1           0        3.376548   -1.471269    3.373565
     53          1           0        1.470982   -1.194119    4.153129
     54          1           0        2.028385   -2.422045    2.890219
     55          1           0        6.576222   -2.112607    1.944109
     56          1           0        7.311874   -0.631071    1.249835
     57          1           0        8.143640   -2.464626    0.665420
     58          1           0       -1.154951   -2.036455    1.436054
     59          1           0       -0.550043   -2.406105    2.965594
     60          1           0       -1.582934   -0.413876   -0.376011
     61          1           0       -1.895763    4.799556   -1.792127
     62          1           0       -0.298617    4.366146   -1.117820
     63          1           0        8.080419   -0.823356   -3.121241
     64          1           0       -1.321498    4.441274    1.327902
     65          1           0       -2.891772    5.273065    0.446296
     66          1           0       -4.064698    4.029990   -2.110344
     67          1           0       -5.307993    3.094284   -1.469528
     68          1           0       -4.595987    2.793876   -2.921116
     69          1           0       -4.789016    0.241538   -1.962919
     70          1           0        9.297057   -0.969777   -0.249655
     71          1           0       10.166194   -0.738102   -1.807951
     72          1           0       -3.592776   -2.794857    3.924162
     73          1           0       -6.567025   -1.262944   -1.785869
     74          1           0       -4.670973   -5.480125   -2.097208
     75          1           0       -3.738215   -5.930724   -0.710980
     76          1           0       -5.373411   -5.383138   -0.361566
     77          1           0       -1.264075    7.917938    1.483569
     78          1           0       -7.855460   -3.208976   -3.037008
     79          1           0       -6.603985   -4.374380   -2.707952
 ---------------------------------------------------------------------

 SCF Done:  E(RB3LYP) =  -1947.84885664     A.U. after   16 cycles

 Excitation energies and oscillator strengths:

 Excited State   1:      Singlet-A      2.1354 eV  580.61 nm  f=0.4311  <S**2>=0.000
     155 ->156         0.70095
 This state for optimization and/or second-order correction.
 Total Energy, E(TD-HF/TD-KS) =  -1947.77038133
 Copying the excited state density for this state as the 1-particle RhoCI density.

 The electronic state is 1-A.
 Alpha  occ. eigenvalues --  -19.18840 -19.17035 -19.14989 -19.12022 -19.10240
 Alpha  occ. eigenvalues --  -19.10047 -14.37324 -14.36170 -14.35964 -14.29794
 Alpha  occ. eigenvalues --  -10.33794 -10.30352 -10.28222 -10.26253 -10.25292
 Alpha  occ. eigenvalues --  -10.25101 -10.24344 -10.24090 -10.23577 -10.23449
 Alpha  occ. eigenvalues --  -10.22678 -10.22465 -10.22386 -10.22329 -10.22145
 Alpha  occ. eigenvalues --  -10.22078 -10.21416 -10.21383 -10.20862 -10.20844
 Alpha  occ. eigenvalues --  -10.20306 -10.20233 -10.20222 -10.20147 -10.19970
 Alpha  occ. eigenvalues --  -10.19587 -10.19497 -10.19365 -10.19297 -10.19286
 Alpha  occ. eigenvalues --  -10.19146 -10.18851 -10.18741  -1.08782  -1.08121
 Alpha  occ. eigenvalues --   -1.03438  -1.01523  -1.01273  -0.99934  -0.96305
 Alpha  occ. eigenvalues --   -0.95664  -0.94437  -0.91897  -0.83213  -0.82533
 Alpha  occ. eigenvalues --   -0.82059  -0.81557  -0.80409  -0.80034  -0.78499
 Alpha  occ. eigenvalues --   -0.77446  -0.76199  -0.75526  -0.74447  -0.73402
 Alpha  occ. eigenvalues --   -0.72067  -0.69766  -0.69669  -0.68874  -0.68568
 Alpha  occ. eigenvalues --   -0.66370  -0.65709  -0.63184  -0.61649  -0.60422
 Alpha  occ. eigenvalues --   -0.59389  -0.58661  -0.57360  -0.56774  -0.55835
 Alpha  occ. eigenvalues --   -0.54898  -0.54733  -0.54581  -0.53191  -0.52786
 Alpha  occ. eigenvalues --   -0.52090  -0.51566  -0.50722  -0.50317  -0.49910
 Alpha  occ. eigenvalues --   -0.49456  -0.48609  -0.48012  -0.47890  -0.47695
 Alpha  occ. eigenvalues --   -0.47458  -0.47261  -0.46834  -0.46470  -0.45810
 Alpha  occ. eigenvalues --   -0.45499  -0.45161  -0.44620  -0.44526  -0.43783
 Alpha  occ. eigenvalues --   -0.43527  -0.43440  -0.43192  -0.42844  -0.42724
 Alpha  occ. eigenvalues --   -0.42471  -0.42156  -0.42044  -0.41589  -0.41035
 Alpha  occ. eigenvalues --   -0.40892  -0.40575  -0.40222  -0.39920  -0.39677
 Alpha  occ. eigenvalues --   -0.39523  -0.39356  -0.39029  -0.38799  -0.38568
 Alpha  occ. eigenvalues --   -0.38325  -0.37471  -0.37051  -0.36924  -0.36541
 Alpha  occ. eigenvalues --   -0.35940  -0.35665  -0.34226  -0.33988  -0.33876
 Alpha  occ. eigenvalues --   -0.33579  -0.33097  -0.33025  -0.32129  -0.31743
 Alpha  occ. eigenvalues --   -0.31408  -0.31075  -0.29802  -0.28998  -0.28312
 Alpha  occ. eigenvalues --   -0.27324  -0.26594  -0.25906  -0.24847  -0.24278
 Alpha  occ. eigenvalues --   -0.23923  -0.23345  -0.22701  -0.22313  -0.19240
 Alpha virt. eigenvalues --   -0.10681  -0.06551  -0.05832  -0.02527  -0.00966
 Alpha virt. eigenvalues --    0.00359   0.01133   0.01348   0.02585   0.03066
 Alpha virt. eigenvalues --    0.03527   0.04106   0.04306   0.04642   0.05379

 Mulliken charges:
               1
     1  O   -0.186229
     2  O   -0.196982
     3  O   -0.219117
     4  O   -0.214246
     5  O   -0.227038
     6  O   -0.200402
     7  N   -0.160415
     8  N   -0.230693
     9  N   -0.186804
    10  N   -0.273583
    11  C    0.183351
    12  C    0.084489
    13  C   -0.034126
    14  C   -0.164575
    15  C   -0.097279
    16  C    0.082342
    17  C   -0.150153
    18  C    0.115075
    19  C    0.012049
    20  C   -0.125895
    21  C    0.192945
    22  C    0.132719
    23  C   -0.119731
    24  C    0.088046
    25  C   -0.006745
    26  C   -0.142191
    27  C   -0.073625
    28  C    0.110933
    29  C    0.057738
    30  C   -0.065032
    31  C   -0.058105
    32  C    0.274357
    33  C   -0.081529
    34  C    0.140086
    35  C    0.099525
    36  C   -0.097152
    37  C    0.173426
    38  C    0.015804
    39  C   -0.161405
    40  C    0.143869
    41  C    0.013378
    42  C    0.030075
    43  C   -0.076640
    44  H    0.001976
    45  H    0.011002
    46  H    0.014853
    47  H    0.115907
    48  H    0.146909
    49  H    0.036663
    50  H    0.050301
    51  H   -0.058735
    52  H    0.002690
    53  H    0.045826
    54  H    0.033850
    55  H    0.028675
    56  H    0.051970
    57  H    0.083381
    58  H    0.088272
    59  H    0.022944
    60  H    0.213807
    61  H    0.013827
    62  H    0.030888
    63  H    0.036652
    64  H    0.086167
    65  H    0.065765
    66  H   -0.058519
    67  H    0.009956
    68  H    0.007591
    69  H   -0.068004
    70  H    0.016251
    71  H    0.027626
    72  H    0.176424
    73  H    0.030822
    74  H    0.028710
    75  H    0.033581
    76  H    0.042663
    77  H    0.173548
    78  H    0.028346
    79  H    0.026899
 Sum of Mulliken charges =   0.00000

 Dipole moment (field-independent basis, Debye):
    X=             -1.5919    Y=              2.8752    Z=              2.5762  Tot=              4.1758
 Quadrupole moment (field-independent basis, Debye-Ang):
   XX=           -232.5576   YY=           -245.3183   ZZ=           -259.2560
   XY=             -5.7700   XZ=             34.4682   YZ=              1.8256

 Normal termination of Gaussian 09 at Wed Jul 10 10:05:45 2019.
