 Gaussian 09, Revision D.01,
 Gaussian 09:  ES64L-G09RevD.01 24-Apr-2013

 --------------------------
 # td=(NStates=1) B3LYP/SVP
 --------------------------

 --
 TD
 --
 Symbolic Z-matrix:
 Charge =  0 Multiplicity = 1

                         Standard orientation:
 ---------------------------------------------------------------------
 Center     Atomic      Atomic             Coordinates (Angstroms)
 Number     Number       Type             X           Y           Z
 ---------------------------------------------------------------------
      1          8           0        5.630159   -0.133678   -3.414390
      2          8           0       -2.879624   -3.218719    3.246503
      3          8           0       -3.304783   -1.026355    3.029305
      4          8           0       -1.484410    7.350959    1.573486
      5          8           0       -0.579379    7.019427   -0.567327
      6          8           0       -2.106025   -4.149609   -0.061327
      7          7           0        2.280943    0.797320    0.536086
      8          7           0        4.455681   -0.537683   -1.324288
      9          7           0       -1.870620    0.777532   -0.312734
     10          7           0       -2.695883   -1.940994   -0.407755
     11          6           0        4.888901   -1.189006   -0.074515
     12          6           0        4.386512   -0.462959    1.197587
     13          6           0        2.971142   -0.088992    1.387690
     14          6           0        1.941521   -0.640883    2.115817
     15          6           0        0.686900   -0.120824    1.753299
     16          6           0        1.022581    0.875625    0.812312
     17          6           0        6.416910   -1.301821   -0.158715
     18          6           0       -0.594808   -0.408601    2.367959
     19          6           0        6.816684   -0.844754   -1.407406
     20          6           0        0.248067    1.929984    0.158257
     21          6           0       -1.113072    1.829803   -0.132582
     22          6           0        5.652751   -0.416479   -2.214807
     23          6           0       -1.951394    2.954720   -0.713361
     24          6           0        2.122152   -1.750478    3.130182
     25          6           0        7.127023   -1.975501    1.001043
     26          6           0       -3.182357    2.382878   -1.195752
     27          6           0       -1.152704   -1.861770    2.409844
     28          6           0       -3.086373    0.944122   -0.996400
     29          6           0       -1.468065    4.396064   -0.684110
     30          6           0        8.260594   -0.823460   -1.958519
     31          6           0       -1.658590    5.238895    0.585250
     32          6           0       -4.317883    3.122529   -1.862295
     33          6           0       -4.015735   -0.029155   -1.264400
     34          6           0       -2.632211   -1.987966    2.909160
     35          6           0       -3.823379   -1.401205   -0.970556
     36          6           0        9.402336   -0.832633   -1.305040
     37          6           0       -1.139244    6.632942    0.408552
     38          6           0       -4.840347   -2.405524   -1.320702
     39          6           0       -4.142182   -3.642755   -1.185981
     40          6           0       -2.967460   -3.332268   -0.429902
     41          6           0       -6.103504   -2.094708   -2.100024
     42          6           0       -4.558339   -5.029685   -1.444733
     43          6           0       -6.784989   -3.005828   -2.732351
     44          1           0        4.547497   -2.257877   -0.111702
     45          1           0        5.089751    0.247744    1.167626
     46          1           0        4.482138   -1.081170    2.026716
     47          1           0        2.737255    1.388484   -0.089752
     48          1           0        3.501603   -0.821710   -1.842975
     49          1           0       -0.516210    0.226959    3.437957
     50          1           0       -1.405463    0.307215    1.851904
     51          1           0        0.942529    2.845907   -0.010949
     52          1           0        3.281153   -1.640534    3.123561
     53          1           0        1.685868   -1.522409    4.070416
     54          1           0        1.819932   -2.705660    2.605670
     55          1           0        6.453748   -2.627407    1.756103
     56          1           0        7.605674   -1.045596    1.504398
     57          1           0        8.059571   -2.466923    0.513616
     58          1           0       -1.139036   -2.376546    1.501340
     59          1           0       -0.571935   -2.614277    2.999627
     60          1           0       -1.630501   -0.119059    0.108492
     61          1           0       -1.935730    4.845799   -1.626715
     62          1           0       -0.412985    4.329529   -0.900851
     63          1           0        8.224065   -0.546646   -3.070193
     64          1           0       -1.222432    4.771566    1.399704
     65          1           0       -2.746555    5.307859    0.829834
     66          1           0       -4.042208    4.298911   -2.141577
     67          1           0       -5.250278    2.837336   -1.199477
     68          1           0       -4.800494    2.469164   -2.660975
     69          1           0       -5.049588    0.343695   -1.767830
     70          1           0        9.351634   -1.172033   -0.218987
     71          1           0       10.411533   -0.819765   -1.892022
     72          1           0       -3.871346   -3.064778    3.564283
     73          1           0       -6.304128   -1.028165   -1.919259
     74          1           0       -4.182490   -5.434943   -2.412321
     75          1           0       -3.963514   -5.687483   -0.833845
     76          1           0       -5.677473   -5.143855   -1.467370
     77          1           0       -0.974362    8.225950    1.242777
     78          1           0       -7.892642   -2.549434   -3.032275
     79          1           0       -6.471581   -4.091127   -2.902936
 ---------------------------------------------------------------------

 SCF Done:  E(RB3LYP) =  -1947.84134340     A.U. after   19 cycles

 Excitation energies and oscillator strengths:

 Excited State   1:      Singlet-A      1.8896 eV  656.14 nm  f=0.3495  <S**2>=0.000
     153 ->156        -0.13001
     154 ->156         0.18623
     155 ->156         0.67151
     155 <-156        -0.12031
 This state for optimization and/or second-order correction.
 Total Energy, E(TD-HF/TD-KS) =  -1947.77190208
 Copying the excited state density for this state as the 1-particle RhoCI density.

 The electronic state is 1-A.
 Alpha  occ. eigenvalues --  -19.19604 -19.18685 -19.15270 -19.11494 -19.11191
 Alpha  occ. eigenvalues --  -19.09994 -14.37030 -14.36865 -14.35789 -14.28660
 Alpha  occ. eigenvalues --  -10.33212 -10.30119 -10.29821 -10.25587 -10.25292
 Alpha  occ. eigenvalues --  -10.25009 -10.24469 -10.24119 -10.23730 -10.23244
 Alpha  occ. eigenvalues --  -10.22890 -10.22692 -10.22074 -10.22054 -10.21912
 Alpha  occ. eigenvalues --  -10.21769 -10.21681 -10.21167 -10.20976 -10.20890
 Alpha  occ. eigenvalues --  -10.20884 -10.20706 -10.20666 -10.20642 -10.20445
 Alpha  occ. eigenvalues --  -10.20302 -10.20263 -10.19788 -10.19412 -10.18872
 Alpha  occ. eigenvalues --  -10.18089 -10.17944 -10.17845  -1.10476  -1.09847
 Alpha  occ. eigenvalues --   -1.01979  -1.01819  -1.01091  -1.00092  -1.00040
 Alpha  occ. eigenvalues --   -0.99019  -0.92089  -0.90695  -0.82145  -0.81841
 Alpha  occ. eigenvalues --   -0.81487  -0.81306  -0.80240  -0.79918  -0.77680
 Alpha  occ. eigenvalues --   -0.77241  -0.76191  -0.75211  -0.74829  -0.72324
 Alpha  occ. eigenvalues --   -0.71597  -0.71009  -0.69955  -0.68883  -0.67956
 Alpha  occ. eigenvalues --   -0.66699  -0.66097  -0.64041  -0.60685  -0.58955
 Alpha  occ. eigenvalues --   -0.58512  -0.58206  -0.57347  -0.56978  -0.56379
 Alpha  occ. eigenvalues --   -0.55416  -0.55306  -0.54939  -0.54002  -0.52757
 Alpha  occ. eigenvalues --   -0.51973  -0.51260  -0.50836  -0.50280  -0.50005
 Alpha  occ. eigenvalues --   -0.49602  -0.49002  -0.48722  -0.47779  -0.47422
 Alpha  occ. eigenvalues --   -0.47069  -0.46891  -0.46834  -0.46174  -0.45683
 Alpha  occ. eigenvalues --   -0.45170  -0.44326  -0.44295  -0.44232  -0.43847
 Alpha  occ. eigenvalues --   -0.43305  -0.43105  -0.42897  -0.42611  -0.42544
 Alpha  occ. eigenvalues --   -0.42360  -0.41949  -0.41674  -0.41392  -0.41066
 Alpha  occ. eigenvalues --   -0.41003  -0.40683  -0.40497  -0.40089  -0.39950
 Alpha  occ. eigenvalues --   -0.39624  -0.39097  -0.38925  -0.38713  -0.38271
 Alpha  occ. eigenvalues --   -0.38052  -0.37740  -0.37653  -0.37346  -0.37198
 Alpha  occ. eigenvalues --   -0.36167  -0.35914  -0.34939  -0.34629  -0.34233
 Alpha  occ. eigenvalues --   -0.33877  -0.33427  -0.33320  -0.31982  -0.31749
 Alpha  occ. eigenvalues --   -0.31136  -0.30764  -0.30277  -0.28380  -0.27103
 Alpha  occ. eigenvalues --   -0.26844  -0.26591  -0.26070  -0.25215  -0.24852
 Alpha  occ. eigenvalues --   -0.24237  -0.23983  -0.23409  -0.21773  -0.18794
 Alpha virt. eigenvalues --   -0.11419  -0.06757  -0.06255  -0.00923  -0.00399
 Alpha virt. eigenvalues --   -0.00355   0.01495   0.02151   0.02245   0.02849
 Alpha virt. eigenvalues --    0.03442   0.03894   0.04019   0.04482   0.04600

 Mulliken charges:
               1
     1  O   -0.220061
     2  O   -0.160804
     3  O   -0.209833
     4  O   -0.258259
     5  O   -0.189750
     6  O   -0.234518
     7  N    0.014218
     8  N   -0.318483
     9  N   -0.048533
    10  N   -0.279545
    11  C    0.045799
    12  C    0.355549
    13  C   -0.105675
    14  C   -0.194702
    15  C   -0.049508
    16  C   -0.025067
    17  C   -0.185167
    18  C   -0.032444
    19  C   -0.072144
    20  C   -0.089316
    21  C    0.082335
    22  C    0.192619
    23  C   -0.155702
    24  C    0.115873
    25  C    0.015280
    26  C   -0.120321
    27  C    0.048179
    28  C    0.152646
    29  C    0.083541
    30  C    0.000918
    31  C    0.062782
    32  C    0.058659
    33  C   -0.170427
    34  C    0.103783
    35  C    0.105432
    36  C   -0.057439
    37  C    0.154122
    38  C   -0.063888
    39  C   -0.169479
    40  C    0.152691
    41  C    0.035058
    42  C    0.108488
    43  C   -0.060421
    44  H    0.022500
    45  H   -0.059975
    46  H   -0.060849
    47  H    0.082634
    48  H    0.175246
    49  H    0.031581
    50  H    0.028529
    51  H    0.027477
    52  H   -0.005978
    53  H    0.023473
    54  H    0.056228
    55  H    0.078864
    56  H    0.061322
    57  H    0.066063
    58  H    0.021830
    59  H    0.011075
    60  H    0.148932
    61  H    0.017771
    62  H    0.003460
    63  H    0.029880
    64  H    0.015730
    65  H    0.043232
    66  H    0.074939
    67  H    0.023495
    68  H    0.018775
    69  H    0.015196
    70  H    0.012513
    71  H    0.056435
    72  H    0.193734
    73  H    0.000908
    74  H    0.019085
    75  H    0.012660
    76  H    0.036452
    77  H    0.204249
    78  H    0.044585
    79  H    0.051465
 Sum of Mulliken charges =   0.00000

 Dipole moment (field-independent basis, Debye):
    X=              0.5135    Y=              1.9540    Z=              2.7234  Tot=              3.3910
 Quadrupole moment (field-independent basis, Debye-Ang):
   XX=           -217.7352   YY=           -245.1914   ZZ=           -266.6585
   XY=             -9.4077   XZ=             30.9950   YZ=              3.1107

 Normal termination of Gaussian 09 at Wed Jul 10 12:51:10 2019.
