 Gaussian 09, Revision D.01,
 Gaussian 09:  ES64L-G09RevD.01 24-Apr-2013

 --------------------------
 # td=(NStates=1) B3LYP/SVP
 --------------------------

 --
 TD
 --
 Symbolic Z-matrix:
 Charge =  0 Multiplicity = 1

                         Standard orientation:
 ---------------------------------------------------------------------
 Center     Atomic      Atomic             Coordinates (Angstroms)
 Number     Number       Type             X           Y           Z
 ---------------------------------------------------------------------
      1          8           0        5.203224   -0.041587   -3.292866
      2          8           0       -2.715997   -3.097049    3.664229
      3          8           0       -3.363635   -0.855652    2.989466
      4          8           0       -1.703082    7.283344    1.540910
      5          8           0       -0.560276    6.924634   -0.455509
      6          8           0       -1.886343   -4.004962    0.163114
      7          7           0        2.426897    1.048358    0.689311
      8          7           0        4.359495   -0.493237   -1.166189
      9          7           0       -1.815751    0.655080   -0.364897
     10          7           0       -2.564463   -1.918273   -0.497829
     11          6           0        4.785462   -1.139715    0.082660
     12          6           0        4.532933   -0.105289    1.344120
     13          6           0        3.081558    0.018734    1.402626
     14          6           0        1.964715   -0.607279    2.047646
     15          6           0        0.775092   -0.030556    1.690839
     16          6           0        1.056584    1.052140    0.812802
     17          6           0        6.323229   -1.160101   -0.186409
     18          6           0       -0.523014   -0.284499    2.522578
     19          6           0        6.601361   -0.843512   -1.476183
     20          6           0        0.165835    1.937533    0.136125
     21          6           0       -1.121429    1.850581   -0.293349
     22          6           0        5.346191   -0.437471   -2.177062
     23          6           0       -2.006041    2.908030   -0.876038
     24          6           0        2.183901   -1.561065    3.140320
     25          6           0        7.204153   -1.901483    0.884578
     26          6           0       -3.122193    2.294557   -1.369896
     27          6           0       -1.077819   -1.649220    2.599752
     28          6           0       -2.980959    0.909779   -1.072131
     29          6           0       -1.551553    4.324474   -0.929000
     30          6           0        7.788139   -0.801916   -2.217056
     31          6           0       -1.936052    5.045361    0.414116
     32          6           0       -4.415633    2.952288   -1.859716
     33          6           0       -3.938478   -0.124387   -1.384287
     34          6           0       -2.472364   -1.782944    3.043302
     35          6           0       -3.690707   -1.487065   -1.050572
     36          6           0        9.137325   -1.101716   -1.720504
     37          6           0       -1.252148    6.487022    0.425446
     38          6           0       -4.616987   -2.562893   -1.521900
     39          6           0       -3.984953   -3.776115   -1.110582
     40          6           0       -2.695370   -3.252278   -0.438027
     41          6           0       -5.886533   -2.348798   -2.231556
     42          6           0       -4.387631   -5.221141   -1.148200
     43          6           0       -6.773528   -3.373122   -2.638600
     44          1           0        4.530985   -2.090037    0.538744
     45          1           0        4.905244    0.782869    1.001593
     46          1           0        5.143968   -0.693708    2.174606
     47          1           0        2.876521    1.520262   -0.003850
     48          1           0        3.379910   -0.826843   -1.284263
     49          1           0       -0.356362    0.038723    3.500360
     50          1           0       -1.284798    0.405264    2.061641
     51          1           0        0.625379    2.886974   -0.102155
     52          1           0        3.363563   -1.706770    3.328127
     53          1           0        1.618047   -1.589804    4.129359
     54          1           0        2.066308   -2.640063    2.746461
     55          1           0        6.443403   -2.471774    1.638181
     56          1           0        7.901790   -1.048699    1.222144
     57          1           0        7.942125   -2.575677    0.480929
     58          1           0       -1.131377   -1.996643    1.574598
     59          1           0       -0.493933   -2.359061    3.086536
     60          1           0       -1.612358   -0.324076   -0.305838
     61          1           0       -2.008222    4.686484   -1.812952
     62          1           0       -0.434075    4.274896   -0.989407
     63          1           0        7.568911   -0.619207   -3.238361
     64          1           0       -1.570042    4.387178    1.178986
     65          1           0       -3.094461    5.187637    0.335800
     66          1           0       -4.450257    3.955662   -2.016328
     67          1           0       -5.196075    2.898105   -1.100514
     68          1           0       -4.864624    2.460885   -2.637972
     69          1           0       -4.765588    0.219855   -2.134992
     70          1           0        9.422506   -1.346807   -0.649137
     71          1           0       10.242360   -1.073388   -2.364155
     72          1           0       -3.706604   -3.003437    3.736936
     73          1           0       -6.143719   -1.322377   -2.542832
     74          1           0       -4.321296   -5.711002   -2.196503
     75          1           0       -3.662039   -5.774123   -0.721985
     76          1           0       -5.426936   -5.305161   -0.807809
     77          1           0       -1.226493    8.055020    1.159709
     78          1           0       -7.592531   -2.985657   -3.083538
     79          1           0       -6.402138   -4.376429   -2.474707
 ---------------------------------------------------------------------

 SCF Done:  E(RB3LYP) =  -1947.85816927     A.U. after   23 cycles

 Excitation energies and oscillator strengths:

 Excited State   1:      Singlet-A      2.0935 eV  592.22 nm  f=0.5515  <S**2>=0.000
     154 ->156         0.14933
     155 ->156         0.69039
     155 <-156        -0.11407
 This state for optimization and/or second-order correction.
 Total Energy, E(TD-HF/TD-KS) =  -1947.78123335
 Copying the excited state density for this state as the 1-particle RhoCI density.

 The electronic state is 1-A.
 Alpha  occ. eigenvalues --  -19.18962 -19.16448 -19.16120 -19.12395 -19.12119
 Alpha  occ. eigenvalues --  -19.09077 -14.38593 -14.36492 -14.36452 -14.29200
 Alpha  occ. eigenvalues --  -10.34373 -10.31507 -10.30080 -10.25916 -10.25895
 Alpha  occ. eigenvalues --  -10.24840 -10.24735 -10.24108 -10.23774 -10.23475
 Alpha  occ. eigenvalues --  -10.23468 -10.23453 -10.23367 -10.23061 -10.23039
 Alpha  occ. eigenvalues --  -10.21997 -10.21926 -10.21651 -10.21371 -10.21309
 Alpha  occ. eigenvalues --  -10.20965 -10.20627 -10.20528 -10.20348 -10.20221
 Alpha  occ. eigenvalues --  -10.19865 -10.19558 -10.19373 -10.19283 -10.18963
 Alpha  occ. eigenvalues --  -10.18821 -10.18703 -10.17710  -1.10107  -1.05261
 Alpha  occ. eigenvalues --   -1.03357  -1.01888  -0.99375  -0.99136  -0.98319
 Alpha  occ. eigenvalues --   -0.96055  -0.94678  -0.92088  -0.83619  -0.82562
 Alpha  occ. eigenvalues --   -0.82308  -0.82091  -0.80299  -0.79448  -0.78036
 Alpha  occ. eigenvalues --   -0.77999  -0.76347  -0.75119  -0.74189  -0.73045
 Alpha  occ. eigenvalues --   -0.71754  -0.70829  -0.69996  -0.69123  -0.68539
 Alpha  occ. eigenvalues --   -0.67235  -0.66175  -0.63819  -0.62255  -0.60688
 Alpha  occ. eigenvalues --   -0.59507  -0.58719  -0.58433  -0.57535  -0.57096
 Alpha  occ. eigenvalues --   -0.56101  -0.55409  -0.54817  -0.54159  -0.53118
 Alpha  occ. eigenvalues --   -0.53019  -0.52215  -0.51727  -0.50780  -0.50420
 Alpha  occ. eigenvalues --   -0.49879  -0.49361  -0.48605  -0.47981  -0.47373
 Alpha  occ. eigenvalues --   -0.46984  -0.46639  -0.46361  -0.45960  -0.45736
 Alpha  occ. eigenvalues --   -0.45267  -0.45089  -0.44560  -0.44277  -0.44097
 Alpha  occ. eigenvalues --   -0.43840  -0.43524  -0.43463  -0.43265  -0.42856
 Alpha  occ. eigenvalues --   -0.42512  -0.42273  -0.41882  -0.41387  -0.41250
 Alpha  occ. eigenvalues --   -0.41011  -0.40991  -0.40538  -0.40464  -0.40170
 Alpha  occ. eigenvalues --   -0.39544  -0.38971  -0.38891  -0.38747  -0.38703
 Alpha  occ. eigenvalues --   -0.38087  -0.38015  -0.37877  -0.37332  -0.37092
 Alpha  occ. eigenvalues --   -0.37071  -0.36601  -0.35943  -0.35455  -0.35168
 Alpha  occ. eigenvalues --   -0.34031  -0.33878  -0.33346  -0.33086  -0.32519
 Alpha  occ. eigenvalues --   -0.30853  -0.30656  -0.29858  -0.29074  -0.28424
 Alpha  occ. eigenvalues --   -0.27840  -0.27179  -0.26748  -0.26599  -0.25505
 Alpha  occ. eigenvalues --   -0.23915  -0.23460  -0.23152  -0.21656  -0.19019
 Alpha virt. eigenvalues --   -0.10954  -0.07789  -0.06538  -0.02520  -0.01479
 Alpha virt. eigenvalues --   -0.01123  -0.00721   0.00280   0.01399   0.03041
 Alpha virt. eigenvalues --    0.03471   0.04610   0.05150   0.05334   0.05680

 Mulliken charges:
               1
     1  O   -0.169420
     2  O   -0.259026
     3  O   -0.289571
     4  O   -0.231117
     5  O   -0.204026
     6  O   -0.256742
     7  N   -0.034371
     8  N   -0.223570
     9  N   -0.058881
    10  N   -0.223543
    11  C   -0.033229
    12  C    0.262510
    13  C   -0.086344
    14  C   -0.097320
    15  C   -0.115387
    16  C    0.039086
    17  C   -0.143641
    18  C    0.099484
    19  C   -0.049931
    20  C   -0.056091
    21  C    0.104816
    22  C    0.185437
    23  C   -0.107735
    24  C    0.019831
    25  C    0.030010
    26  C   -0.125473
    27  C    0.117590
    28  C    0.050757
    29  C    0.108264
    30  C    0.025047
    31  C   -0.007663
    32  C    0.192545
    33  C   -0.142692
    34  C    0.167522
    35  C    0.118727
    36  C   -0.122792
    37  C    0.183844
    38  C    0.018392
    39  C   -0.204814
    40  C    0.127250
    41  C   -0.081448
    42  C    0.142826
    43  C    0.064312
    44  H    0.029176
    45  H   -0.051497
    46  H    0.042681
    47  H    0.078127
    48  H    0.148420
    49  H   -0.006134
    50  H    0.016854
    51  H   -0.035204
    52  H   -0.003930
    53  H    0.050444
    54  H    0.027613
    55  H    0.053318
    56  H    0.054896
    57  H    0.038067
    58  H    0.049134
    59  H   -0.008990
    60  H    0.130100
    61  H    0.011909
    62  H    0.027010
    63  H    0.001734
    64  H    0.048030
    65  H    0.068432
    66  H   -0.024842
    67  H    0.017128
    68  H   -0.008050
    69  H    0.012796
    70  H    0.033542
    71  H    0.066830
    72  H    0.185771
    73  H   -0.011040
    74  H    0.028675
    75  H   -0.016398
    76  H    0.041834
    77  H    0.168103
    78  H   -0.006843
    79  H    0.008884
 Sum of Mulliken charges =   0.00000

 Dipole moment (field-independent basis, Debye):
    X=              2.2080    Y=              2.6619    Z=              1.0243  Tot=              3.6070
 Quadrupole moment (field-independent basis, Debye-Ang):
   XX=           -217.7051   YY=           -251.0009   ZZ=           -267.7725
   XY=            -17.1899   XZ=             35.3110   YZ=              0.1994

 Normal termination of Gaussian 09 at Tue Jul  9 00:55:55 2019.
