 Gaussian 09, Revision D.01,
 Gaussian 09:  ES64L-G09RevD.01 24-Apr-2013

 --------------------------
 # td=(NStates=1) B3LYP/SVP
 --------------------------

 --
 TD
 --
 Symbolic Z-matrix:
 Charge =  0 Multiplicity = 1

                         Standard orientation:
 ---------------------------------------------------------------------
 Center     Atomic      Atomic             Coordinates (Angstroms)
 Number     Number       Type             X           Y           Z
 ---------------------------------------------------------------------
      1          8           0        5.218750   -0.003646   -3.354051
      2          8           0       -2.863605   -3.234289    3.156505
      3          8           0       -3.200375   -1.028337    3.440399
      4          8           0       -1.556889    7.258607    1.503876
      5          8           0       -0.691346    7.034118   -0.438519
      6          8           0       -1.919033   -4.003715   -0.084742
      7          7           0        2.304087    0.876433    0.544219
      8          7           0        4.407059   -0.530546   -1.287763
      9          7           0       -1.893309    0.671719   -0.263625
     10          7           0       -2.680014   -1.930081   -0.502583
     11          6           0        4.846844   -1.147239   -0.042310
     12          6           0        4.480569   -0.334373    1.191025
     13          6           0        3.009410   -0.041899    1.313441
     14          6           0        2.016693   -0.649655    2.187185
     15          6           0        0.723152   -0.122952    1.837563
     16          6           0        0.985102    0.870239    0.861833
     17          6           0        6.389161   -1.312632   -0.224857
     18          6           0       -0.497871   -0.427766    2.662540
     19          6           0        6.664571   -0.942943   -1.474714
     20          6           0        0.146517    1.946208    0.344791
     21          6           0       -1.088417    1.772238   -0.230946
     22          6           0        5.380076   -0.449352   -2.250432
     23          6           0       -1.894289    2.914635   -0.776521
     24          6           0        2.381043   -1.636169    3.258068
     25          6           0        7.184988   -1.975552    0.826719
     26          6           0       -3.106724    2.409773   -1.261486
     27          6           0       -1.099027   -1.803215    2.523901
     28          6           0       -3.084909    0.966231   -0.861124
     29          6           0       -1.440682    4.343151   -0.837903
     30          6           0        7.940202   -0.804573   -2.138245
     31          6           0       -1.748454    5.076089    0.514381
     32          6           0       -4.296782    3.153385   -1.910752
     33          6           0       -4.004397   -0.023176   -1.306469
     34          6           0       -2.460655   -1.912399    3.127582
     35          6           0       -3.787994   -1.414709   -1.065504
     36          6           0        9.183498   -0.812293   -1.646037
     37          6           0       -1.244839    6.497750    0.442097
     38          6           0       -4.748261   -2.456269   -1.484485
     39          6           0       -4.128121   -3.631208   -1.031333
     40          6           0       -2.805913   -3.296176   -0.497530
     41          6           0       -5.919428   -2.201014   -2.275984
     42          6           0       -4.507856   -5.047257   -1.297148
     43          6           0       -6.784605   -3.134273   -2.828262
     44          1           0        4.263874   -2.064635    0.164711
     45          1           0        5.066652    0.648968    1.256369
     46          1           0        4.854668   -0.849897    1.996821
     47          1           0        2.755660    1.469111   -0.263036
     48          1           0        3.523348   -0.664158   -1.503387
     49          1           0       -0.408236   -0.225386    3.780958
     50          1           0       -1.237278    0.549237    2.349685
     51          1           0        0.837495    2.771327    0.245691
     52          1           0        3.370697   -1.470949    3.482056
     53          1           0        1.776016   -1.671757    4.147672
     54          1           0        2.057584   -2.682826    2.853875
     55          1           0        6.794005   -2.899378    1.219865
     56          1           0        7.532318   -1.192954    1.686914
     57          1           0        8.062725   -2.373668    0.272368
     58          1           0       -1.142728   -2.086461    1.420878
     59          1           0       -0.273606   -2.593254    2.825708
     60          1           0       -1.436390   -0.363316   -0.072668
     61          1           0       -1.663241    4.901610   -1.690651
     62          1           0       -0.379535    4.272256   -1.185027
     63          1           0        7.914934   -0.303332   -3.262345
     64          1           0       -1.279476    4.412913    1.315334
     65          1           0       -2.670162    5.322030    0.794802
     66          1           0       -4.205029    4.159742   -2.142106
     67          1           0       -5.228713    3.223685   -1.415207
     68          1           0       -4.637948    2.672934   -2.906086
     69          1           0       -5.082588    0.247251   -1.666652
     70          1           0        9.488897   -0.986191   -0.585630
     71          1           0        9.950652   -0.481244   -2.369935
     72          1           0       -3.760569   -3.299315    3.499795
     73          1           0       -6.306743   -1.174211   -2.485868
     74          1           0       -4.637845   -5.305906   -2.515718
     75          1           0       -3.936139   -5.729721   -0.780035
     76          1           0       -5.517114   -5.259237   -0.913681
     77          1           0       -1.245851    8.127591    1.549649
     78          1           0       -7.610507   -2.919079   -3.511003
     79          1           0       -6.550236   -4.211991   -2.708123
 ---------------------------------------------------------------------

 SCF Done:  E(RB3LYP) =  -1947.90462166     A.U. after   19 cycles

 Excitation energies and oscillator strengths:

 Excited State   1:      Singlet-A      1.9910 eV  622.73 nm  f=0.3831  <S**2>=0.000
     154 ->156         0.16397
     155 ->156         0.67955
     155 <-156        -0.10166
 This state for optimization and/or second-order correction.
 Total Energy, E(TD-HF/TD-KS) =  -1947.83145501
 Copying the excited state density for this state as the 1-particle RhoCI density.

 The electronic state is 1-A.
 Alpha  occ. eigenvalues --  -19.16823 -19.15587 -19.12433 -19.11628 -19.11236
 Alpha  occ. eigenvalues --  -19.09763 -14.39354 -14.37907 -14.34757 -14.28135
 Alpha  occ. eigenvalues --  -10.32043 -10.30687 -10.29465 -10.25862 -10.25379
 Alpha  occ. eigenvalues --  -10.24814 -10.24665 -10.23173 -10.23000 -10.22926
 Alpha  occ. eigenvalues --  -10.22275 -10.22232 -10.22115 -10.21926 -10.21798
 Alpha  occ. eigenvalues --  -10.21621 -10.21385 -10.21064 -10.20919 -10.20907
 Alpha  occ. eigenvalues --  -10.20886 -10.20393 -10.20376 -10.20337 -10.20089
 Alpha  occ. eigenvalues --  -10.19951 -10.19945 -10.19740 -10.19582 -10.19311
 Alpha  occ. eigenvalues --  -10.19232 -10.19212 -10.19070  -1.11276  -1.07511
 Alpha  occ. eigenvalues --   -1.04074  -1.01728  -1.01445  -0.99124  -0.98556
 Alpha  occ. eigenvalues --   -0.98050  -0.95058  -0.91784  -0.83186  -0.82576
 Alpha  occ. eigenvalues --   -0.81468  -0.80721  -0.79849  -0.79621  -0.78145
 Alpha  occ. eigenvalues --   -0.77003  -0.76063  -0.75719  -0.74398  -0.72765
 Alpha  occ. eigenvalues --   -0.72122  -0.71626  -0.69952  -0.69380  -0.68658
 Alpha  occ. eigenvalues --   -0.66240  -0.65922  -0.63742  -0.62451  -0.62237
 Alpha  occ. eigenvalues --   -0.60560  -0.58856  -0.58605  -0.58042  -0.57503
 Alpha  occ. eigenvalues --   -0.55890  -0.55642  -0.55045  -0.53783  -0.52932
 Alpha  occ. eigenvalues --   -0.52135  -0.51419  -0.51090  -0.50808  -0.49839
 Alpha  occ. eigenvalues --   -0.49576  -0.48976  -0.48801  -0.47670  -0.47463
 Alpha  occ. eigenvalues --   -0.47125  -0.46765  -0.46250  -0.46053  -0.45513
 Alpha  occ. eigenvalues --   -0.45006  -0.44794  -0.44407  -0.44075  -0.43720
 Alpha  occ. eigenvalues --   -0.43569  -0.43240  -0.43066  -0.42901  -0.42658
 Alpha  occ. eigenvalues --   -0.42073  -0.41889  -0.41645  -0.41548  -0.41264
 Alpha  occ. eigenvalues --   -0.40853  -0.40646  -0.40273  -0.39818  -0.39610
 Alpha  occ. eigenvalues --   -0.39247  -0.39057  -0.38793  -0.38533  -0.38378
 Alpha  occ. eigenvalues --   -0.38254  -0.37851  -0.37664  -0.37587  -0.36925
 Alpha  occ. eigenvalues --   -0.36492  -0.36221  -0.35018  -0.34614  -0.34139
 Alpha  occ. eigenvalues --   -0.33605  -0.33367  -0.32718  -0.32634  -0.30937
 Alpha  occ. eigenvalues --   -0.30867  -0.30143  -0.28395  -0.28286  -0.27310
 Alpha  occ. eigenvalues --   -0.27240  -0.26729  -0.26589  -0.26331  -0.24718
 Alpha  occ. eigenvalues --   -0.24521  -0.23841  -0.23254  -0.21690  -0.19112
 Alpha virt. eigenvalues --   -0.11129  -0.06737  -0.06085  -0.00970   0.00770
 Alpha virt. eigenvalues --    0.01029   0.01243   0.01291   0.02775   0.03061
 Alpha virt. eigenvalues --    0.03974   0.04274   0.04319   0.05364   0.05909

 Mulliken charges:
               1
     1  O   -0.186201
     2  O   -0.206260
     3  O   -0.201401
     4  O   -0.175096
     5  O   -0.183899
     6  O   -0.183496
     7  N   -0.107001
     8  N   -0.131381
     9  N   -0.109909
    10  N   -0.269232
    11  C    0.039899
    12  C    0.231637
    13  C   -0.110247
    14  C   -0.158620
    15  C   -0.042457
    16  C   -0.006981
    17  C   -0.124412
    18  C   -0.031296
    19  C   -0.067347
    20  C   -0.121186
    21  C    0.151696
    22  C    0.163020
    23  C   -0.118769
    24  C    0.130518
    25  C    0.060615
    26  C   -0.080643
    27  C   -0.036578
    28  C    0.129091
    29  C    0.108138
    30  C   -0.064989
    31  C    0.060355
    32  C    0.110291
    33  C   -0.134226
    34  C    0.157295
    35  C    0.055715
    36  C   -0.052674
    37  C    0.086743
    38  C    0.097840
    39  C   -0.202509
    40  C    0.132206
    41  C   -0.065482
    42  C    0.087911
    43  C   -0.043950
    44  H    0.017073
    45  H   -0.003003
    46  H   -0.048699
    47  H    0.160414
    48  H    0.078986
    49  H    0.022317
    50  H    0.039151
    51  H   -0.001878
    52  H   -0.005385
    53  H    0.001575
    54  H    0.037619
    55  H    0.028078
    56  H    0.063663
    57  H    0.026722
    58  H    0.079364
    59  H    0.036501
    60  H    0.228051
    61  H   -0.011645
    62  H    0.011060
    63  H    0.049435
    64  H    0.063849
    65  H    0.000853
    66  H   -0.012269
    67  H    0.010906
    68  H    0.026734
    69  H    0.016813
    70  H    0.024952
    71  H    0.033144
    72  H    0.168779
    73  H    0.001437
    74  H    0.052688
    75  H   -0.002336
    76  H    0.014410
    77  H    0.161039
    78  H    0.028845
    79  H    0.014029
 Sum of Mulliken charges =   0.00000

 Dipole moment (field-independent basis, Debye):
    X=              0.8895    Y=              2.5071    Z=              2.5668  Tot=              3.6967
 Quadrupole moment (field-independent basis, Debye-Ang):
   XX=           -215.5027   YY=           -245.9023   ZZ=           -263.7953
   XY=            -10.7555   XZ=             34.3939   YZ=              2.6904

 Normal termination of Gaussian 09 at Mon Jul  8 05:37:09 2019.
