 Gaussian 09, Revision D.01,
 Gaussian 09:  ES64L-G09RevD.01 24-Apr-2013

 --------------------------
 # td=(NStates=1) B3LYP/SVP
 --------------------------

 --
 TD
 --
 Symbolic Z-matrix:
 Charge =  0 Multiplicity = 1

                         Standard orientation:
 ---------------------------------------------------------------------
 Center     Atomic      Atomic             Coordinates (Angstroms)
 Number     Number       Type             X           Y           Z
 ---------------------------------------------------------------------
      1          8           0        5.553191    0.106827   -3.296321
      2          8           0       -2.680201   -3.110938    3.272117
      3          8           0       -3.239864   -0.962661    3.096031
      4          8           0       -1.407720    6.902578    1.881905
      5          8           0       -1.210563    7.230141   -0.479456
      6          8           0       -2.008995   -4.000685   -0.039549
      7          7           0        2.334051    0.841961    0.584003
      8          7           0        4.578737   -0.534628   -1.217094
      9          7           0       -1.966243    0.649385   -0.254687
     10          7           0       -2.747398   -1.805371   -0.516210
     11          6           0        4.946429   -1.180444   -0.034033
     12          6           0        4.516541   -0.229916    1.179254
     13          6           0        2.944320   -0.091718    1.300718
     14          6           0        2.029174   -0.749706    2.082321
     15          6           0        0.720272   -0.130816    1.763933
     16          6           0        0.963888    0.813273    0.776089
     17          6           0        6.449865   -1.297075   -0.162693
     18          6           0       -0.597568   -0.351578    2.401661
     19          6           0        6.799757   -0.877449   -1.405253
     20          6           0        0.202952    1.849056    0.080631
     21          6           0       -1.118575    1.776900   -0.379202
     22          6           0        5.599569   -0.399689   -2.185704
     23          6           0       -1.868033    2.895193   -0.896195
     24          6           0        2.326778   -1.624483    3.105171
     25          6           0        7.246726   -1.940562    0.920634
     26          6           0       -3.163363    2.427469   -1.240916
     27          6           0       -1.067104   -1.800133    2.432198
     28          6           0       -3.092341    0.947269   -0.993800
     29          6           0       -1.468209    4.292961   -0.929249
     30          6           0        8.058522   -0.685636   -2.059778
     31          6           0       -1.588692    4.884320    0.501050
     32          6           0       -4.336032    3.121458   -1.859739
     33          6           0       -4.102172   -0.001761   -1.298966
     34          6           0       -2.469920   -1.911644    3.020690
     35          6           0       -3.874387   -1.338622   -1.083616
     36          6           0        9.289911   -0.840769   -1.647889
     37          6           0       -1.372879    6.474155    0.537071
     38          6           0       -4.817331   -2.475440   -1.450770
     39          6           0       -4.105722   -3.593649   -1.102103
     40          6           0       -2.816414   -3.218366   -0.504474
     41          6           0       -6.080475   -2.315060   -2.143484
     42          6           0       -4.600341   -5.023435   -1.180868
     43          6           0       -6.923679   -3.224116   -2.619631
     44          1           0        4.532579   -2.125655    0.212027
     45          1           0        4.987125    0.772106    1.284154
     46          1           0        4.591288   -0.634887    2.153046
     47          1           0        2.760900    1.469341   -0.081806
     48          1           0        3.656542   -0.446401   -1.497679
     49          1           0       -0.744165   -0.057268    3.427332
     50          1           0       -1.300816    0.366380    1.641381
     51          1           0        0.922069    2.642147    0.005152
     52          1           0        3.311777   -1.324513    3.378454
     53          1           0        1.627615   -1.337940    4.075902
     54          1           0        2.356898   -2.819899    2.897539
     55          1           0        6.836258   -2.850999    1.276699
     56          1           0        7.512907   -1.209383    1.610206
     57          1           0        8.340376   -2.377489    0.328038
     58          1           0       -1.263706   -2.501997    1.457729
     59          1           0       -0.349851   -2.429246    3.132375
     60          1           0       -1.584536   -0.539837   -0.241069
     61          1           0       -2.251054    5.124911   -1.555065
     62          1           0       -0.520235    4.631510   -1.259006
     63          1           0        8.059234   -0.534249   -3.085688
     64          1           0       -0.897444    4.321926    1.304362
     65          1           0       -2.706195    4.596708    1.022413
     66          1           0       -3.993066    4.006322   -2.155926
     67          1           0       -5.080713    3.200886   -1.031041
     68          1           0       -4.760755    2.841856   -2.653871
     69          1           0       -5.046141    0.381737   -1.770568
     70          1           0        9.425344   -0.997343   -0.530049
     71          1           0       10.259483   -0.593508   -2.102253
     72          1           0       -3.581077   -3.261169    3.617737
     73          1           0       -6.290399   -1.331276   -2.049597
     74          1           0       -4.851727   -5.327981   -2.326988
     75          1           0       -3.976814   -5.781691   -0.730258
     76          1           0       -5.612051   -5.097239   -0.830313
     77          1           0       -1.177228    7.857210    1.591896
     78          1           0       -7.693690   -2.822117   -3.134681
     79          1           0       -6.728345   -4.272404   -2.568812
 ---------------------------------------------------------------------

 SCF Done:  E(RB3LYP) =  -1947.80218377     A.U. after   16 cycles

 Excitation energies and oscillator strengths:

 Excited State   1:      Singlet-A      2.1577 eV  574.61 nm  f=0.4311  <S**2>=0.000
     154 ->156         0.13505
     155 ->156         0.68684
 This state for optimization and/or second-order correction.
 Total Energy, E(TD-HF/TD-KS) =  -1947.72288992
 Copying the excited state density for this state as the 1-particle RhoCI density.

 The electronic state is 1-A.
 Alpha  occ. eigenvalues --  -19.20507 -19.18217 -19.15702 -19.11316 -19.10572
 Alpha  occ. eigenvalues --  -19.09249 -14.38000 -14.36455 -14.35396 -14.29453
 Alpha  occ. eigenvalues --  -10.35027 -10.29345 -10.29091 -10.26516 -10.25216
 Alpha  occ. eigenvalues --  -10.25000 -10.24639 -10.24500 -10.23218 -10.22790
 Alpha  occ. eigenvalues --  -10.22665 -10.22483 -10.22295 -10.22291 -10.22094
 Alpha  occ. eigenvalues --  -10.22048 -10.21845 -10.21796 -10.20368 -10.20212
 Alpha  occ. eigenvalues --  -10.19611 -10.19338 -10.19292 -10.19266 -10.19234
 Alpha  occ. eigenvalues --  -10.19215 -10.18959 -10.18735 -10.18520 -10.18508
 Alpha  occ. eigenvalues --  -10.18438 -10.18325 -10.18075  -1.11935  -1.08517
 Alpha  occ. eigenvalues --   -1.02890  -1.01686  -1.00047  -0.99759  -0.98155
 Alpha  occ. eigenvalues --   -0.96533  -0.95713  -0.91802  -0.82825  -0.82792
 Alpha  occ. eigenvalues --   -0.81900  -0.81275  -0.80670  -0.79332  -0.77986
 Alpha  occ. eigenvalues --   -0.77246  -0.75986  -0.75587  -0.74725  -0.73070
 Alpha  occ. eigenvalues --   -0.72239  -0.71953  -0.70099  -0.69141  -0.67854
 Alpha  occ. eigenvalues --   -0.67370  -0.66150  -0.64022  -0.61730  -0.61506
 Alpha  occ. eigenvalues --   -0.60119  -0.59039  -0.58367  -0.57192  -0.56631
 Alpha  occ. eigenvalues --   -0.55922  -0.55219  -0.54596  -0.54385  -0.53415
 Alpha  occ. eigenvalues --   -0.52647  -0.52247  -0.51155  -0.50482  -0.50158
 Alpha  occ. eigenvalues --   -0.48516  -0.48387  -0.48260  -0.48025  -0.47874
 Alpha  occ. eigenvalues --   -0.47257  -0.46876  -0.46296  -0.46266  -0.45954
 Alpha  occ. eigenvalues --   -0.45909  -0.45344  -0.44972  -0.44603  -0.43981
 Alpha  occ. eigenvalues --   -0.43766  -0.43273  -0.43185  -0.43161  -0.42983
 Alpha  occ. eigenvalues --   -0.42539  -0.42356  -0.42142  -0.41564  -0.41194
 Alpha  occ. eigenvalues --   -0.40927  -0.40554  -0.40233  -0.40088  -0.40009
 Alpha  occ. eigenvalues --   -0.39747  -0.39323  -0.38894  -0.38368  -0.37983
 Alpha  occ. eigenvalues --   -0.37800  -0.37542  -0.37382  -0.37024  -0.36515
 Alpha  occ. eigenvalues --   -0.36178  -0.35673  -0.35512  -0.34623  -0.33672
 Alpha  occ. eigenvalues --   -0.33123  -0.33047  -0.32604  -0.32320  -0.31139
 Alpha  occ. eigenvalues --   -0.30532  -0.30207  -0.29972  -0.28783  -0.27874
 Alpha  occ. eigenvalues --   -0.27266  -0.26447  -0.25550  -0.25097  -0.24647
 Alpha  occ. eigenvalues --   -0.24001  -0.23838  -0.23514  -0.22373  -0.19527
 Alpha virt. eigenvalues --   -0.10887  -0.06572  -0.06112  -0.03852  -0.00616
 Alpha virt. eigenvalues --    0.01147   0.01722   0.02499   0.03096   0.03728
 Alpha virt. eigenvalues --    0.04070   0.04314   0.04388   0.04659   0.04783

 Mulliken charges:
               1
     1  O   -0.211180
     2  O   -0.072088
     3  O   -0.264611
     4  O   -0.216933
     5  O   -0.276167
     6  O   -0.207679
     7  N   -0.034739
     8  N   -0.177171
     9  N   -0.205834
    10  N   -0.327398
    11  C    0.150497
    12  C    0.203450
    13  C   -0.163702
    14  C   -0.086203
    15  C   -0.037325
    16  C    0.006929
    17  C   -0.159088
    18  C    0.042850
    19  C   -0.026510
    20  C   -0.110222
    21  C    0.173729
    22  C    0.175346
    23  C   -0.011718
    24  C    0.003997
    25  C    0.073113
    26  C   -0.174367
    27  C   -0.143203
    28  C    0.115365
    29  C    0.032481
    30  C    0.017385
    31  C   -0.146830
    32  C    0.280854
    33  C   -0.155224
    34  C    0.084368
    35  C    0.142098
    36  C   -0.058221
    37  C    0.229919
    38  C    0.026102
    39  C   -0.194598
    40  C    0.171425
    41  C    0.026022
    42  C    0.070271
    43  C    0.065439
    44  H    0.004423
    45  H    0.006117
    46  H   -0.042936
    47  H    0.107282
    48  H    0.096577
    49  H   -0.000143
    50  H    0.071922
    51  H   -0.015594
    52  H   -0.010148
    53  H    0.036665
    54  H    0.052733
    55  H    0.027402
    56  H    0.032904
    57  H    0.050631
    58  H    0.098746
    59  H    0.028054
    60  H    0.268468
    61  H    0.064609
    62  H    0.010509
    63  H   -0.015998
    64  H    0.071697
    65  H    0.077479
    66  H   -0.049825
    67  H    0.033051
    68  H   -0.040483
    69  H   -0.004924
    70  H    0.002978
    71  H    0.030705
    72  H    0.174576
    73  H   -0.058581
    74  H    0.031709
    75  H    0.027522
    76  H    0.014417
    77  H    0.193809
    78  H   -0.007476
    79  H    0.000494
 Sum of Mulliken charges =   0.00000

 Dipole moment (field-independent basis, Debye):
    X=              0.7079    Y=              1.3963    Z=              2.8166  Tot=              3.2224
 Quadrupole moment (field-independent basis, Debye-Ang):
   XX=           -222.5916   YY=           -249.0391   ZZ=           -263.0206
   XY=             -2.5505   XZ=             31.5983   YZ=              0.7975

 Normal termination of Gaussian 09 at Tue Jul  9 06:47:45 2019.
