 Gaussian 09, Revision D.01,
 Gaussian 09:  ES64L-G09RevD.01 24-Apr-2013

 --------------------------
 # td=(NStates=1) B3LYP/SVP
 --------------------------

 --
 TD
 --
 Symbolic Z-matrix:
 Charge =  0 Multiplicity = 1

                         Standard orientation:
 ---------------------------------------------------------------------
 Center     Atomic      Atomic             Coordinates (Angstroms)
 Number     Number       Type             X           Y           Z
 ---------------------------------------------------------------------
      1          8           0        5.274728   -0.357928   -3.284627
      2          8           0       -2.845931   -3.043918    3.123260
      3          8           0       -3.251537   -0.878671    2.968011
      4          8           0       -1.885674    7.364055    1.291658
      5          8           0       -0.629531    6.950360   -0.580810
      6          8           0       -1.649631   -3.962013   -0.142281
      7          7           0        2.368047    1.048762    0.605815
      8          7           0        4.448267   -0.637793   -1.202346
      9          7           0       -1.899726    0.625848   -0.297087
     10          7           0       -2.645850   -1.910253   -0.430925
     11          6           0        4.843473   -1.190586    0.026835
     12          6           0        4.410998   -0.238815    1.231356
     13          6           0        2.987343    0.038275    1.359598
     14          6           0        2.015121   -0.597741    2.032237
     15          6           0        0.731289   -0.028190    1.762431
     16          6           0        0.986431    1.013966    0.806667
     17          6           0        6.404134   -1.170876   -0.070063
     18          6           0       -0.550938   -0.243831    2.580550
     19          6           0        6.747205   -0.931519   -1.417417
     20          6           0        0.080961    1.984808    0.137123
     21          6           0       -1.113292    1.826260   -0.316690
     22          6           0        5.487367   -0.603697   -2.138978
     23          6           0       -1.990201    2.953527   -0.754853
     24          6           0        2.263795   -1.505713    3.211763
     25          6           0        7.334934   -1.597812    1.045438
     26          6           0       -3.216637    2.332116   -1.259207
     27          6           0       -0.990888   -1.765323    2.505669
     28          6           0       -3.079268    0.959626   -0.878968
     29          6           0       -1.580282    4.365555   -0.907904
     30          6           0        8.078634   -0.800185   -2.108275
     31          6           0       -2.014653    5.207630    0.324023
     32          6           0       -4.344282    2.919029   -1.969997
     33          6           0       -3.989542   -0.134759   -1.117046
     34          6           0       -2.492349   -1.809338    2.871365
     35          6           0       -3.669053   -1.425512   -0.978153
     36          6           0        9.322207   -0.725658   -1.616477
     37          6           0       -1.488273    6.577605    0.261915
     38          6           0       -4.653171   -2.654685   -1.325787
     39          6           0       -3.931008   -3.778153   -1.127375
     40          6           0       -2.698003   -3.285713   -0.509936
     41          6           0       -5.911837   -2.518335   -2.054104
     42          6           0       -4.374801   -5.217368   -1.237816
     43          6           0       -6.866882   -3.575364   -2.210877
     44          1           0        4.442506   -2.213509    0.160073
     45          1           0        4.986961    0.795161    0.892659
     46          1           0        4.689112   -0.557707    2.099952
     47          1           0        2.933367    1.622600   -0.057747
     48          1           0        3.381057   -0.438673   -1.402397
     49          1           0       -0.192355   -0.189652    3.679163
     50          1           0       -1.295635    0.510169    2.356860
     51          1           0        0.634448    2.823164   -0.367455
     52          1           0        3.283884   -1.574203    3.473889
     53          1           0        1.634639   -1.407746    4.238042
     54          1           0        1.874109   -2.699767    3.032271
     55          1           0        6.710840   -2.167496    1.813400
     56          1           0        7.755838   -0.824076    1.481517
     57          1           0        8.235643   -2.283683    0.910294
     58          1           0       -0.862548   -1.902060    1.388988
     59          1           0       -0.419385   -2.428721    3.035909
     60          1           0       -1.601820   -0.327166   -0.175237
     61          1           0       -1.985728    4.800246   -1.839952
     62          1           0       -0.482652    4.210436   -0.910688
     63          1           0        7.905017   -0.634680   -3.290001
     64          1           0       -1.645582    4.653917    1.256270
     65          1           0       -3.006095    5.021882    0.427237
     66          1           0       -4.253142    4.044693   -2.248652
     67          1           0       -5.277065    2.905704   -1.296460
     68          1           0       -4.849765    2.196298   -2.669964
     69          1           0       -4.780885    0.207231   -1.590276
     70          1           0        9.455051   -1.004379   -0.455212
     71          1           0       10.172204   -0.600021   -2.119122
     72          1           0       -3.690595   -3.127581    3.243267
     73          1           0       -6.469508   -1.517233   -2.169704
     74          1           0       -4.608695   -5.621450   -2.350387
     75          1           0       -3.600913   -5.914065   -0.888946
     76          1           0       -5.509820   -5.220720   -0.653027
     77          1           0       -1.343142    8.150130    1.393880
     78          1           0       -7.976205   -3.267668   -2.682674
     79          1           0       -6.668892   -4.755745   -2.387933
 ---------------------------------------------------------------------

 SCF Done:  E(RB3LYP) =  -1947.80098478     A.U. after   19 cycles

 Excitation energies and oscillator strengths:

 Excited State   1:      Singlet-A      2.1449 eV  578.04 nm  f=0.4607  <S**2>=0.000
     155 ->156         0.69597
     155 <-156        -0.10091
 This state for optimization and/or second-order correction.
 Total Energy, E(TD-HF/TD-KS) =  -1947.72216073
 Copying the excited state density for this state as the 1-particle RhoCI density.

 The electronic state is 1-A.
 Alpha  occ. eigenvalues --  -19.19522 -19.16138 -19.13548 -19.10688 -19.09874
 Alpha  occ. eigenvalues --  -19.08702 -14.38842 -14.36598 -14.35141 -14.28470
 Alpha  occ. eigenvalues --  -10.33822 -10.30285 -10.28457 -10.25894 -10.25282
 Alpha  occ. eigenvalues --  -10.24958 -10.24324 -10.24014 -10.23507 -10.22868
 Alpha  occ. eigenvalues --  -10.22718 -10.22519 -10.22339 -10.22204 -10.22181
 Alpha  occ. eigenvalues --  -10.21973 -10.21938 -10.21936 -10.21683 -10.21675
 Alpha  occ. eigenvalues --  -10.21674 -10.21614 -10.21329 -10.21272 -10.20996
 Alpha  occ. eigenvalues --  -10.20338 -10.19984 -10.19756 -10.19556 -10.19510
 Alpha  occ. eigenvalues --  -10.18966 -10.18084 -10.16988  -1.11033  -1.09855
 Alpha  occ. eigenvalues --   -1.03707  -0.99934  -0.99862  -0.98492  -0.97925
 Alpha  occ. eigenvalues --   -0.97399  -0.94052  -0.91733  -0.84060  -0.82434
 Alpha  occ. eigenvalues --   -0.81163  -0.81039  -0.80334  -0.79991  -0.79148
 Alpha  occ. eigenvalues --   -0.76746  -0.76240  -0.75623  -0.73748  -0.73027
 Alpha  occ. eigenvalues --   -0.72182  -0.71191  -0.69779  -0.68626  -0.68019
 Alpha  occ. eigenvalues --   -0.67613  -0.66310  -0.64254  -0.62500  -0.61411
 Alpha  occ. eigenvalues --   -0.61084  -0.59846  -0.58021  -0.57509  -0.57232
 Alpha  occ. eigenvalues --   -0.56489  -0.55807  -0.55523  -0.54264  -0.53267
 Alpha  occ. eigenvalues --   -0.52998  -0.51923  -0.51474  -0.50674  -0.50646
 Alpha  occ. eigenvalues --   -0.49387  -0.49040  -0.48471  -0.48008  -0.47548
 Alpha  occ. eigenvalues --   -0.47327  -0.47027  -0.46667  -0.46029  -0.45337
 Alpha  occ. eigenvalues --   -0.45161  -0.44666  -0.44354  -0.44147  -0.43781
 Alpha  occ. eigenvalues --   -0.43545  -0.43386  -0.42817  -0.42613  -0.42280
 Alpha  occ. eigenvalues --   -0.42085  -0.41814  -0.41691  -0.41242  -0.40629
 Alpha  occ. eigenvalues --   -0.40411  -0.40325  -0.40006  -0.39475  -0.39454
 Alpha  occ. eigenvalues --   -0.39247  -0.39242  -0.38894  -0.38709  -0.38541
 Alpha  occ. eigenvalues --   -0.38159  -0.37625  -0.37494  -0.37338  -0.36426
 Alpha  occ. eigenvalues --   -0.36298  -0.35487  -0.35184  -0.34878  -0.33441
 Alpha  occ. eigenvalues --   -0.33216  -0.32861  -0.32615  -0.32450  -0.31783
 Alpha  occ. eigenvalues --   -0.31028  -0.30811  -0.29030  -0.28948  -0.26662
 Alpha  occ. eigenvalues --   -0.26336  -0.26052  -0.25661  -0.25538  -0.24567
 Alpha  occ. eigenvalues --   -0.24414  -0.23323  -0.23138  -0.22584  -0.19302
 Alpha virt. eigenvalues --   -0.10726  -0.07031  -0.06633  -0.02740  -0.01442
 Alpha virt. eigenvalues --    0.00197   0.01272   0.02449   0.02680   0.03081
 Alpha virt. eigenvalues --    0.03295   0.03880   0.04029   0.04626   0.04898

 Mulliken charges:
               1
     1  O   -0.185112
     2  O   -0.066155
     3  O   -0.228334
     4  O   -0.179208
     5  O   -0.265835
     6  O   -0.285424
     7  N   -0.117838
     8  N   -0.248497
     9  N   -0.075529
    10  N   -0.190249
    11  C    0.106183
    12  C    0.207917
    13  C   -0.087347
    14  C   -0.042795
    15  C   -0.114919
    16  C    0.007239
    17  C   -0.169686
    18  C    0.087702
    19  C   -0.061163
    20  C   -0.111873
    21  C    0.180534
    22  C    0.144846
    23  C   -0.165231
    24  C   -0.023552
    25  C    0.101278
    26  C   -0.091341
    27  C   -0.005578
    28  C    0.053249
    29  C    0.128063
    30  C   -0.023981
    31  C    0.016721
    32  C    0.072298
    33  C   -0.029730
    34  C    0.107618
    35  C    0.115712
    36  C   -0.007799
    37  C    0.191295
    38  C    0.000748
    39  C   -0.114816
    40  C    0.138895
    41  C   -0.025346
    42  C   -0.009765
    43  C   -0.150763
    44  H    0.035561
    45  H    0.013736
    46  H   -0.065376
    47  H    0.130622
    48  H    0.162354
    49  H    0.011457
    50  H    0.025185
    51  H    0.008340
    52  H   -0.005716
    53  H    0.040735
    54  H    0.040442
    55  H    0.021982
    56  H   -0.003199
    57  H    0.048747
    58  H    0.089931
    59  H   -0.002867
    60  H    0.142737
    61  H    0.033166
    62  H    0.008065
    63  H    0.045925
    64  H    0.058297
    65  H    0.002433
    66  H    0.045327
    67  H    0.024779
    68  H    0.032152
    69  H   -0.131298
    70  H    0.022020
    71  H   -0.005496
    72  H    0.106501
    73  H    0.032254
    74  H    0.046955
    75  H    0.036843
    76  H    0.063227
    77  H    0.186981
    78  H    0.044489
    79  H    0.070277
 Sum of Mulliken charges =   0.00000

 Dipole moment (field-independent basis, Debye):
    X=              0.4029    Y=              3.8948    Z=              3.4018  Tot=              5.1869
 Quadrupole moment (field-independent basis, Debye-Ang):
   XX=           -214.9909   YY=           -245.0823   ZZ=           -263.1632
   XY=             -9.8796   XZ=             33.9890   YZ=              2.5922

 Normal termination of Gaussian 09 at Tue Jul  9 23:36:00 2019.
