 Gaussian 09, Revision D.01,
 Gaussian 09:  ES64L-G09RevD.01 24-Apr-2013

 --------------------------
 # td=(NStates=1) B3LYP/SVP
 --------------------------

 --
 TD
 --
 Symbolic Z-matrix:
 Charge =  0 Multiplicity = 1

                         Standard orientation:
 ---------------------------------------------------------------------
 Center     Atomic      Atomic             Coordinates (Angstroms)
 Number     Number       Type             X           Y           Z
 ---------------------------------------------------------------------
      1          8           0        5.215012   -0.321127   -3.328064
      2          8           0       -2.962353   -2.760364    3.535337
      3          8           0       -3.203870   -0.483696    3.249054
      4          8           0       -1.950165    7.271225    1.084871
      5          8           0       -0.171089    6.853847   -0.421930
      6          8           0       -1.763135   -4.021457    0.164521
      7          7           0        2.373644    0.927070    0.566401
      8          7           0        4.339734   -0.651304   -1.172544
      9          7           0       -1.909382    0.635129   -0.411413
     10          7           0       -2.576492   -1.894155   -0.584767
     11          6           0        4.834375   -1.128617    0.127530
     12          6           0        4.397343   -0.210593    1.291037
     13          6           0        2.951519    0.019587    1.333824
     14          6           0        2.012142   -0.500853    2.229404
     15          6           0        0.679689    0.043878    1.819051
     16          6           0        0.954016    0.921863    0.800762
     17          6           0        6.194531   -1.316281   -0.083530
     18          6           0       -0.568516   -0.152608    2.556779
     19          6           0        6.620626   -0.989799   -1.427806
     20          6           0        0.148301    1.868787    0.088901
     21          6           0       -1.148192    1.742048   -0.397541
     22          6           0        5.307571   -0.532670   -2.133920
     23          6           0       -1.990399    2.910007   -0.944792
     24          6           0        2.174176   -1.531627    3.265245
     25          6           0        7.309983   -1.753576    0.890197
     26          6           0       -3.208207    2.331150   -1.353615
     27          6           0       -1.109113   -1.531486    2.630583
     28          6           0       -3.036772    0.807013   -1.047604
     29          6           0       -1.507748    4.332561   -0.993863
     30          6           0        7.844409   -0.849230   -2.119492
     31          6           0       -1.840531    5.155475    0.241098
     32          6           0       -4.467447    3.003531   -1.862056
     33          6           0       -3.977733   -0.182266   -1.430700
     34          6           0       -2.475148   -1.518371    3.185374
     35          6           0       -3.579129   -1.520265   -1.172568
     36          6           0        9.093865   -0.825660   -1.660978
     37          6           0       -1.234335    6.472315    0.284914
     38          6           0       -4.571651   -2.738998   -1.554126
     39          6           0       -3.922229   -3.864638   -0.979260
     40          6           0       -2.552262   -3.331665   -0.411276
     41          6           0       -5.859316   -2.639104   -2.081210
     42          6           0       -4.272458   -5.297783   -1.004213
     43          6           0       -6.598669   -3.526379   -2.749922
     44          1           0        4.479961   -2.130858    0.283081
     45          1           0        5.024475    0.716696    1.243786
     46          1           0        4.921344   -0.641053    2.375134
     47          1           0        2.818434    1.427494   -0.065535
     48          1           0        3.470123   -0.884412   -1.340664
     49          1           0       -0.247392    0.088735    3.582461
     50          1           0       -1.417225    0.479054    2.208803
     51          1           0        0.618282    2.917406   -0.381603
     52          1           0        3.320279   -1.576050    3.421510
     53          1           0        1.656720   -1.025929    4.205617
     54          1           0        1.888175   -2.514397    3.034103
     55          1           0        6.755015   -2.385245    1.451010
     56          1           0        7.514217   -0.982458    1.520473
     57          1           0        8.026055   -2.236987    0.272506
     58          1           0       -1.132826   -1.934272    1.549386
     59          1           0       -0.594297   -2.236991    3.216910
     60          1           0       -1.472361   -0.182570   -0.261721
     61          1           0       -1.908560    4.964515   -1.927062
     62          1           0       -0.227418    4.510850   -1.019579
     63          1           0        7.587351   -0.853226   -3.088194
     64          1           0       -1.506691    4.432531    1.082309
     65          1           0       -2.873453    5.268055    0.397351
     66          1           0       -4.434256    4.006221   -1.824245
     67          1           0       -5.266495    2.689376   -1.159766
     68          1           0       -4.780379    2.419013   -2.850838
     69          1           0       -4.777538    0.216802   -1.925217
     70          1           0        9.307153   -0.667572   -0.464984
     71          1           0        9.852808   -0.731872   -2.397167
     72          1           0       -3.875813   -2.515662    4.085200
     73          1           0       -6.409980   -1.630841   -2.058650
     74          1           0       -4.368242   -5.690432   -2.115171
     75          1           0       -3.588918   -5.951315   -0.599369
     76          1           0       -5.295683   -5.278793   -0.657140
     77          1           0       -1.771053    8.324109    0.939303
     78          1           0       -7.722210   -3.382011   -3.079185
     79          1           0       -6.093471   -4.447005   -2.724272
 ---------------------------------------------------------------------

 SCF Done:  E(RB3LYP) =  -1947.78879885     A.U. after   16 cycles

 Excitation energies and oscillator strengths:

 Excited State   1:      Singlet-A      2.3190 eV  534.64 nm  f=0.4636  <S**2>=0.000
     155 ->156         0.69581
 This state for optimization and/or second-order correction.
 Total Energy, E(TD-HF/TD-KS) =  -1947.70357574
 Copying the excited state density for this state as the 1-particle RhoCI density.

 The electronic state is 1-A.
 Alpha  occ. eigenvalues --  -19.20974 -19.18296 -19.13018 -19.12224 -19.11746
 Alpha  occ. eigenvalues --  -19.10033 -14.37259 -14.37214 -14.34885 -14.29415
 Alpha  occ. eigenvalues --  -10.33700 -10.31373 -10.28380 -10.28203 -10.25350
 Alpha  occ. eigenvalues --  -10.24638 -10.24482 -10.23754 -10.23458 -10.23316
 Alpha  occ. eigenvalues --  -10.22980 -10.22812 -10.22410 -10.22315 -10.22301
 Alpha  occ. eigenvalues --  -10.21721 -10.21388 -10.21149 -10.20145 -10.20135
 Alpha  occ. eigenvalues --  -10.20019 -10.19926 -10.19659 -10.19628 -10.19282
 Alpha  occ. eigenvalues --  -10.19104 -10.19068 -10.18964 -10.18956 -10.18851
 Alpha  occ. eigenvalues --  -10.18821 -10.18452 -10.18119  -1.08748  -1.06090
 Alpha  occ. eigenvalues --   -1.03677  -1.02405  -1.01254  -0.99224  -0.96938
 Alpha  occ. eigenvalues --   -0.96258  -0.95374  -0.93940  -0.82919  -0.82763
 Alpha  occ. eigenvalues --   -0.82741  -0.81144  -0.80766  -0.79945  -0.78846
 Alpha  occ. eigenvalues --   -0.78193  -0.77433  -0.75782  -0.74815  -0.73151
 Alpha  occ. eigenvalues --   -0.72174  -0.71782  -0.69998  -0.69058  -0.68844
 Alpha  occ. eigenvalues --   -0.68109  -0.66726  -0.63794  -0.62796  -0.61137
 Alpha  occ. eigenvalues --   -0.60811  -0.58989  -0.58375  -0.57840  -0.57269
 Alpha  occ. eigenvalues --   -0.56317  -0.55443  -0.54678  -0.54250  -0.53179
 Alpha  occ. eigenvalues --   -0.52710  -0.51882  -0.51409  -0.50706  -0.50139
 Alpha  occ. eigenvalues --   -0.49505  -0.49304  -0.48339  -0.48209  -0.47888
 Alpha  occ. eigenvalues --   -0.47443  -0.47057  -0.46959  -0.46397  -0.46266
 Alpha  occ. eigenvalues --   -0.46150  -0.45419  -0.44594  -0.44491  -0.43968
 Alpha  occ. eigenvalues --   -0.43660  -0.43451  -0.43290  -0.42990  -0.42648
 Alpha  occ. eigenvalues --   -0.42600  -0.42552  -0.42018  -0.41462  -0.41335
 Alpha  occ. eigenvalues --   -0.41008  -0.40943  -0.40491  -0.40093  -0.39651
 Alpha  occ. eigenvalues --   -0.39338  -0.39199  -0.39106  -0.38729  -0.38554
 Alpha  occ. eigenvalues --   -0.38420  -0.37935  -0.37679  -0.37309  -0.36730
 Alpha  occ. eigenvalues --   -0.36190  -0.35738  -0.35545  -0.34828  -0.34355
 Alpha  occ. eigenvalues --   -0.33934  -0.33465  -0.32968  -0.31565  -0.31279
 Alpha  occ. eigenvalues --   -0.31036  -0.30632  -0.29555  -0.28134  -0.27915
 Alpha  occ. eigenvalues --   -0.27415  -0.26994  -0.26181  -0.25001  -0.24748
 Alpha  occ. eigenvalues --   -0.23955  -0.23338  -0.22823  -0.22025  -0.18954
 Alpha virt. eigenvalues --   -0.09625  -0.06182  -0.05920  -0.03749  -0.00688
 Alpha virt. eigenvalues --   -0.00136   0.00615   0.01081   0.01317   0.02268
 Alpha virt. eigenvalues --    0.02770   0.03035   0.04242   0.04491   0.04910

 Mulliken charges:
               1
     1  O   -0.222959
     2  O   -0.250815
     3  O   -0.290197
     4  O   -0.222434
     5  O   -0.326471
     6  O   -0.168321
     7  N    0.015915
     8  N   -0.134896
     9  N    0.112921
    10  N   -0.224505
    11  C    0.139786
    12  C    0.057459
    13  C   -0.033658
    14  C   -0.180396
    15  C   -0.070097
    16  C    0.071018
    17  C   -0.284889
    18  C    0.078584
    19  C   -0.110596
    20  C   -0.105663
    21  C   -0.035858
    22  C    0.156759
    23  C   -0.016896
    24  C    0.083268
    25  C    0.251274
    26  C   -0.161461
    27  C    0.010682
    28  C    0.023780
    29  C   -0.095495
    30  C    0.046401
    31  C    0.035142
    32  C    0.143462
    33  C   -0.060316
    34  C    0.158776
    35  C    0.098122
    36  C   -0.035580
    37  C    0.200486
    38  C    0.068042
    39  C   -0.229703
    40  C    0.182136
    41  C   -0.106474
    42  C    0.117956
    43  C   -0.026402
    44  H    0.016455
    45  H    0.006397
    46  H    0.036840
    47  H    0.055454
    48  H    0.080175
    49  H    0.004012
    50  H    0.034335
    51  H    0.031162
    52  H   -0.007125
    53  H    0.034850
    54  H    0.038658
    55  H   -0.038774
    56  H    0.003650
    57  H    0.039694
    58  H    0.092401
    59  H    0.006969
    60  H    0.095669
    61  H    0.041886
    62  H    0.078498
    63  H   -0.038135
    64  H    0.068933
    65  H    0.012577
    66  H   -0.012018
    67  H    0.029821
    68  H    0.052182
    69  H   -0.081810
    70  H    0.051324
    71  H    0.018193
    72  H    0.232796
    73  H    0.002315
    74  H    0.042854
    75  H    0.002908
    76  H    0.028063
    77  H    0.248216
    78  H    0.051132
    79  H   -0.018446
 Sum of Mulliken charges =   0.00000

 Dipole moment (field-independent basis, Debye):
    X=             -1.4704    Y=              2.4992    Z=              3.9168  Tot=              4.8734
 Quadrupole moment (field-independent basis, Debye-Ang):
   XX=           -226.2591   YY=           -236.5015   ZZ=           -263.3636
   XY=            -19.5944   XZ=             29.4242   YZ=              1.6128

 Normal termination of Gaussian 09 at Wed Jul 10 03:34:58 2019.
