 Gaussian 09, Revision D.01,
 Gaussian 09:  ES64L-G09RevD.01 24-Apr-2013

 --------------------------
 # td=(NStates=1) B3LYP/SVP
 --------------------------

 --
 TD
 --
 Symbolic Z-matrix:
 Charge =  0 Multiplicity = 1

                         Standard orientation:
 ---------------------------------------------------------------------
 Center     Atomic      Atomic             Coordinates (Angstroms)
 Number     Number       Type             X           Y           Z
 ---------------------------------------------------------------------
      1          8           0        5.358482   -0.028878   -3.315296
      2          8           0       -2.768863   -3.216971    3.024944
      3          8           0       -2.994942   -0.934197    3.520922
      4          8           0       -2.029695    7.186915    1.391264
      5          8           0       -1.016906    7.049575   -0.472007
      6          8           0       -1.704039   -4.112658   -0.023900
      7          7           0        2.310491    1.146041    0.569770
      8          7           0        4.394682   -0.525366   -1.321916
      9          7           0       -1.936635    0.530309   -0.369516
     10          7           0       -2.558842   -1.964899   -0.531218
     11          6           0        4.769113   -1.006634   -0.021889
     12          6           0        4.379326   -0.059971    1.181611
     13          6           0        2.994795    0.150371    1.221354
     14          6           0        2.052540   -0.546629    2.105944
     15          6           0        0.845541    0.048935    1.747061
     16          6           0        0.975272    0.951244    0.716085
     17          6           0        6.265529   -1.122126   -0.183856
     18          6           0       -0.514088   -0.231747    2.430579
     19          6           0        6.768479   -0.817716   -1.407415
     20          6           0        0.116373    1.966095    0.130795
     21          6           0       -1.167976    1.788211   -0.305961
     22          6           0        5.485907   -0.508844   -2.203596
     23          6           0       -2.004015    2.801898   -0.887926
     24          6           0        2.375283   -1.432109    3.281019
     25          6           0        7.197816   -1.628436    0.947303
     26          6           0       -3.197417    2.182642   -1.255014
     27          6           0       -0.883202   -1.706900    2.489085
     28          6           0       -3.149780    0.816322   -0.948677
     29          6           0       -1.665045    4.286786   -0.994023
     30          6           0        8.024561   -0.722816   -2.072766
     31          6           0       -2.069679    4.936572    0.316079
     32          6           0       -4.380111    2.910344   -1.816847
     33          6           0       -4.022054   -0.170250   -1.227076
     34          6           0       -2.362111   -1.853062    3.147657
     35          6           0       -3.663523   -1.550974   -1.073030
     36          6           0        9.223555   -0.680258   -1.489826
     37          6           0       -1.617611    6.451397    0.383477
     38          6           0       -4.549101   -2.661919   -1.429654
     39          6           0       -3.925231   -3.772783   -1.041291
     40          6           0       -2.553203   -3.333392   -0.446349
     41          6           0       -5.867079   -2.502465   -2.051199
     42          6           0       -4.325371   -5.202034   -1.088523
     43          6           0       -6.585474   -3.427369   -2.688727
     44          1           0        4.394381   -1.964138    0.165468
     45          1           0        4.839859    0.987634    1.056343
     46          1           0        4.766734   -0.406976    2.092334
     47          1           0        2.663049    1.837425   -0.091586
     48          1           0        3.470981   -0.348145   -1.766532
     49          1           0       -0.431264    0.269815    3.425512
     50          1           0       -1.426885    0.209381    2.113276
     51          1           0        0.475864    2.953947    0.020625
     52          1           0        3.450379   -1.528564    3.507752
     53          1           0        1.869808   -0.913873    4.101943
     54          1           0        2.017818   -2.492241    3.083678
     55          1           0        6.564838   -2.295201    1.711045
     56          1           0        7.574708   -0.945556    1.698832
     57          1           0        7.979094   -2.339008    0.772070
     58          1           0       -0.905544   -2.291947    1.626149
     59          1           0       -0.297178   -2.326781    3.282780
     60          1           0       -1.517518   -0.360072   -0.234755
     61          1           0       -2.249645    4.800984   -1.636721
     62          1           0       -0.669973    4.300505   -1.024327
     63          1           0        8.114343   -0.853612   -3.166434
     64          1           0       -1.720893    4.420298    1.208940
     65          1           0       -3.165044    4.876192    0.503685
     66          1           0       -4.154942    3.825438   -2.228000
     67          1           0       -5.456784    3.125750   -1.229734
     68          1           0       -4.898636    2.412523   -2.552034
     69          1           0       -4.769187    0.024529   -1.967937
     70          1           0        9.434911   -0.728981   -0.446087
     71          1           0       10.293516   -0.879690   -2.067257
     72          1           0       -3.557253   -3.246512    3.715663
     73          1           0       -6.266737   -1.492446   -1.981815
     74          1           0       -4.670623   -5.476995   -2.145393
     75          1           0       -3.400744   -5.826128   -0.752576
     76          1           0       -5.302761   -5.516879   -0.287593
     77          1           0       -1.608596    8.003898    1.337710
     78          1           0       -7.430890   -3.293477   -3.140328
     79          1           0       -6.061473   -4.488260   -2.928370
 ---------------------------------------------------------------------

 SCF Done:  E(RB3LYP) =  -1947.88437707     A.U. after   16 cycles

 Excitation energies and oscillator strengths:

 Excited State   1:      Singlet-A      2.2010 eV  563.30 nm  f=0.4977  <S**2>=0.000
     155 ->156         0.69912
     155 <-156        -0.10071
 This state for optimization and/or second-order correction.
 Total Energy, E(TD-HF/TD-KS) =  -1947.80349054
 Copying the excited state density for this state as the 1-particle RhoCI density.

 The electronic state is 1-A.
 Alpha  occ. eigenvalues --  -19.18376 -19.16965 -19.13359 -19.12672 -19.10904
 Alpha  occ. eigenvalues --  -19.09703 -14.39073 -14.35678 -14.35105 -14.28568
 Alpha  occ. eigenvalues --  -10.32782 -10.31099 -10.28207 -10.26636 -10.25139
 Alpha  occ. eigenvalues --  -10.24252 -10.23991 -10.23229 -10.23041 -10.22941
 Alpha  occ. eigenvalues --  -10.22400 -10.22363 -10.22116 -10.21781 -10.21521
 Alpha  occ. eigenvalues --  -10.21324 -10.21010 -10.20857 -10.20664 -10.20590
 Alpha  occ. eigenvalues --  -10.20587 -10.20380 -10.20309 -10.20091 -10.19650
 Alpha  occ. eigenvalues --  -10.19631 -10.19232 -10.18973 -10.18642 -10.18632
 Alpha  occ. eigenvalues --  -10.18555 -10.18512 -10.17974  -1.12807  -1.07517
 Alpha  occ. eigenvalues --   -1.02274  -1.01093  -1.00933  -0.99892  -0.99421
 Alpha  occ. eigenvalues --   -0.96950  -0.93648  -0.93265  -0.84156  -0.82424
 Alpha  occ. eigenvalues --   -0.82228  -0.81587  -0.80350  -0.80195  -0.78731
 Alpha  occ. eigenvalues --   -0.77128  -0.76021  -0.75581  -0.74275  -0.72856
 Alpha  occ. eigenvalues --   -0.71803  -0.71258  -0.70042  -0.69675  -0.68989
 Alpha  occ. eigenvalues --   -0.66590  -0.65418  -0.64136  -0.62172  -0.61048
 Alpha  occ. eigenvalues --   -0.59850  -0.59044  -0.58537  -0.57846  -0.57537
 Alpha  occ. eigenvalues --   -0.56813  -0.56159  -0.54912  -0.54400  -0.53569
 Alpha  occ. eigenvalues --   -0.52676  -0.51997  -0.51850  -0.51525  -0.51115
 Alpha  occ. eigenvalues --   -0.48890  -0.48594  -0.48213  -0.47898  -0.47852
 Alpha  occ. eigenvalues --   -0.47509  -0.47339  -0.47010  -0.46425  -0.46058
 Alpha  occ. eigenvalues --   -0.45642  -0.45238  -0.45025  -0.44652  -0.44094
 Alpha  occ. eigenvalues --   -0.43716  -0.43232  -0.42910  -0.42623  -0.42356
 Alpha  occ. eigenvalues --   -0.42260  -0.41930  -0.41721  -0.41486  -0.41289
 Alpha  occ. eigenvalues --   -0.40825  -0.40750  -0.40376  -0.40036  -0.39921
 Alpha  occ. eigenvalues --   -0.39571  -0.39181  -0.38925  -0.38678  -0.38554
 Alpha  occ. eigenvalues --   -0.38409  -0.38033  -0.37729  -0.37439  -0.37264
 Alpha  occ. eigenvalues --   -0.37179  -0.36442  -0.36203  -0.34866  -0.34265
 Alpha  occ. eigenvalues --   -0.33767  -0.33450  -0.32823  -0.32644  -0.32360
 Alpha  occ. eigenvalues --   -0.31334  -0.31312  -0.28993  -0.28551  -0.27459
 Alpha  occ. eigenvalues --   -0.27240  -0.26048  -0.25789  -0.25530  -0.25127
 Alpha  occ. eigenvalues --   -0.24469  -0.23722  -0.23497  -0.22309  -0.19261
 Alpha virt. eigenvalues --   -0.10629  -0.06297  -0.05941  -0.00491  -0.00163
 Alpha virt. eigenvalues --    0.00340   0.00984   0.01716   0.03355   0.03567
 Alpha virt. eigenvalues --    0.03794   0.04098   0.04740   0.05194   0.05616

 Mulliken charges:
               1
     1  O   -0.227631
     2  O   -0.264745
     3  O   -0.178815
     4  O   -0.115331
     5  O   -0.237024
     6  O   -0.206920
     7  N   -0.050684
     8  N   -0.231611
     9  N   -0.126125
    10  N   -0.230178
    11  C    0.204908
    12  C    0.203041
    13  C   -0.102154
    14  C   -0.134287
    15  C   -0.071054
    16  C    0.067345
    17  C   -0.183801
    18  C    0.105748
    19  C    0.026532
    20  C   -0.105408
    21  C    0.110261
    22  C    0.123715
    23  C   -0.151533
    24  C    0.095934
    25  C    0.040415
    26  C   -0.090179
    27  C   -0.022361
    28  C    0.185034
    29  C    0.344672
    30  C    0.005309
    31  C   -0.067476
    32  C    0.116369
    33  C   -0.126467
    34  C    0.137817
    35  C    0.035289
    36  C   -0.088079
    37  C    0.112875
    38  C    0.062110
    39  C   -0.206436
    40  C    0.171428
    41  C   -0.015586
    42  C   -0.026196
    43  C    0.018105
    44  H   -0.000018
    45  H   -0.002874
    46  H   -0.024526
    47  H    0.118309
    48  H    0.138616
    49  H    0.002059
    50  H    0.001974
    51  H   -0.028570
    52  H   -0.000317
    53  H    0.035355
    54  H    0.051147
    55  H   -0.000958
    56  H    0.027526
    57  H    0.031141
    58  H    0.038537
    59  H    0.026727
    60  H    0.135490
    61  H   -0.022356
    62  H   -0.037262
    63  H    0.026904
    64  H    0.030026
    65  H    0.041806
    66  H   -0.018358
    67  H    0.030096
    68  H   -0.020102
    69  H   -0.020635
    70  H    0.007185
    71  H    0.045706
    72  H    0.198384
    73  H   -0.012366
    74  H    0.043412
    75  H    0.050497
    76  H    0.051577
    77  H    0.154100
    78  H   -0.035492
    79  H    0.030434
 Sum of Mulliken charges =   0.00000

 Dipole moment (field-independent basis, Debye):
    X=              1.2369    Y=              2.8350    Z=              3.9112  Tot=              4.9865
 Quadrupole moment (field-independent basis, Debye-Ang):
   XX=           -222.3145   YY=           -253.6793   ZZ=           -258.3428
   XY=            -13.4222   XZ=             32.9985   YZ=              3.5864

 Normal termination of Gaussian 09 at Mon Jul  8 17:30:40 2019.
