 Gaussian 09, Revision D.01,
 Gaussian 09:  ES64L-G09RevD.01 24-Apr-2013

 --------------------------
 # td=(NStates=1) B3LYP/SVP
 --------------------------

 --
 TD
 --
 Symbolic Z-matrix:
 Charge =  0 Multiplicity = 1

                         Standard orientation:
 ---------------------------------------------------------------------
 Center     Atomic      Atomic             Coordinates (Angstroms)
 Number     Number       Type             X           Y           Z
 ---------------------------------------------------------------------
      1          8           0        5.513385   -0.181425   -3.341349
      2          8           0       -2.963351   -3.105784    3.187498
      3          8           0       -3.235613   -0.849764    3.313045
      4          8           0       -1.543177    7.343035    1.419834
      5          8           0       -0.205747    6.979773   -0.303742
      6          8           0       -2.096311   -4.053950   -0.156498
      7          7           0        2.327160    0.793597    0.610843
      8          7           0        4.538279   -0.632381   -1.393843
      9          7           0       -1.783053    0.656092   -0.489266
     10          7           0       -2.728388   -1.825308   -0.614651
     11          6           0        4.759369   -1.210218   -0.082755
     12          6           0        4.357517   -0.492483    1.214900
     13          6           0        2.893624   -0.183401    1.373541
     14          6           0        1.909911   -0.758038    2.014560
     15          6           0        0.613443   -0.109692    1.716741
     16          6           0        0.948124    0.848139    0.711953
     17          6           0        6.362877   -1.380405   -0.137090
     18          6           0       -0.713862   -0.168276    2.476125
     19          6           0        6.768882   -1.002286   -1.430251
     20          6           0        0.209411    1.783623    0.046095
     21          6           0       -1.067731    1.762141   -0.288125
     22          6           0        5.660729   -0.554898   -2.193191
     23          6           0       -1.850005    2.959097   -0.801729
     24          6           0        2.123053   -1.744867    3.127789
     25          6           0        7.105629   -1.932227    1.105115
     26          6           0       -3.076212    2.502527   -1.153143
     27          6           0       -1.104118   -1.764456    2.587032
     28          6           0       -3.070116    0.962608   -1.035232
     29          6           0       -1.390690    4.420418   -0.915494
     30          6           0        8.178045   -0.796414   -1.992297
     31          6           0       -1.557849    5.166997    0.432308
     32          6           0       -4.234172    3.197969   -1.809564
     33          6           0       -3.968631    0.053263   -1.353010
     34          6           0       -2.554673   -1.794043    3.101519
     35          6           0       -3.814315   -1.312552   -1.103707
     36          6           0        9.335963   -0.950802   -1.299350
     37          6           0       -1.023261    6.602784    0.484062
     38          6           0       -4.776838   -2.400272   -1.533845
     39          6           0       -4.175440   -3.624440   -1.198325
     40          6           0       -2.796029   -3.292467   -0.533504
     41          6           0       -6.226629   -2.256942   -1.911554
     42          6           0       -4.697214   -5.036709   -1.187769
     43          6           0       -7.048240   -3.046132   -2.643739
     44          1           0        4.474383   -2.311166   -0.016291
     45          1           0        5.049536    0.321018    0.938964
     46          1           0        4.535126   -1.088891    2.078562
     47          1           0        2.692774    1.012946   -0.432512
     48          1           0        3.724204   -0.580271   -1.883510
     49          1           0       -0.729990    0.136258    3.540493
     50          1           0       -1.290113    0.347504    1.875535
     51          1           0        0.748786    2.748004    0.011044
     52          1           0        3.167179   -1.918949    3.433752
     53          1           0        1.433301   -1.472424    4.065923
     54          1           0        1.550329   -2.714038    2.824527
     55          1           0        6.357967   -2.519365    1.657994
     56          1           0        7.573968   -1.066334    1.555264
     57          1           0        7.909868   -2.571769    0.668973
     58          1           0       -1.006850   -2.116442    1.671024
     59          1           0       -0.395102   -2.328157    3.303015
     60          1           0       -1.500511   -0.301058   -0.210001
     61          1           0       -1.796778    4.976216   -1.685931
     62          1           0       -0.353763    4.396620   -0.837281
     63          1           0        8.260725   -0.958767   -3.055319
     64          1           0       -1.214511    4.669402    1.278423
     65          1           0       -2.754742    5.046293    0.844592
     66          1           0       -3.942318    4.295163   -2.153504
     67          1           0       -5.120874    3.198962   -1.023404
     68          1           0       -4.290565    2.841119   -2.888626
     69          1           0       -4.961574    0.469132   -1.918791
     70          1           0        9.397777   -0.877719   -0.043890
     71          1           0       10.438806   -1.185812   -1.777867
     72          1           0       -3.856770   -3.112230    3.360432
     73          1           0       -6.416792   -1.168482   -1.692212
     74          1           0       -4.971895   -5.366511   -2.247564
     75          1           0       -3.834928   -5.722734   -0.785454
     76          1           0       -5.662996   -5.251450   -0.460773
     77          1           0       -1.197740    8.215232    1.516573
     78          1           0       -8.054809   -2.694125   -2.951622
     79          1           0       -6.675908   -4.031512   -3.030785
 ---------------------------------------------------------------------

 SCF Done:  E(RB3LYP) =  -1947.81035755     A.U. after   16 cycles

 Excitation energies and oscillator strengths:

 Excited State   1:      Singlet-A      2.1778 eV  569.30 nm  f=0.3917  <S**2>=0.000
     155 ->156         0.70104
 This state for optimization and/or second-order correction.
 Total Energy, E(TD-HF/TD-KS) =  -1947.73032329
 Copying the excited state density for this state as the 1-particle RhoCI density.

 The electronic state is 1-A.
 Alpha  occ. eigenvalues --  -19.19186 -19.16553 -19.13209 -19.12685 -19.12440
 Alpha  occ. eigenvalues --  -19.09566 -14.36876 -14.36216 -14.34645 -14.29238
 Alpha  occ. eigenvalues --  -10.32532 -10.31244 -10.27850 -10.27620 -10.25671
 Alpha  occ. eigenvalues --  -10.24788 -10.24022 -10.23799 -10.23443 -10.22723
 Alpha  occ. eigenvalues --  -10.22228 -10.22160 -10.21673 -10.21603 -10.21578
 Alpha  occ. eigenvalues --  -10.21462 -10.21442 -10.21347 -10.21214 -10.21151
 Alpha  occ. eigenvalues --  -10.20838 -10.20755 -10.20574 -10.20399 -10.20329
 Alpha  occ. eigenvalues --  -10.20101 -10.19527 -10.19395 -10.19214 -10.19062
 Alpha  occ. eigenvalues --  -10.19030 -10.18637 -10.18178  -1.12053  -1.09962
 Alpha  occ. eigenvalues --   -1.09266  -1.03041  -1.02032  -1.01510  -0.97984
 Alpha  occ. eigenvalues --   -0.97360  -0.93651  -0.92157  -0.82544  -0.82389
 Alpha  occ. eigenvalues --   -0.81759  -0.80322  -0.79684  -0.78919  -0.77775
 Alpha  occ. eigenvalues --   -0.77382  -0.75852  -0.75163  -0.73874  -0.72645
 Alpha  occ. eigenvalues --   -0.72085  -0.70782  -0.69155  -0.68904  -0.68248
 Alpha  occ. eigenvalues --   -0.66631  -0.65823  -0.64070  -0.62450  -0.60256
 Alpha  occ. eigenvalues --   -0.59577  -0.59183  -0.58674  -0.58030  -0.56815
 Alpha  occ. eigenvalues --   -0.56307  -0.55422  -0.53755  -0.53636  -0.52810
 Alpha  occ. eigenvalues --   -0.52249  -0.52063  -0.51271  -0.51035  -0.49930
 Alpha  occ. eigenvalues --   -0.48813  -0.48678  -0.48606  -0.48116  -0.47819
 Alpha  occ. eigenvalues --   -0.47459  -0.47132  -0.46989  -0.46365  -0.45687
 Alpha  occ. eigenvalues --   -0.45577  -0.45250  -0.45074  -0.44700  -0.44120
 Alpha  occ. eigenvalues --   -0.44075  -0.43590  -0.43319  -0.43168  -0.42812
 Alpha  occ. eigenvalues --   -0.42339  -0.42302  -0.41885  -0.41698  -0.41339
 Alpha  occ. eigenvalues --   -0.40735  -0.40219  -0.39853  -0.39813  -0.39687
 Alpha  occ. eigenvalues --   -0.39505  -0.39067  -0.38739  -0.38569  -0.38436
 Alpha  occ. eigenvalues --   -0.37789  -0.37533  -0.37094  -0.36690  -0.36319
 Alpha  occ. eigenvalues --   -0.36083  -0.35951  -0.35042  -0.34335  -0.34211
 Alpha  occ. eigenvalues --   -0.33661  -0.33563  -0.33108  -0.32858  -0.32291
 Alpha  occ. eigenvalues --   -0.31135  -0.30996  -0.29047  -0.29010  -0.28472
 Alpha  occ. eigenvalues --   -0.28091  -0.26344  -0.26213  -0.25773  -0.24824
 Alpha  occ. eigenvalues --   -0.24465  -0.23661  -0.23440  -0.22177  -0.18694
 Alpha virt. eigenvalues --   -0.09981  -0.06704  -0.05546  -0.00727  -0.00204
 Alpha virt. eigenvalues --    0.00521   0.01332   0.01874   0.02871   0.03231
 Alpha virt. eigenvalues --    0.03496   0.04449   0.04698   0.04971   0.05360

 Mulliken charges:
               1
     1  O   -0.223290
     2  O   -0.168003
     3  O   -0.191251
     4  O   -0.122747
     5  O   -0.214656
     6  O   -0.046543
     7  N   -0.123254
     8  N   -0.147148
     9  N   -0.096939
    10  N   -0.314699
    11  C    0.066288
    12  C    0.248477
    13  C   -0.091274
    14  C   -0.102727
    15  C   -0.151236
    16  C    0.056417
    17  C   -0.245825
    18  C    0.219197
    19  C   -0.061831
    20  C   -0.150047
    21  C    0.107259
    22  C    0.115199
    23  C   -0.123313
    24  C    0.016220
    25  C    0.108822
    26  C   -0.115554
    27  C   -0.019334
    28  C    0.134785
    29  C    0.276982
    30  C    0.059096
    31  C   -0.100279
    32  C    0.025672
    33  C   -0.164691
    34  C    0.143073
    35  C    0.090048
    36  C   -0.147993
    37  C    0.126674
    38  C   -0.019902
    39  C   -0.211394
    40  C    0.150061
    41  C   -0.007368
    42  C   -0.014093
    43  C   -0.035894
    44  H    0.023196
    45  H   -0.002754
    46  H   -0.033408
    47  H    0.147564
    48  H    0.092665
    49  H    0.020704
    50  H   -0.058687
    51  H    0.002415
    52  H    0.017133
    53  H    0.029571
    54  H    0.041162
    55  H    0.036194
    56  H    0.052433
    57  H    0.050331
    58  H    0.005377
    59  H    0.045336
    60  H    0.151346
    61  H   -0.001689
    62  H   -0.019045
    63  H    0.022852
    64  H    0.017496
    65  H    0.029152
    66  H    0.018190
    67  H    0.071804
    68  H    0.049375
    69  H    0.027256
    70  H    0.041778
    71  H    0.066581
    72  H    0.138720
    73  H   -0.002063
    74  H    0.045495
    75  H    0.042776
    76  H    0.053921
    77  H    0.174246
    78  H    0.037308
    79  H    0.032283
 Sum of Mulliken charges =   0.00000

 Dipole moment (field-independent basis, Debye):
    X=             -0.1383    Y=              1.1212    Z=              3.4147  Tot=              3.5967
 Quadrupole moment (field-independent basis, Debye-Ang):
   XX=           -223.3932   YY=           -238.8175   ZZ=           -262.2943
   XY=            -19.2701   XZ=             31.2994   YZ=              5.2043

 Normal termination of Gaussian 09 at Wed Jul 10 04:44:55 2019.
