 Gaussian 09, Revision D.01,
 Gaussian 09:  ES64L-G09RevD.01 24-Apr-2013

 --------------------------
 # td=(NStates=1) B3LYP/SVP
 --------------------------

 --
 TD
 --
 Symbolic Z-matrix:
 Charge =  0 Multiplicity = 1

                         Standard orientation:
 ---------------------------------------------------------------------
 Center     Atomic      Atomic             Coordinates (Angstroms)
 Number     Number       Type             X           Y           Z
 ---------------------------------------------------------------------
      1          8           0        5.315833   -0.015701   -3.184687
      2          8           0       -2.956078   -3.065999    2.927412
      3          8           0       -3.242548   -0.860843    3.281403
      4          8           0       -1.769609    7.111648    1.582810
      5          8           0       -1.062761    6.955466   -0.575340
      6          8           0       -1.613966   -4.005495   -0.167240
      7          7           0        2.375121    1.106809    0.665913
      8          7           0        4.450010   -0.421250   -1.115241
      9          7           0       -1.911191    0.695080   -0.472025
     10          7           0       -2.498440   -1.935266   -0.540283
     11          6           0        4.883762   -1.008748    0.059349
     12          6           0        4.487256   -0.236327    1.294496
     13          6           0        2.985891    0.105450    1.415815
     14          6           0        2.030606   -0.648364    2.084586
     15          6           0        0.725157    0.015524    1.783337
     16          6           0        0.973877    0.946957    0.789720
     17          6           0        6.300120   -1.203585   -0.107419
     18          6           0       -0.560889   -0.321341    2.557048
     19          6           0        6.713063   -0.823704   -1.386672
     20          6           0        0.169628    1.948849    0.111896
     21          6           0       -1.151834    1.832542   -0.398928
     22          6           0        5.540092   -0.360313   -2.063250
     23          6           0       -2.053813    2.858532   -0.945385
     24          6           0        2.307799   -1.659316    3.042185
     25          6           0        7.242114   -1.682495    0.901081
     26          6           0       -3.239540    2.289725   -1.258352
     27          6           0       -1.077759   -1.716090    2.475818
     28          6           0       -3.107776    0.898700   -1.043412
     29          6           0       -1.665878    4.358182   -0.984512
     30          6           0        7.971929   -0.816964   -2.102049
     31          6           0       -1.942553    5.042136    0.381281
     32          6           0       -4.433530    2.910561   -1.883307
     33          6           0       -3.918747   -0.219647   -1.287560
     34          6           0       -2.459834   -1.786021    2.968270
     35          6           0       -3.636390   -1.587019   -1.087846
     36          6           0        9.193039   -0.687815   -1.526287
     37          6           0       -1.590476    6.492793    0.396554
     38          6           0       -4.488433   -2.662205   -1.420980
     39          6           0       -3.830582   -3.762896   -1.132504
     40          6           0       -2.519317   -3.331468   -0.555025
     41          6           0       -5.880146   -2.491486   -1.829778
     42          6           0       -4.203598   -5.301985   -1.069477
     43          6           0       -6.682448   -3.492783   -2.357591
     44          1           0        4.322431   -1.979007    0.311530
     45          1           0        4.943028    0.743059    1.226542
     46          1           0        4.988068   -0.672997    2.139745
     47          1           0        2.850053    1.772131   -0.019440
     48          1           0        3.432846   -0.307382   -1.439273
     49          1           0       -0.434404    0.126952    3.603154
     50          1           0       -1.437968    0.398172    2.111651
     51          1           0        0.501489    2.862591   -0.107119
     52          1           0        3.446566   -1.570490    3.628172
     53          1           0        1.463136   -1.625372    3.710700
     54          1           0        2.139154   -2.704131    2.630980
     55          1           0        6.981735   -2.271796    1.713072
     56          1           0        7.312646   -0.758771    1.634004
     57          1           0        8.103238   -2.189697    0.443566
     58          1           0       -1.064270   -2.130179    1.482379
     59          1           0       -0.613291   -2.556990    3.060811
     60          1           0       -1.413214   -0.071984   -0.355253
     61          1           0       -2.153339    4.565414   -1.877932
     62          1           0       -0.715258    4.384370   -1.349503
     63          1           0        7.931614   -0.903568   -3.264924
     64          1           0       -1.434928    4.552425    1.268649
     65          1           0       -3.159431    4.924059    0.630141
     66          1           0       -4.258525    4.049473   -2.010776
     67          1           0       -5.435533    2.708696   -1.209598
     68          1           0       -4.711861    2.636376   -2.992544
     69          1           0       -4.812567   -0.115293   -2.025206
     70          1           0        9.205250   -0.552193   -0.602483
     71          1           0       10.190230   -0.726336   -2.185289
     72          1           0       -3.857335   -3.159775    3.308952
     73          1           0       -6.314633   -1.593793   -1.445164
     74          1           0       -4.548744   -5.606749   -2.197803
     75          1           0       -3.400270   -5.937682   -0.551593
     76          1           0       -5.288674   -5.311862   -0.706473
     77          1           0       -1.565121    8.129784    1.249404
     78          1           0       -7.784791   -3.261113   -2.668062
     79          1           0       -6.167537   -4.312831   -2.755022
 ---------------------------------------------------------------------

 SCF Done:  E(RB3LYP) =  -1947.83968171     A.U. after   17 cycles

 Excitation energies and oscillator strengths:

 Excited State   1:      Singlet-A      2.1265 eV  583.05 nm  f=0.4602  <S**2>=0.000
     155 ->156         0.69823
     155 <-156        -0.12199
 This state for optimization and/or second-order correction.
 Total Energy, E(TD-HF/TD-KS) =  -1947.76153525
 Copying the excited state density for this state as the 1-particle RhoCI density.

 The electronic state is 1-A.
 Alpha  occ. eigenvalues --  -19.20345 -19.16122 -19.13584 -19.10823 -19.10310
 Alpha  occ. eigenvalues --  -19.09509 -14.38676 -14.35756 -14.33829 -14.27589
 Alpha  occ. eigenvalues --  -10.32636 -10.30726 -10.27553 -10.25488 -10.24600
 Alpha  occ. eigenvalues --  -10.24046 -10.24004 -10.23691 -10.23359 -10.23221
 Alpha  occ. eigenvalues --  -10.22687 -10.22398 -10.21891 -10.21682 -10.21275
 Alpha  occ. eigenvalues --  -10.21232 -10.21197 -10.21149 -10.20914 -10.20847
 Alpha  occ. eigenvalues --  -10.20757 -10.20577 -10.20331 -10.20291 -10.20174
 Alpha  occ. eigenvalues --  -10.20162 -10.20089 -10.19412 -10.19146 -10.19076
 Alpha  occ. eigenvalues --  -10.18966 -10.18864 -10.18802  -1.10380  -1.06294
 Alpha  occ. eigenvalues --   -1.03111  -1.02654  -1.01812  -1.00288  -0.97196
 Alpha  occ. eigenvalues --   -0.96715  -0.94557  -0.93367  -0.83410  -0.82638
 Alpha  occ. eigenvalues --   -0.81658  -0.81316  -0.80428  -0.79821  -0.78120
 Alpha  occ. eigenvalues --   -0.77717  -0.76903  -0.75679  -0.73955  -0.72723
 Alpha  occ. eigenvalues --   -0.72330  -0.71348  -0.69994  -0.69510  -0.68607
 Alpha  occ. eigenvalues --   -0.67134  -0.66300  -0.64170  -0.61141  -0.60483
 Alpha  occ. eigenvalues --   -0.59202  -0.58566  -0.58153  -0.57996  -0.57558
 Alpha  occ. eigenvalues --   -0.56128  -0.55422  -0.55226  -0.54390  -0.53731
 Alpha  occ. eigenvalues --   -0.52567  -0.52029  -0.51663  -0.50662  -0.49991
 Alpha  occ. eigenvalues --   -0.49381  -0.49122  -0.48534  -0.48040  -0.47488
 Alpha  occ. eigenvalues --   -0.47367  -0.46669  -0.46580  -0.46320  -0.45751
 Alpha  occ. eigenvalues --   -0.45409  -0.45059  -0.44470  -0.44108  -0.43604
 Alpha  occ. eigenvalues --   -0.43312  -0.43006  -0.42908  -0.42432  -0.41975
 Alpha  occ. eigenvalues --   -0.41822  -0.41763  -0.41673  -0.41364  -0.41132
 Alpha  occ. eigenvalues --   -0.40991  -0.40595  -0.40396  -0.40306  -0.39780
 Alpha  occ. eigenvalues --   -0.39462  -0.39236  -0.38609  -0.38180  -0.38048
 Alpha  occ. eigenvalues --   -0.37833  -0.37472  -0.37356  -0.37190  -0.36914
 Alpha  occ. eigenvalues --   -0.36633  -0.36134  -0.35673  -0.35635  -0.34837
 Alpha  occ. eigenvalues --   -0.34375  -0.34069  -0.33600  -0.31744  -0.31138
 Alpha  occ. eigenvalues --   -0.30760  -0.29943  -0.29116  -0.28670  -0.27358
 Alpha  occ. eigenvalues --   -0.26733  -0.26144  -0.25572  -0.24846  -0.24743
 Alpha  occ. eigenvalues --   -0.23877  -0.23717  -0.23469  -0.22489  -0.18961
 Alpha virt. eigenvalues --   -0.10792  -0.06390  -0.06167  -0.01226  -0.00731
 Alpha virt. eigenvalues --    0.00723   0.00778   0.01110   0.01427   0.02554
 Alpha virt. eigenvalues --    0.03092   0.03610   0.04112   0.04879   0.05213

 Mulliken charges:
               1
     1  O   -0.189365
     2  O   -0.217397
     3  O   -0.271423
     4  O   -0.229370
     5  O   -0.220102
     6  O   -0.170878
     7  N   -0.145261
     8  N   -0.251826
     9  N    0.042050
    10  N   -0.242783
    11  C    0.140972
    12  C    0.188476
    13  C   -0.066540
    14  C   -0.125672
    15  C   -0.060688
    16  C    0.098518
    17  C   -0.149453
    18  C    0.007039
    19  C   -0.035370
    20  C    0.009923
    21  C   -0.034403
    22  C    0.129089
    23  C   -0.178958
    24  C    0.054112
    25  C    0.095118
    26  C   -0.067684
    27  C    0.062640
    28  C    0.125069
    29  C    0.257181
    30  C   -0.069212
    31  C   -0.041439
    32  C   -0.021972
    33  C   -0.135127
    34  C    0.130967
    35  C    0.021915
    36  C    0.037665
    37  C    0.155959
    38  C    0.054454
    39  C   -0.199211
    40  C    0.112018
    41  C   -0.039924
    42  C    0.036926
    43  C   -0.019163
    44  H    0.021295
    45  H   -0.036635
    46  H   -0.025886
    47  H    0.147526
    48  H    0.149173
    49  H    0.035645
    50  H    0.046429
    51  H   -0.082572
    52  H    0.045604
    53  H    0.002233
    54  H    0.030835
    55  H   -0.015868
    56  H    0.038039
    57  H    0.052497
    58  H    0.061799
    59  H    0.027424
    60  H    0.079984
    61  H   -0.020180
    62  H   -0.033359
    63  H    0.041323
    64  H    0.060365
    65  H    0.066688
    66  H    0.025678
    67  H    0.054716
    68  H    0.053564
    69  H   -0.001201
    70  H   -0.060777
    71  H    0.052720
    72  H    0.188886
    73  H    0.000196
    74  H    0.036752
    75  H    0.072738
    76  H    0.027700
    77  H    0.227508
    78  H    0.048573
    79  H    0.003716
 Sum of Mulliken charges =   0.00000

 Dipole moment (field-independent basis, Debye):
    X=              0.6105    Y=              2.5672    Z=              2.9314  Tot=              3.9442
 Quadrupole moment (field-independent basis, Debye-Ang):
   XX=           -219.1992   YY=           -240.3196   ZZ=           -263.9529
   XY=             -9.6103   XZ=             32.4913   YZ=              0.0760

 Normal termination of Gaussian 09 at Wed Jul 10 01:34:20 2019.
