 Gaussian 09, Revision D.01,
 Gaussian 09:  ES64L-G09RevD.01 24-Apr-2013

 --------------------------
 # td=(NStates=1) B3LYP/SVP
 --------------------------

 --
 TD
 --
 Symbolic Z-matrix:
 Charge =  0 Multiplicity = 1

                         Standard orientation:
 ---------------------------------------------------------------------
 Center     Atomic      Atomic             Coordinates (Angstroms)
 Number     Number       Type             X           Y           Z
 ---------------------------------------------------------------------
      1          8           0        5.464640   -0.174775   -3.273843
      2          8           0       -2.663494   -3.287980    3.301920
      3          8           0       -3.028211   -1.032714    3.576846
      4          8           0       -1.460847    7.262619    1.573651
      5          8           0       -0.085469    6.938711   -0.213790
      6          8           0       -2.117487   -4.059995   -0.301033
      7          7           0        2.331204    0.835807    0.489581
      8          7           0        4.522712   -0.614113   -1.271175
      9          7           0       -1.856148    0.727242   -0.598991
     10          7           0       -2.769345   -1.795846   -0.695938
     11          6           0        4.798967   -1.242195   -0.008226
     12          6           0        4.399205   -0.361757    1.209430
     13          6           0        2.928713   -0.143995    1.293729
     14          6           0        1.962226   -0.787344    1.986269
     15          6           0        0.701164   -0.197412    1.613261
     16          6           0        0.952981    0.861897    0.705869
     17          6           0        6.392363   -1.367195   -0.233582
     18          6           0       -0.608250   -0.371970    2.340847
     19          6           0        6.795741   -0.847512   -1.377346
     20          6           0        0.224794    1.843039    0.153817
     21          6           0       -1.088295    1.846700   -0.344428
     22          6           0        5.495080   -0.461556   -2.174579
     23          6           0       -1.884332    3.036012   -0.776661
     24          6           0        2.118628   -1.795009    3.038150
     25          6           0        7.170109   -2.153567    0.865040
     26          6           0       -3.054835    2.444181   -1.129733
     27          6           0       -1.122007   -1.836062    2.272590
     28          6           0       -3.085379    1.040741   -1.015593
     29          6           0       -1.344603    4.409529   -0.784494
     30          6           0        8.059392   -0.888804   -1.967974
     31          6           0       -1.544635    5.119706    0.526125
     32          6           0       -4.270308    3.333421   -1.650355
     33          6           0       -4.173339    0.080426   -1.316219
     34          6           0       -2.333168   -1.945184    3.047115
     35          6           0       -3.875900   -1.290904   -1.204656
     36          6           0        9.271259   -1.011367   -1.450790
     37          6           0       -0.909500    6.506028    0.572395
     38          6           0       -4.916329   -2.292076   -1.471763
     39          6           0       -4.351706   -3.530261   -1.133901
     40          6           0       -2.886872   -3.200419   -0.669012
     41          6           0       -6.302812   -2.085012   -1.999569
     42          6           0       -4.862873   -4.808864   -1.119901
     43          6           0       -7.161999   -2.999316   -2.457014
     44          1           0        4.164626   -2.191562    0.111136
     45          1           0        4.743660    0.621929    1.326737
     46          1           0        4.628498   -1.067625    2.050158
     47          1           0        2.728486    1.578213   -0.145990
     48          1           0        3.593615   -0.734107   -1.902844
     49          1           0       -0.491192   -0.153583    3.391911
     50          1           0       -1.466814    0.350204    1.965892
     51          1           0        0.700985    2.799928    0.232406
     52          1           0        3.134910   -1.727998    3.492488
     53          1           0        1.308791   -1.767197    3.879073
     54          1           0        2.252180   -2.983846    2.569660
     55          1           0        6.646953   -2.826298    1.560166
     56          1           0        7.904654   -1.283195    1.575598
     57          1           0        7.909583   -2.618499    0.257400
     58          1           0       -1.221423   -2.112037    1.183548
     59          1           0       -0.177861   -2.485063    2.872315
     60          1           0       -1.486586   -0.476784   -0.704446
     61          1           0       -1.794085    5.073347   -1.582791
     62          1           0       -0.217703    4.405083   -0.966141
     63          1           0        7.904049   -0.918962   -3.091263
     64          1           0       -1.011592    4.435253    1.341017
     65          1           0       -2.628211    5.204035    0.744330
     66          1           0       -3.968621    4.409110   -2.058024
     67          1           0       -5.206860    3.050605   -0.857888
     68          1           0       -4.628740    2.890295   -2.473685
     69          1           0       -4.821723    0.528307   -2.077685
     70          1           0        9.430502   -0.994676   -0.292473
     71          1           0       10.125006   -1.182047   -2.191390
     72          1           0       -3.635028   -3.434842    3.794484
     73          1           0       -6.622121   -0.965043   -1.862474
     74          1           0       -5.374947   -5.108217   -2.257243
     75          1           0       -4.137314   -5.659621   -0.728737
     76          1           0       -5.803262   -4.795997   -0.366095
     77          1           0       -0.991040    8.058628    1.591517
     78          1           0       -8.033400   -2.585928   -2.913152
     79          1           0       -6.890867   -3.993777   -2.274892
 ---------------------------------------------------------------------

 SCF Done:  E(RB3LYP) =  -1947.80102700     A.U. after   16 cycles

 Excitation energies and oscillator strengths:

 Excited State   1:      Singlet-A      2.2141 eV  559.97 nm  f=0.4715  <S**2>=0.000
     154 ->156         0.18228
     155 ->156         0.68259
     155 <-156        -0.10696
 This state for optimization and/or second-order correction.
 Total Energy, E(TD-HF/TD-KS) =  -1947.71965937
 Copying the excited state density for this state as the 1-particle RhoCI density.

 The electronic state is 1-A.
 Alpha  occ. eigenvalues --  -19.18969 -19.16130 -19.14266 -19.11544 -19.11187
 Alpha  occ. eigenvalues --  -19.10953 -14.38649 -14.37001 -14.36041 -14.29876
 Alpha  occ. eigenvalues --  -10.33508 -10.30889 -10.28589 -10.27084 -10.26549
 Alpha  occ. eigenvalues --  -10.24716 -10.24535 -10.23664 -10.23381 -10.22701
 Alpha  occ. eigenvalues --  -10.22657 -10.22541 -10.22518 -10.22371 -10.21900
 Alpha  occ. eigenvalues --  -10.21883 -10.21861 -10.21363 -10.21253 -10.21034
 Alpha  occ. eigenvalues --  -10.20729 -10.20549 -10.20427 -10.20273 -10.19971
 Alpha  occ. eigenvalues --  -10.19782 -10.19484 -10.19402 -10.19329 -10.19316
 Alpha  occ. eigenvalues --  -10.19298 -10.19074 -10.18129  -1.10681  -1.08010
 Alpha  occ. eigenvalues --   -1.03816  -1.01927  -1.01914  -0.98784  -0.98255
 Alpha  occ. eigenvalues --   -0.95455  -0.95447  -0.92457  -0.83410  -0.82778
 Alpha  occ. eigenvalues --   -0.82599  -0.81646  -0.80223  -0.79625  -0.77877
 Alpha  occ. eigenvalues --   -0.77216  -0.76517  -0.75534  -0.74913  -0.72455
 Alpha  occ. eigenvalues --   -0.71255  -0.70638  -0.69639  -0.69064  -0.67997
 Alpha  occ. eigenvalues --   -0.66805  -0.66585  -0.63366  -0.61112  -0.60531
 Alpha  occ. eigenvalues --   -0.60061  -0.58054  -0.57282  -0.57114  -0.56653
 Alpha  occ. eigenvalues --   -0.55678  -0.55501  -0.54215  -0.53743  -0.52532
 Alpha  occ. eigenvalues --   -0.51892  -0.51617  -0.51143  -0.50621  -0.49790
 Alpha  occ. eigenvalues --   -0.49248  -0.48931  -0.48497  -0.48134  -0.47384
 Alpha  occ. eigenvalues --   -0.46946  -0.46455  -0.45945  -0.45679  -0.45429
 Alpha  occ. eigenvalues --   -0.45169  -0.45106  -0.44891  -0.44228  -0.44046
 Alpha  occ. eigenvalues --   -0.43352  -0.43155  -0.42891  -0.42504  -0.42309
 Alpha  occ. eigenvalues --   -0.42113  -0.41615  -0.41563  -0.41420  -0.41205
 Alpha  occ. eigenvalues --   -0.40923  -0.40404  -0.40364  -0.39731  -0.39283
 Alpha  occ. eigenvalues --   -0.39052  -0.38909  -0.38817  -0.38674  -0.38364
 Alpha  occ. eigenvalues --   -0.38227  -0.37647  -0.37446  -0.37267  -0.36598
 Alpha  occ. eigenvalues --   -0.36442  -0.35850  -0.35594  -0.34772  -0.34549
 Alpha  occ. eigenvalues --   -0.34134  -0.33701  -0.33337  -0.32332  -0.31835
 Alpha  occ. eigenvalues --   -0.30257  -0.29568  -0.29482  -0.28727  -0.28258
 Alpha  occ. eigenvalues --   -0.27794  -0.26734  -0.26165  -0.25891  -0.24926
 Alpha  occ. eigenvalues --   -0.24561  -0.24029  -0.23514  -0.21846  -0.19660
 Alpha virt. eigenvalues --   -0.10995  -0.06393  -0.05304  -0.01642  -0.00630
 Alpha virt. eigenvalues --   -0.00426   0.00521   0.01559   0.01991   0.02530
 Alpha virt. eigenvalues --    0.02832   0.03170   0.03325   0.04000   0.04696

 Mulliken charges:
               1
     1  O   -0.123376
     2  O   -0.292525
     3  O   -0.275506
     4  O   -0.160782
     5  O   -0.224741
     6  O   -0.191440
     7  N   -0.132871
     8  N   -0.218138
     9  N   -0.156878
    10  N   -0.314285
    11  C    0.068256
    12  C    0.272181
    13  C   -0.107607
    14  C   -0.053931
    15  C   -0.074726
    16  C    0.143540
    17  C   -0.159898
    18  C    0.036982
    19  C   -0.043185
    20  C   -0.135811
    21  C    0.034835
    22  C    0.092096
    23  C   -0.021654
    24  C   -0.020037
    25  C    0.020136
    26  C   -0.170110
    27  C   -0.088212
    28  C    0.060038
    29  C    0.072491
    30  C   -0.046668
    31  C   -0.044136
    32  C    0.084878
    33  C   -0.100942
    34  C    0.204380
    35  C    0.112875
    36  C   -0.060250
    37  C    0.147206
    38  C    0.023969
    39  C   -0.162054
    40  C    0.178554
    41  C   -0.061338
    42  C   -0.082460
    43  C    0.043780
    44  H    0.034896
    45  H   -0.013156
    46  H   -0.009192
    47  H    0.133878
    48  H    0.154920
    49  H    0.003738
    50  H    0.049174
    51  H   -0.016798
    52  H    0.012206
    53  H    0.061603
    54  H    0.046163
    55  H    0.038376
    56  H    0.049167
    57  H    0.034842
    58  H    0.093491
    59  H    0.070418
    60  H    0.253501
    61  H    0.020598
    62  H    0.029829
    63  H    0.020932
    64  H    0.062761
    65  H    0.048891
    66  H    0.042467
    67  H    0.050854
    68  H   -0.020313
    69  H    0.010184
    70  H    0.036602
    71  H    0.043296
    72  H    0.234899
    73  H    0.013893
    74  H    0.064919
    75  H    0.058473
    76  H    0.055745
    77  H    0.155513
    78  H    0.017654
    79  H   -0.017057
 Sum of Mulliken charges =   0.00000

 Dipole moment (field-independent basis, Debye):
    X=              2.0163    Y=              2.4143    Z=              2.2290  Tot=              3.8552
 Quadrupole moment (field-independent basis, Debye-Ang):
   XX=           -236.0139   YY=           -246.6888   ZZ=           -263.5836
   XY=            -12.9217   XZ=             28.5775   YZ=              0.6149

 Normal termination of Gaussian 09 at Tue Jul  9 21:57:41 2019.
