 Gaussian 09, Revision D.01,
 Gaussian 09:  ES64L-G09RevD.01 24-Apr-2013

 --------------------------
 # td=(NStates=1) B3LYP/SVP
 --------------------------

 --
 TD
 --
 Symbolic Z-matrix:
 Charge =  0 Multiplicity = 1

                         Standard orientation:
 ---------------------------------------------------------------------
 Center     Atomic      Atomic             Coordinates (Angstroms)
 Number     Number       Type             X           Y           Z
 ---------------------------------------------------------------------
      1          8           0        5.518130   -0.058334   -3.322582
      2          8           0       -2.878613   -2.933463    3.426682
      3          8           0       -3.055498   -0.650000    3.395522
      4          8           0       -1.579590    7.189945    1.482056
      5          8           0       -0.577571    6.943664   -0.470316
      6          8           0       -2.054454   -4.126289   -0.092581
      7          7           0        2.324945    0.805752    0.466449
      8          7           0        4.530605   -0.671843   -1.379653
      9          7           0       -1.903615    0.615941   -0.375814
     10          7           0       -2.784095   -1.896000   -0.445959
     11          6           0        4.779297   -1.208871   -0.064027
     12          6           0        4.532741   -0.209747    1.091118
     13          6           0        2.985138   -0.101820    1.234182
     14          6           0        1.991493   -0.733497    2.067078
     15          6           0        0.782895   -0.085238    1.707684
     16          6           0        1.015273    0.912129    0.753995
     17          6           0        6.339955   -1.477938   -0.194466
     18          6           0       -0.480198   -0.349785    2.473872
     19          6           0        6.783377   -0.884338   -1.364379
     20          6           0        0.226213    1.878290    0.074733
     21          6           0       -1.179828    1.795554   -0.289268
     22          6           0        5.654416   -0.424433   -2.168477
     23          6           0       -1.962201    2.877822   -0.837972
     24          6           0        2.308609   -1.711361    3.018286
     25          6           0        7.130154   -1.913247    1.025156
     26          6           0       -3.155627    2.388784   -1.259168
     27          6           0       -1.021192   -1.701869    2.372474
     28          6           0       -3.107015    0.931136   -0.880344
     29          6           0       -1.494143    4.278461   -0.888671
     30          6           0        8.092329   -0.886782   -1.986112
     31          6           0       -1.750602    5.080486    0.485260
     32          6           0       -4.314434    3.043604   -1.880654
     33          6           0       -4.081541   -0.081517   -1.278524
     34          6           0       -2.383624   -1.635661    3.054394
     35          6           0       -3.839913   -1.411136   -1.048207
     36          6           0        9.291372   -0.716366   -1.434880
     37          6           0       -1.268031    6.480091    0.347282
     38          6           0       -4.776353   -2.516978   -1.509317
     39          6           0       -4.200505   -3.662538   -1.220553
     40          6           0       -2.914938   -3.266810   -0.461750
     41          6           0       -6.060460   -2.242391   -2.019516
     42          6           0       -4.648427   -5.099594   -1.189975
     43          6           0       -6.905663   -3.103186   -2.584545
     44          1           0        4.417099   -2.115424    0.217798
     45          1           0        5.074645    0.840703    1.023782
     46          1           0        5.000263   -0.574777    1.946035
     47          1           0        2.860893    1.257478   -0.321469
     48          1           0        3.609420   -0.473202   -1.654155
     49          1           0       -0.239796   -0.082528    3.529293
     50          1           0       -1.305820    0.278877    2.197305
     51          1           0        0.802606    2.788950   -0.001249
     52          1           0        3.421046   -1.771105    3.197169
     53          1           0        1.585585   -1.590803    4.017196
     54          1           0        2.087144   -2.668857    2.665190
     55          1           0        6.761065   -2.828645    1.482729
     56          1           0        7.003820   -1.202760    1.920930
     57          1           0        8.237696   -2.311309    0.947501
     58          1           0       -1.472013   -1.992109    1.320780
     59          1           0       -0.539141   -2.705879    2.862077
     60          1           0       -1.738758   -0.329990   -0.289976
     61          1           0       -1.969715    4.676698   -1.659512
     62          1           0       -0.338010    4.302262   -1.069328
     63          1           0        8.127576   -0.884125   -3.095469
     64          1           0       -1.281251    4.733293    1.552437
     65          1           0       -3.022446    5.256056    0.563894
     66          1           0       -3.945523    4.010610   -2.101373
     67          1           0       -5.179978    3.542075   -1.003801
     68          1           0       -4.669318    2.372443   -2.566658
     69          1           0       -5.009003    0.390680   -1.660063
     70          1           0        9.345309   -0.708976   -0.095776
     71          1           0       10.233307   -0.692760   -1.934850
     72          1           0       -3.778882   -2.865941    3.820510
     73          1           0       -6.556242   -1.476878   -1.532696
     74          1           0       -5.011842   -5.325583   -2.256311
     75          1           0       -3.535051   -5.743092   -0.971580
     76          1           0       -5.512120   -5.320029   -0.668044
     77          1           0       -1.151112    7.926095    1.280371
     78          1           0       -8.025860   -2.802578   -2.872362
     79          1           0       -6.651114   -4.257526   -2.863993
 ---------------------------------------------------------------------

 SCF Done:  E(RB3LYP) =  -1947.79893633     A.U. after   19 cycles

 Excitation energies and oscillator strengths:

 Excited State   1:      Singlet-A      2.1985 eV  563.95 nm  f=0.5586  <S**2>=0.000
     154 ->156        -0.10906
     155 ->156         0.69793
     155 <-156        -0.12074
 This state for optimization and/or second-order correction.
 Total Energy, E(TD-HF/TD-KS) =  -1947.71814273
 Copying the excited state density for this state as the 1-particle RhoCI density.

 The electronic state is 1-A.
 Alpha  occ. eigenvalues --  -19.17546 -19.15007 -19.14564 -19.11576 -19.10603
 Alpha  occ. eigenvalues --  -19.09697 -14.39359 -14.37710 -14.35354 -14.29413
 Alpha  occ. eigenvalues --  -10.32750 -10.30848 -10.29151 -10.26242 -10.25777
 Alpha  occ. eigenvalues --  -10.25506 -10.25339 -10.25004 -10.23974 -10.23809
 Alpha  occ. eigenvalues --  -10.23303 -10.23245 -10.23123 -10.22912 -10.22765
 Alpha  occ. eigenvalues --  -10.22072 -10.21888 -10.21546 -10.21453 -10.21445
 Alpha  occ. eigenvalues --  -10.21389 -10.20825 -10.20485 -10.20341 -10.20312
 Alpha  occ. eigenvalues --  -10.19477 -10.19436 -10.19349 -10.19282 -10.18806
 Alpha  occ. eigenvalues --  -10.18726 -10.18627 -10.18518  -1.13164  -1.04579
 Alpha  occ. eigenvalues --   -1.03926  -1.03173  -1.00468  -1.00136  -0.98649
 Alpha  occ. eigenvalues --   -0.96573  -0.94370  -0.92532  -0.84624  -0.82701
 Alpha  occ. eigenvalues --   -0.82413  -0.82036  -0.81233  -0.80062  -0.78680
 Alpha  occ. eigenvalues --   -0.78234  -0.77162  -0.75675  -0.74655  -0.73730
 Alpha  occ. eigenvalues --   -0.72644  -0.72258  -0.70784  -0.69933  -0.68585
 Alpha  occ. eigenvalues --   -0.66826  -0.66759  -0.64131  -0.61679  -0.61299
 Alpha  occ. eigenvalues --   -0.60005  -0.59296  -0.58547  -0.58117  -0.57625
 Alpha  occ. eigenvalues --   -0.57013  -0.56319  -0.54669  -0.54127  -0.53289
 Alpha  occ. eigenvalues --   -0.52620  -0.52034  -0.51510  -0.50977  -0.50275
 Alpha  occ. eigenvalues --   -0.49850  -0.49469  -0.49186  -0.48711  -0.48045
 Alpha  occ. eigenvalues --   -0.47642  -0.47142  -0.46648  -0.46038  -0.45913
 Alpha  occ. eigenvalues --   -0.45362  -0.45161  -0.44812  -0.44445  -0.44179
 Alpha  occ. eigenvalues --   -0.43977  -0.43837  -0.43256  -0.43192  -0.42928
 Alpha  occ. eigenvalues --   -0.42592  -0.42090  -0.41788  -0.41645  -0.41504
 Alpha  occ. eigenvalues --   -0.40777  -0.40676  -0.40558  -0.40253  -0.39920
 Alpha  occ. eigenvalues --   -0.39796  -0.39505  -0.39411  -0.39250  -0.38905
 Alpha  occ. eigenvalues --   -0.38514  -0.37812  -0.37632  -0.37304  -0.36700
 Alpha  occ. eigenvalues --   -0.36511  -0.36320  -0.35065  -0.34180  -0.34000
 Alpha  occ. eigenvalues --   -0.33543  -0.33309  -0.33180  -0.32655  -0.31602
 Alpha  occ. eigenvalues --   -0.30634  -0.30080  -0.29795  -0.28719  -0.27342
 Alpha  occ. eigenvalues --   -0.27022  -0.26830  -0.26371  -0.26276  -0.25116
 Alpha  occ. eigenvalues --   -0.24832  -0.23940  -0.23714  -0.22711  -0.19410
 Alpha virt. eigenvalues --   -0.11041  -0.06922  -0.06064  -0.01049  -0.00903
 Alpha virt. eigenvalues --    0.00387   0.00781   0.00998   0.01353   0.02354
 Alpha virt. eigenvalues --    0.02844   0.03265   0.03557   0.04522   0.05390

 Mulliken charges:
               1
     1  O   -0.210865
     2  O   -0.259884
     3  O   -0.259532
     4  O   -0.140369
     5  O   -0.180067
     6  O   -0.268404
     7  N   -0.057091
     8  N   -0.185428
     9  N    0.013665
    10  N   -0.266070
    11  C    0.149685
    12  C    0.153854
    13  C   -0.115325
    14  C   -0.091764
    15  C   -0.101402
    16  C    0.079210
    17  C   -0.117629
    18  C    0.107692
    19  C   -0.049575
    20  C   -0.093715
    21  C    0.110008
    22  C    0.163365
    23  C   -0.065797
    24  C    0.086375
    25  C    0.010951
    26  C   -0.150798
    27  C   -0.079611
    28  C    0.024554
    29  C    0.151644
    30  C   -0.007217
    31  C   -0.109533
    32  C    0.114702
    33  C   -0.140055
    34  C    0.148307
    35  C    0.129887
    36  C   -0.078080
    37  C    0.116286
    38  C    0.060637
    39  C   -0.180156
    40  C    0.163756
    41  C    0.016804
    42  C    0.036071
    43  C   -0.128574
    44  H   -0.011384
    45  H    0.030656
    46  H   -0.032821
    47  H    0.127384
    48  H    0.099115
    49  H    0.016365
    50  H    0.000787
    51  H   -0.006450
    52  H    0.003485
    53  H    0.037174
    54  H    0.016637
    55  H    0.005807
    56  H    0.054128
    57  H    0.055504
    58  H    0.113878
    59  H    0.069073
    60  H    0.101672
    61  H   -0.028708
    62  H    0.038525
    63  H    0.026204
    64  H    0.099892
    65  H    0.071448
    66  H   -0.009740
    67  H    0.046221
    68  H    0.034944
    69  H   -0.008572
    70  H    0.035968
    71  H    0.027620
    72  H    0.183552
    73  H   -0.007474
    74  H    0.020582
    75  H    0.080919
    76  H    0.013214
    77  H    0.108545
    78  H    0.042736
    79  H    0.042602
 Sum of Mulliken charges =   0.00000

 Dipole moment (field-independent basis, Debye):
    X=              1.8334    Y=              3.6427    Z=              2.6671  Tot=              4.8728
 Quadrupole moment (field-independent basis, Debye-Ang):
   XX=           -218.4106   YY=           -256.1501   ZZ=           -269.2930
   XY=            -16.2474   XZ=             33.1674   YZ=             -1.1905

 Normal termination of Gaussian 09 at Wed Jul 10 02:58:27 2019.
