 Gaussian 09, Revision D.01,
 Gaussian 09:  ES64L-G09RevD.01 24-Apr-2013

 --------------------------
 # td=(NStates=1) B3LYP/SVP
 --------------------------

 --
 TD
 --
 Symbolic Z-matrix:
 Charge =  0 Multiplicity = 1

                         Standard orientation:
 ---------------------------------------------------------------------
 Center     Atomic      Atomic             Coordinates (Angstroms)
 Number     Number       Type             X           Y           Z
 ---------------------------------------------------------------------
      1          8           0        5.319404   -0.215085   -3.348267
      2          8           0       -2.736114   -3.193824    3.331403
      3          8           0       -3.325946   -0.989085    3.209882
      4          8           0       -1.810156    7.149491    1.580331
      5          8           0       -0.980687    7.071535   -0.521129
      6          8           0       -1.798663   -3.989385    0.103659
      7          7           0        2.406814    1.040743    0.552200
      8          7           0        4.450090   -0.472597   -1.263696
      9          7           0       -1.943509    0.686258   -0.426044
     10          7           0       -2.536758   -1.871173   -0.613459
     11          6           0        4.812241   -1.106847    0.016571
     12          6           0        4.529125   -0.118269    1.187762
     13          6           0        2.985875    0.094613    1.319470
     14          6           0        2.047212   -0.600587    2.140635
     15          6           0        0.768082   -0.072465    1.856706
     16          6           0        0.937184    0.925137    0.843421
     17          6           0        6.294184   -1.359873   -0.171709
     18          6           0       -0.540389   -0.306979    2.619158
     19          6           0        6.688091   -0.836124   -1.388378
     20          6           0        0.092348    1.922731    0.231007
     21          6           0       -1.268251    1.890971   -0.160297
     22          6           0        5.497524   -0.413759   -2.159286
     23          6           0       -1.965207    2.927672   -0.826848
     24          6           0        2.287207   -1.586639    3.199206
     25          6           0        7.182303   -1.810630    0.899026
     26          6           0       -3.146972    2.329132   -1.245744
     27          6           0       -1.027628   -1.797240    2.640909
     28          6           0       -3.108525    0.879656   -1.007081
     29          6           0       -1.556939    4.393288   -0.825428
     30          6           0        7.985885   -0.752301   -2.158123
     31          6           0       -1.960424    5.094786    0.411674
     32          6           0       -4.269821    2.939119   -2.037010
     33          6           0       -3.967643   -0.128935   -1.310300
     34          6           0       -2.475356   -1.924073    3.064643
     35          6           0       -3.715615   -1.529786   -1.181940
     36          6           0        9.190358   -0.483898   -1.536744
     37          6           0       -1.423167    6.490480    0.472439
     38          6           0       -4.603414   -2.640831   -1.562884
     39          6           0       -3.830350   -3.660235   -1.163357
     40          6           0       -2.614460   -3.244545   -0.519655
     41          6           0       -5.826676   -2.432209   -2.250432
     42          6           0       -4.203684   -5.154474   -1.137753
     43          6           0       -6.728397   -3.429220   -2.678305
     44          1           0        4.188588   -2.187709    0.213909
     45          1           0        4.981112    0.761825    1.075978
     46          1           0        4.917397   -0.472950    2.172273
     47          1           0        2.968855    1.550904   -0.184416
     48          1           0        3.455710   -0.332341   -1.435372
     49          1           0       -0.451552    0.030381    3.614585
     50          1           0       -1.450381    0.066273    2.167491
     51          1           0        0.542952    2.757313    0.104977
     52          1           0        3.348853   -1.512973    3.484660
     53          1           0        1.541892   -1.503600    3.916444
     54          1           0        2.245892   -2.684241    2.820772
     55          1           0        6.623082   -2.473841    1.523184
     56          1           0        7.739596   -1.037361    1.429478
     57          1           0        7.866732   -2.440229    0.332420
     58          1           0       -1.199759   -2.253015    1.577411
     59          1           0       -0.483011   -2.604531    3.231262
     60          1           0       -1.631751   -0.427052   -0.380920
     61          1           0       -1.958972    4.852154   -1.594640
     62          1           0       -0.393810    4.436264   -0.908126
     63          1           0        7.936504   -0.917380   -3.242921
     64          1           0       -1.820872    4.578728    1.331443
     65          1           0       -3.189648    5.107536    0.356250
     66          1           0       -4.121303    4.027972   -2.210243
     67          1           0       -5.233181    2.818587   -1.523987
     68          1           0       -4.527977    2.551101   -3.156212
     69          1           0       -4.780227    0.265785   -1.960211
     70          1           0        9.328312   -0.432523   -0.597244
     71          1           0        9.917349   -0.426736   -2.118799
     72          1           0       -3.808953   -3.415207    3.334543
     73          1           0       -6.184764   -1.545549   -2.161093
     74          1           0       -4.882481   -5.662630   -2.236205
     75          1           0       -3.099662   -5.849159   -0.944334
     76          1           0       -4.993550   -5.468280   -0.223299
     77          1           0       -1.546401    8.110762    1.523517
     78          1           0       -7.632039   -3.063849   -3.116836
     79          1           0       -6.579916   -4.542221   -2.293883
 ---------------------------------------------------------------------

 SCF Done:  E(RB3LYP) =  -1947.79709937     A.U. after   19 cycles

 Excitation energies and oscillator strengths:

 Excited State   1:      Singlet-A      2.0215 eV  613.31 nm  f=0.4902  <S**2>=0.000
     154 ->156         0.11725
     155 ->156         0.69770
     155 <-156        -0.12169
 This state for optimization and/or second-order correction.
 Total Energy, E(TD-HF/TD-KS) =  -1947.72280893
 Copying the excited state density for this state as the 1-particle RhoCI density.

 The electronic state is 1-A.
 Alpha  occ. eigenvalues --  -19.19414 -19.17739 -19.13254 -19.10252 -19.10035
 Alpha  occ. eigenvalues --  -19.09647 -14.39972 -14.35428 -14.35419 -14.29412
 Alpha  occ. eigenvalues --  -10.32946 -10.30516 -10.28572 -10.26857 -10.25911
 Alpha  occ. eigenvalues --  -10.24702 -10.24528 -10.23837 -10.23337 -10.23207
 Alpha  occ. eigenvalues --  -10.23154 -10.22670 -10.22251 -10.21955 -10.21581
 Alpha  occ. eigenvalues --  -10.21455 -10.21036 -10.21034 -10.20972 -10.20863
 Alpha  occ. eigenvalues --  -10.20719 -10.20686 -10.20630 -10.20492 -10.19818
 Alpha  occ. eigenvalues --  -10.19755 -10.19750 -10.19678 -10.19675 -10.19623
 Alpha  occ. eigenvalues --  -10.19506 -10.18557 -10.17788  -1.09913  -1.06660
 Alpha  occ. eigenvalues --   -1.02624  -1.00406  -0.99305  -0.98119  -0.97635
 Alpha  occ. eigenvalues --   -0.95774  -0.93851  -0.92457  -0.83517  -0.82544
 Alpha  occ. eigenvalues --   -0.82189  -0.81099  -0.80808  -0.79320  -0.78188
 Alpha  occ. eigenvalues --   -0.77638  -0.76568  -0.76161  -0.74504  -0.72876
 Alpha  occ. eigenvalues --   -0.72574  -0.71341  -0.69115  -0.68236  -0.68019
 Alpha  occ. eigenvalues --   -0.67323  -0.65816  -0.63413  -0.62631  -0.60953
 Alpha  occ. eigenvalues --   -0.60577  -0.59779  -0.58551  -0.58063  -0.56767
 Alpha  occ. eigenvalues --   -0.56318  -0.55901  -0.54935  -0.54579  -0.54082
 Alpha  occ. eigenvalues --   -0.52319  -0.51541  -0.51168  -0.50656  -0.49817
 Alpha  occ. eigenvalues --   -0.49576  -0.49022  -0.48487  -0.48344  -0.47538
 Alpha  occ. eigenvalues --   -0.47408  -0.47062  -0.46434  -0.45936  -0.45653
 Alpha  occ. eigenvalues --   -0.45248  -0.44993  -0.44561  -0.44401  -0.43757
 Alpha  occ. eigenvalues --   -0.43564  -0.43254  -0.42838  -0.42721  -0.42444
 Alpha  occ. eigenvalues --   -0.42176  -0.41999  -0.41822  -0.41462  -0.41021
 Alpha  occ. eigenvalues --   -0.40720  -0.40545  -0.40363  -0.39691  -0.39619
 Alpha  occ. eigenvalues --   -0.39273  -0.39221  -0.38858  -0.38629  -0.38494
 Alpha  occ. eigenvalues --   -0.38262  -0.38045  -0.37588  -0.36885  -0.36004
 Alpha  occ. eigenvalues --   -0.35835  -0.35436  -0.35134  -0.34748  -0.34511
 Alpha  occ. eigenvalues --   -0.33824  -0.33630  -0.32852  -0.32739  -0.30986
 Alpha  occ. eigenvalues --   -0.30689  -0.29481  -0.28871  -0.28389  -0.28192
 Alpha  occ. eigenvalues --   -0.26615  -0.26288  -0.25586  -0.25562  -0.25194
 Alpha  occ. eigenvalues --   -0.24863  -0.24013  -0.23591  -0.22355  -0.18838
 Alpha virt. eigenvalues --   -0.11060  -0.07259  -0.06434  -0.02719  -0.02055
 Alpha virt. eigenvalues --   -0.00221   0.00479   0.01289   0.02525   0.02695
 Alpha virt. eigenvalues --    0.02965   0.03752   0.03861   0.04258   0.04509

 Mulliken charges:
               1
     1  O   -0.219252
     2  O   -0.223709
     3  O   -0.300644
     4  O   -0.189205
     5  O   -0.249702
     6  O   -0.265614
     7  N   -0.149512
     8  N   -0.214342
     9  N   -0.133110
    10  N   -0.295495
    11  C    0.030366
    12  C    0.263583
    13  C   -0.106943
    14  C   -0.152284
    15  C   -0.042719
    16  C    0.089478
    17  C   -0.183510
    18  C    0.142909
    19  C   -0.070981
    20  C   -0.006658
    21  C    0.106871
    22  C    0.160111
    23  C   -0.102794
    24  C    0.138754
    25  C    0.125808
    26  C   -0.094179
    27  C   -0.102722
    28  C    0.059262
    29  C    0.194430
    30  C   -0.053798
    31  C   -0.038923
    32  C    0.025309
    33  C   -0.102741
    34  C    0.152068
    35  C    0.070055
    36  C    0.158249
    37  C    0.166283
    38  C    0.111125
    39  C   -0.128816
    40  C    0.168182
    41  C    0.012804
    42  C   -0.140490
    43  C   -0.025225
    44  H    0.064092
    45  H   -0.055627
    46  H    0.004597
    47  H    0.152086
    48  H    0.122623
    49  H    0.010549
    50  H    0.021303
    51  H   -0.093334
    52  H   -0.005159
    53  H    0.008975
    54  H    0.032878
    55  H    0.003714
    56  H    0.052712
    57  H    0.030737
    58  H    0.095408
    59  H    0.038128
    60  H    0.216026
    61  H   -0.037250
    62  H    0.025893
    63  H    0.033671
    64  H    0.020939
    65  H    0.065673
    66  H    0.008581
    67  H    0.025016
    68  H    0.045677
    69  H   -0.020239
    70  H   -0.054954
    71  H   -0.041130
    72  H    0.240349
    73  H   -0.060132
    74  H    0.044893
    75  H    0.078132
    76  H    0.060007
    77  H    0.199941
    78  H    0.022834
    79  H    0.060111
 Sum of Mulliken charges =   0.00000

 Dipole moment (field-independent basis, Debye):
    X=              2.2563    Y=              2.9525    Z=              3.6935  Tot=              5.2393
 Quadrupole moment (field-independent basis, Debye-Ang):
   XX=           -210.4685   YY=           -247.4858   ZZ=           -268.2433
   XY=             -6.3172   XZ=             32.3846   YZ=              3.6016

 Normal termination of Gaussian 09 at Sun Jul  7 16:07:57 2019.
