 Gaussian 09, Revision D.01,
 Gaussian 09:  ES64L-G09RevD.01 24-Apr-2013

 --------------------------
 # td=(NStates=1) B3LYP/SVP
 --------------------------

 --
 TD
 --
 Symbolic Z-matrix:
 Charge =  0 Multiplicity = 1

                         Standard orientation:
 ---------------------------------------------------------------------
 Center     Atomic      Atomic             Coordinates (Angstroms)
 Number     Number       Type             X           Y           Z
 ---------------------------------------------------------------------
      1          8           0        5.412091   -0.075250   -3.266288
      2          8           0       -2.769176   -3.243822    3.110426
      3          8           0       -3.065321   -1.004463    3.183549
      4          8           0       -2.076929    7.297037    1.511680
      5          8           0       -0.732514    7.011146   -0.281406
      6          8           0       -1.891584   -4.089835   -0.010113
      7          7           0        2.338191    0.850732    0.538011
      8          7           0        4.391412   -0.750977   -1.272998
      9          7           0       -1.917791    0.675953   -0.308566
     10          7           0       -2.648864   -1.935183   -0.413884
     11          6           0        4.951783   -1.152545   -0.009193
     12          6           0        4.461811   -0.210408    1.150377
     13          6           0        2.936483   -0.148773    1.338076
     14          6           0        2.009557   -0.812971    2.006794
     15          6           0        0.774501   -0.132469    1.814220
     16          6           0        1.004235    0.907026    0.723262
     17          6           0        6.426627   -1.119644   -0.160556
     18          6           0       -0.452949   -0.451777    2.544799
     19          6           0        6.797412   -0.684636   -1.431306
     20          6           0        0.153488    1.850304    0.114687
     21          6           0       -1.187748    1.877084   -0.310249
     22          6           0        5.490436   -0.437309   -2.124730
     23          6           0       -2.031231    2.918558   -0.886179
     24          6           0        2.283911   -1.837213    3.021027
     25          6           0        7.397238   -1.611764    0.886575
     26          6           0       -3.140942    2.371676   -1.212229
     27          6           0       -0.926143   -1.889580    2.704689
     28          6           0       -3.092477    0.934684   -0.852781
     29          6           0       -1.491223    4.384999   -0.854322
     30          6           0        7.963007   -0.472716   -2.085005
     31          6           0       -2.184427    5.142929    0.454731
     32          6           0       -4.353713    2.965670   -1.868010
     33          6           0       -3.961205   -0.102675   -1.223438
     34          6           0       -2.354778   -1.943683    3.044230
     35          6           0       -3.736919   -1.391593   -0.970577
     36          6           0        9.219741   -0.405443   -1.590261
     37          6           0       -1.577224    6.508458    0.494866
     38          6           0       -4.561741   -2.518383   -1.512581
     39          6           0       -4.020786   -3.717418   -1.173736
     40          6           0       -2.788232   -3.329268   -0.449867
     41          6           0       -6.039696   -2.347767   -2.105624
     42          6           0       -4.332970   -5.226485   -1.280178
     43          6           0       -6.773119   -3.234216   -2.839993
     44          1           0        4.622622   -2.233880    0.190440
     45          1           0        4.779890    1.005722    0.918323
     46          1           0        4.750206   -0.457915    2.211578
     47          1           0        2.864621    1.568010   -0.000780
     48          1           0        3.474355   -0.991786   -1.446902
     49          1           0       -0.328561    0.085076    3.646881
     50          1           0       -1.423510    0.277849    2.109342
     51          1           0        0.722437    2.720755   -0.135549
     52          1           0        3.356943   -1.791275    3.168487
     53          1           0        2.067946   -1.356466    4.187840
     54          1           0        1.779619   -2.964139    2.956714
     55          1           0        6.873298   -2.173925    1.733802
     56          1           0        7.948290   -0.647300    1.271389
     57          1           0        8.147433   -2.439208    0.329864
     58          1           0       -0.831127   -2.450516    1.821808
     59          1           0       -0.277038   -2.488796    3.145430
     60          1           0       -1.605820   -0.247734   -0.301140
     61          1           0       -1.725731    4.796324   -1.850645
     62          1           0       -0.434554    4.523689   -0.522315
     63          1           0        7.901427   -0.158486   -3.237317
     64          1           0       -2.160929    4.535928    1.444312
     65          1           0       -3.457847    5.107065    0.271364
     66          1           0       -4.016352    4.117882   -2.208065
     67          1           0       -5.391664    3.140172   -1.192258
     68          1           0       -4.488165    2.297755   -2.757737
     69          1           0       -4.849307    0.157227   -1.860306
     70          1           0        9.342942   -0.503776   -0.556294
     71          1           0       10.132919   -0.375997   -2.198418
     72          1           0       -3.706484   -3.266558    3.475965
     73          1           0       -6.307416   -1.302178   -1.980289
     74          1           0       -3.929835   -5.649404   -2.238517
     75          1           0       -3.700411   -5.655303   -0.629342
     76          1           0       -5.462684   -5.363412   -1.047903
     77          1           0       -1.803224    8.178927    1.573288
     78          1           0       -7.686421   -2.823807   -3.327900
     79          1           0       -6.507279   -4.308600   -2.890960
 ---------------------------------------------------------------------

 SCF Done:  E(RB3LYP) =  -1947.81360389     A.U. after   24 cycles

 Excitation energies and oscillator strengths:

 Excited State   1:      Singlet-A      2.1216 eV  584.38 nm  f=0.4210  <S**2>=0.000
     153 ->156        -0.11087
     154 ->156         0.10238
     155 ->156         0.69066
     155 <-156        -0.11421
 This state for optimization and/or second-order correction.
 Total Energy, E(TD-HF/TD-KS) =  -1947.73563546
 Copying the excited state density for this state as the 1-particle RhoCI density.

 The electronic state is 1-A.
 Alpha  occ. eigenvalues --  -19.17933 -19.16001 -19.13833 -19.11005 -19.10082
 Alpha  occ. eigenvalues --  -19.09077 -14.38618 -14.36800 -14.34975 -14.27695
 Alpha  occ. eigenvalues --  -10.34190 -10.29970 -10.28736 -10.25724 -10.25170
 Alpha  occ. eigenvalues --  -10.25060 -10.24735 -10.24647 -10.24257 -10.23837
 Alpha  occ. eigenvalues --  -10.23515 -10.23360 -10.23235 -10.23139 -10.22709
 Alpha  occ. eigenvalues --  -10.22293 -10.22129 -10.21812 -10.21473 -10.20881
 Alpha  occ. eigenvalues --  -10.20712 -10.20388 -10.20219 -10.20195 -10.20137
 Alpha  occ. eigenvalues --  -10.19872 -10.19534 -10.19436 -10.19077 -10.18679
 Alpha  occ. eigenvalues --  -10.18466 -10.18444 -10.16882  -1.08900  -1.07485
 Alpha  occ. eigenvalues --   -1.03220  -1.00331  -0.99798  -0.99229  -0.98689
 Alpha  occ. eigenvalues --   -0.98486  -0.94485  -0.90805  -0.84056  -0.83234
 Alpha  occ. eigenvalues --   -0.82693  -0.81296  -0.79363  -0.78215  -0.77742
 Alpha  occ. eigenvalues --   -0.77548  -0.76793  -0.75382  -0.73802  -0.72436
 Alpha  occ. eigenvalues --   -0.71538  -0.71021  -0.69432  -0.69217  -0.68501
 Alpha  occ. eigenvalues --   -0.67023  -0.66287  -0.63943  -0.62748  -0.61746
 Alpha  occ. eigenvalues --   -0.59847  -0.58868  -0.58643  -0.57566  -0.57108
 Alpha  occ. eigenvalues --   -0.56095  -0.55595  -0.55042  -0.53707  -0.52932
 Alpha  occ. eigenvalues --   -0.51885  -0.51155  -0.50963  -0.50844  -0.50097
 Alpha  occ. eigenvalues --   -0.49447  -0.49014  -0.48176  -0.47840  -0.47548
 Alpha  occ. eigenvalues --   -0.47149  -0.46399  -0.46263  -0.45817  -0.45668
 Alpha  occ. eigenvalues --   -0.45428  -0.44326  -0.43726  -0.43373  -0.43254
 Alpha  occ. eigenvalues --   -0.43039  -0.42903  -0.42678  -0.42252  -0.42061
 Alpha  occ. eigenvalues --   -0.41745  -0.41655  -0.41368  -0.41267  -0.40834
 Alpha  occ. eigenvalues --   -0.40763  -0.40105  -0.39789  -0.39712  -0.39441
 Alpha  occ. eigenvalues --   -0.39253  -0.39032  -0.38431  -0.38351  -0.38088
 Alpha  occ. eigenvalues --   -0.37969  -0.37789  -0.37585  -0.37294  -0.36881
 Alpha  occ. eigenvalues --   -0.35898  -0.35825  -0.34526  -0.34432  -0.33651
 Alpha  occ. eigenvalues --   -0.33251  -0.33054  -0.32588  -0.32565  -0.31403
 Alpha  occ. eigenvalues --   -0.30662  -0.30185  -0.29141  -0.28326  -0.27871
 Alpha  occ. eigenvalues --   -0.26762  -0.26725  -0.25786  -0.25561  -0.25287
 Alpha  occ. eigenvalues --   -0.23697  -0.23469  -0.22819  -0.21743  -0.18763
 Alpha virt. eigenvalues --   -0.10441  -0.06846  -0.05753  -0.03591  -0.00617
 Alpha virt. eigenvalues --    0.00682   0.01039   0.02161   0.02183   0.02870
 Alpha virt. eigenvalues --    0.03098   0.03541   0.04435   0.04641   0.05265

 Mulliken charges:
               1
     1  O   -0.194213
     2  O   -0.219098
     3  O   -0.202317
     4  O   -0.190439
     5  O   -0.254787
     6  O   -0.250196
     7  N   -0.083393
     8  N   -0.192666
     9  N    0.002297
    10  N   -0.279368
    11  C    0.109239
    12  C    0.088652
    13  C   -0.060929
    14  C   -0.093823
    15  C   -0.056482
    16  C    0.068913
    17  C   -0.170055
    18  C   -0.064143
    19  C    0.048345
    20  C   -0.078697
    21  C    0.050653
    22  C    0.150066
    23  C   -0.020447
    24  C   -0.004646
    25  C   -0.013583
    26  C   -0.141236
    27  C    0.152016
    28  C    0.085902
    29  C    0.099970
    30  C   -0.106486
    31  C   -0.135536
    32  C   -0.026916
    33  C   -0.155292
    34  C    0.136390
    35  C    0.127175
    36  C   -0.012471
    37  C    0.214822
    38  C   -0.062511
    39  C   -0.187641
    40  C    0.138357
    41  C   -0.008497
    42  C    0.158658
    43  C   -0.026769
    44  H    0.032304
    45  H    0.025713
    46  H    0.022122
    47  H    0.129435
    48  H    0.111007
    49  H    0.027058
    50  H    0.059978
    51  H   -0.036181
    52  H   -0.016530
    53  H    0.032321
    54  H    0.088518
    55  H    0.031735
    56  H    0.072857
    57  H    0.074874
    58  H    0.014545
    59  H   -0.055710
    60  H    0.115212
    61  H    0.046221
    62  H    0.040937
    63  H    0.043464
    64  H    0.084329
    65  H    0.081801
    66  H    0.036375
    67  H    0.072145
    68  H    0.057180
    69  H   -0.011857
    70  H   -0.014351
    71  H    0.033556
    72  H    0.189358
    73  H   -0.013748
    74  H    0.030166
    75  H   -0.020558
    76  H    0.044232
    77  H    0.166223
    78  H    0.033214
    79  H    0.033239
 Sum of Mulliken charges =   0.00000

 Dipole moment (field-independent basis, Debye):
    X=              1.3591    Y=              3.2845    Z=              3.4565  Tot=              4.9581
 Quadrupole moment (field-independent basis, Debye-Ang):
   XX=           -221.6723   YY=           -247.1069   ZZ=           -262.2041
   XY=            -16.9725   XZ=             29.3706   YZ=              3.4326

 Normal termination of Gaussian 09 at Sun Jul  7 18:47:45 2019.
