 Gaussian 09, Revision D.01,
 Gaussian 09:  ES64L-G09RevD.01 24-Apr-2013

 --------------------------
 # td=(NStates=1) B3LYP/SVP
 --------------------------

 --
 TD
 --
 Symbolic Z-matrix:
 Charge =  0 Multiplicity = 1

                         Standard orientation:
 ---------------------------------------------------------------------
 Center     Atomic      Atomic             Coordinates (Angstroms)
 Number     Number       Type             X           Y           Z
 ---------------------------------------------------------------------
      1          8           0        5.490886   -0.152649   -3.360397
      2          8           0       -2.885172   -3.109234    3.122474
      3          8           0       -3.256142   -0.930416    3.408679
      4          8           0       -1.954006    7.207180    1.595520
      5          8           0       -0.629081    7.033851   -0.197435
      6          8           0       -1.953223   -3.838561    0.007031
      7          7           0        2.306204    0.839276    0.554323
      8          7           0        4.518853   -0.610428   -1.237004
      9          7           0       -1.782856    0.700986   -0.522982
     10          7           0       -2.757901   -1.812573   -0.479817
     11          6           0        4.896173   -1.191206    0.018706
     12          6           0        4.450336   -0.431778    1.209876
     13          6           0        3.004745   -0.129736    1.316977
     14          6           0        1.989134   -0.776404    2.076702
     15          6           0        0.711613   -0.157864    1.722841
     16          6           0        0.954441    0.840125    0.739432
     17          6           0        6.425861   -1.281553   -0.154841
     18          6           0       -0.674266   -0.365601    2.481327
     19          6           0        6.816848   -0.723886   -1.326389
     20          6           0        0.217603    1.842489    0.083484
     21          6           0       -1.017964    1.814844   -0.349881
     22          6           0        5.550750   -0.489401   -2.136647
     23          6           0       -1.839420    2.886238   -0.845727
     24          6           0        2.175334   -1.936969    3.051005
     25          6           0        7.178887   -1.788352    0.863527
     26          6           0       -3.041929    2.379694   -1.302032
     27          6           0       -1.070283   -1.747727    2.624123
     28          6           0       -3.044947    0.955545   -0.999298
     29          6           0       -1.381181    4.263616   -0.776982
     30          6           0        8.115929   -0.640777   -1.977836
     31          6           0       -1.781901    4.916994    0.548687
     32          6           0       -4.108747    3.074785   -1.981048
     33          6           0       -4.047217   -0.029213   -1.334205
     34          6           0       -2.489199   -1.831832    3.148595
     35          6           0       -3.812186   -1.360753   -1.147677
     36          6           0        9.276170   -0.605988   -1.476452
     37          6           0       -1.351878    6.426264    0.522779
     38          6           0       -4.712044   -2.526965   -1.629475
     39          6           0       -4.093024   -3.637606   -1.098468
     40          6           0       -2.876492   -3.162602   -0.471696
     41          6           0       -6.046282   -2.172395   -2.188660
     42          6           0       -4.533617   -5.044641   -1.073243
     43          6           0       -6.813278   -3.055767   -2.928258
     44          1           0        4.392703   -2.232753   -0.314410
     45          1           0        4.990246    0.534428    0.979212
     46          1           0        4.613267   -1.059149    2.103421
     47          1           0        2.868595    1.379119   -0.008452
     48          1           0        3.609620   -0.537703   -1.644419
     49          1           0       -0.688602    0.196303    3.566038
     50          1           0       -1.567004    0.088873    1.998594
     51          1           0        0.777060    2.808116    0.053417
     52          1           0        3.239342   -2.103962    3.007919
     53          1           0        1.477657   -1.688456    4.002077
     54          1           0        1.688078   -3.073888    2.622854
     55          1           0        6.723093   -2.632117    1.391741
     56          1           0        7.578054   -0.990598    1.567926
     57          1           0        7.935933   -2.382143    0.555204
     58          1           0       -1.077079   -2.508181    1.696486
     59          1           0       -0.307169   -2.307488    3.151398
     60          1           0       -1.604008   -0.125543   -0.206029
     61          1           0       -1.855715    4.831995   -1.590294
     62          1           0       -0.401947    4.443194   -0.858331
     63          1           0        8.035556   -0.473277   -2.949487
     64          1           0       -1.276211    4.673006    1.445471
     65          1           0       -2.890162    4.654977    0.797478
     66          1           0       -3.900997    4.096328   -2.447061
     67          1           0       -5.169175    3.080170   -1.471143
     68          1           0       -4.543639    2.353125   -2.846802
     69          1           0       -4.944792    0.154864   -1.767693
     70          1           0        9.395614   -0.677566   -0.357207
     71          1           0       10.014323   -0.227429   -2.080966
     72          1           0       -3.675782   -3.038782    3.598298
     73          1           0       -6.333592   -1.131385   -2.370491
     74          1           0       -4.510340   -5.471854   -2.081896
     75          1           0       -4.039197   -5.567070   -0.351923
     76          1           0       -5.552929   -5.306560   -0.636921
     77          1           0       -1.382275    7.821931    1.642572
     78          1           0       -7.793209   -2.839652   -3.276155
     79          1           0       -6.489322   -4.112537   -2.984526
 ---------------------------------------------------------------------

 SCF Done:  E(RB3LYP) =  -1947.81148434     A.U. after   19 cycles

 Excitation energies and oscillator strengths:

 Excited State   1:      Singlet-A      2.1383 eV  579.84 nm  f=0.3899  <S**2>=0.000
     154 ->156         0.14513
     155 ->156         0.68109
     155 <-156        -0.10251
 This state for optimization and/or second-order correction.
 Total Energy, E(TD-HF/TD-KS) =  -1947.73290482
 Copying the excited state density for this state as the 1-particle RhoCI density.

 The electronic state is 1-A.
 Alpha  occ. eigenvalues --  -19.16371 -19.15640 -19.15554 -19.11575 -19.09643
 Alpha  occ. eigenvalues --  -19.09071 -14.38358 -14.36425 -14.35849 -14.27847
 Alpha  occ. eigenvalues --  -10.33822 -10.30402 -10.28602 -10.26055 -10.25907
 Alpha  occ. eigenvalues --  -10.25113 -10.23906 -10.23843 -10.23646 -10.23323
 Alpha  occ. eigenvalues --  -10.23250 -10.22619 -10.22413 -10.22286 -10.21947
 Alpha  occ. eigenvalues --  -10.21625 -10.21625 -10.21434 -10.21363 -10.20885
 Alpha  occ. eigenvalues --  -10.20657 -10.20499 -10.20324 -10.20284 -10.20189
 Alpha  occ. eigenvalues --  -10.20109 -10.19748 -10.19692 -10.18752 -10.18215
 Alpha  occ. eigenvalues --  -10.18169 -10.18095 -10.17957  -1.10882  -1.09857
 Alpha  occ. eigenvalues --   -1.02380  -1.00569  -1.00507  -1.00048  -0.99644
 Alpha  occ. eigenvalues --   -0.98687  -0.94439  -0.91833  -0.84925  -0.84268
 Alpha  occ. eigenvalues --   -0.83429  -0.81621  -0.80689  -0.80102  -0.79582
 Alpha  occ. eigenvalues --   -0.78977  -0.77622  -0.77093  -0.75490  -0.73770
 Alpha  occ. eigenvalues --   -0.73238  -0.71739  -0.69955  -0.69729  -0.69205
 Alpha  occ. eigenvalues --   -0.67357  -0.66290  -0.64714  -0.61693  -0.61437
 Alpha  occ. eigenvalues --   -0.60279  -0.59262  -0.59010  -0.58668  -0.58167
 Alpha  occ. eigenvalues --   -0.57488  -0.56051  -0.55682  -0.55164  -0.54012
 Alpha  occ. eigenvalues --   -0.53155  -0.52779  -0.51923  -0.51366  -0.50438
 Alpha  occ. eigenvalues --   -0.49788  -0.49240  -0.49184  -0.49032  -0.48115
 Alpha  occ. eigenvalues --   -0.47911  -0.47764  -0.47322  -0.46979  -0.46397
 Alpha  occ. eigenvalues --   -0.45959  -0.45626  -0.45421  -0.45180  -0.44557
 Alpha  occ. eigenvalues --   -0.44426  -0.43992  -0.43742  -0.43515  -0.42844
 Alpha  occ. eigenvalues --   -0.42757  -0.42524  -0.42266  -0.41736  -0.41472
 Alpha  occ. eigenvalues --   -0.41120  -0.40729  -0.40473  -0.40134  -0.39780
 Alpha  occ. eigenvalues --   -0.39500  -0.39293  -0.38971  -0.38741  -0.38450
 Alpha  occ. eigenvalues --   -0.38184  -0.38067  -0.37818  -0.37693  -0.37321
 Alpha  occ. eigenvalues --   -0.36811  -0.36508  -0.36202  -0.35314  -0.34833
 Alpha  occ. eigenvalues --   -0.33816  -0.33673  -0.32957  -0.32504  -0.31453
 Alpha  occ. eigenvalues --   -0.31304  -0.30478  -0.29982  -0.28881  -0.27255
 Alpha  occ. eigenvalues --   -0.26434  -0.26102  -0.25850  -0.25021  -0.24985
 Alpha  occ. eigenvalues --   -0.24431  -0.24050  -0.23730  -0.22522  -0.19750
 Alpha virt. eigenvalues --   -0.11201  -0.06983  -0.05683  -0.01746  -0.01344
 Alpha virt. eigenvalues --   -0.00040   0.01354   0.01491   0.02230   0.03215
 Alpha virt. eigenvalues --    0.03475   0.03808   0.04591   0.04854   0.05415

 Mulliken charges:
               1
     1  O   -0.283863
     2  O   -0.125302
     3  O   -0.241245
     4  O   -0.183340
     5  O   -0.180947
     6  O   -0.224995
     7  N   -0.063367
     8  N   -0.210845
     9  N    0.052264
    10  N   -0.210305
    11  C    0.095166
    12  C    0.282818
    13  C   -0.129148
    14  C   -0.126694
    15  C   -0.062890
    16  C    0.097678
    17  C   -0.235619
    18  C    0.058761
    19  C   -0.007542
    20  C   -0.139002
    21  C    0.126478
    22  C    0.144332
    23  C   -0.097450
    24  C    0.009879
    25  C    0.144996
    26  C   -0.070240
    27  C   -0.083210
    28  C    0.133529
    29  C    0.184374
    30  C    0.037212
    31  C   -0.017914
    32  C   -0.001154
    33  C   -0.036486
    34  C    0.135429
    35  C    0.009705
    36  C    0.022443
    37  C    0.138105
    38  C    0.058737
    39  C   -0.179748
    40  C    0.117786
    41  C   -0.039355
    42  C    0.124345
    43  C   -0.023497
    44  H    0.042368
    45  H    0.000265
    46  H    0.010160
    47  H    0.078590
    48  H    0.121587
    49  H    0.034856
    50  H    0.011972
    51  H    0.003446
    52  H   -0.006106
    53  H    0.074128
    54  H    0.063463
    55  H   -0.003682
    56  H    0.055307
    57  H   -0.012664
    58  H    0.099162
    59  H   -0.007743
    60  H    0.048010
    61  H    0.010466
    62  H   -0.033407
    63  H   -0.052071
    64  H    0.031956
    65  H    0.068034
    66  H    0.046437
    67  H    0.038543
    68  H    0.030304
    69  H   -0.099445
    70  H    0.009364
    71  H    0.003573
    72  H    0.135250
    73  H    0.013293
    74  H    0.037799
    75  H   -0.012792
    76  H    0.014218
    77  H    0.095392
    78  H    0.021628
    79  H    0.028457
 Sum of Mulliken charges =   0.00000

 Dipole moment (field-independent basis, Debye):
    X=              0.6212    Y=              1.1993    Z=              2.6735  Tot=              2.9953
 Quadrupole moment (field-independent basis, Debye-Ang):
   XX=           -220.0000   YY=           -258.1392   ZZ=           -265.2027
   XY=             -2.2133   XZ=             39.9539   YZ=             -2.1331

 Normal termination of Gaussian 09 at Wed Jul 10 18:54:39 2019.
