 Gaussian 09, Revision D.01,
 Gaussian 09:  ES64L-G09RevD.01 24-Apr-2013

 --------------------------
 # td=(NStates=1) B3LYP/SVP
 --------------------------

 --
 TD
 --
 Symbolic Z-matrix:
 Charge =  0 Multiplicity = 1

                         Standard orientation:
 ---------------------------------------------------------------------
 Center     Atomic      Atomic             Coordinates (Angstroms)
 Number     Number       Type             X           Y           Z
 ---------------------------------------------------------------------
      1          8           0        5.532858   -0.085738   -3.234880
      2          8           0       -2.841528   -2.895698    3.205682
      3          8           0       -3.300215   -0.629097    3.061164
      4          8           0       -2.097630    7.128000    1.371105
      5          8           0       -0.742314    7.030777   -0.392019
      6          8           0       -1.849085   -4.118404    0.205676
      7          7           0        2.382393    1.100136    0.471326
      8          7           0        4.469606   -0.555284   -1.299859
      9          7           0       -1.894273    0.671016   -0.471983
     10          7           0       -2.567792   -1.972050   -0.535860
     11          6           0        4.776713   -1.080235   -0.015200
     12          6           0        4.503879   -0.030155    1.216214
     13          6           0        3.024534    0.266303    1.363107
     14          6           0        2.053123   -0.432955    2.059077
     15          6           0        0.837955    0.081937    1.753466
     16          6           0        0.987809    0.984238    0.696322
     17          6           0        6.323496   -1.251778   -0.089606
     18          6           0       -0.534137   -0.123879    2.460039
     19          6           0        6.729737   -0.863638   -1.335218
     20          6           0        0.238620    1.941828   -0.055390
     21          6           0       -1.116398    1.785913   -0.371441
     22          6           0        5.564823   -0.560304   -2.116603
     23          6           0       -1.978442    2.775632   -1.001256
     24          6           0        2.278265   -1.495597    3.142117
     25          6           0        7.210275   -1.839835    1.098448
     26          6           0       -3.235298    2.274833   -1.299404
     27          6           0       -1.145408   -1.562409    2.621136
     28          6           0       -3.081682    0.872867   -0.919633
     29          6           0       -1.582207    4.264588   -1.017032
     30          6           0        7.957703   -0.832568   -2.043986
     31          6           0       -1.895722    4.996458    0.316333
     32          6           0       -4.412672    2.943977   -2.031962
     33          6           0       -3.983142   -0.180554   -1.297033
     34          6           0       -2.516601   -1.613543    3.082241
     35          6           0       -3.739014   -1.571622   -1.098139
     36          6           0        9.152029   -0.961764   -1.511290
     37          6           0       -1.487523    6.424598    0.364581
     38          6           0       -4.660348   -2.781036   -1.470429
     39          6           0       -3.918450   -3.841563   -0.878776
     40          6           0       -2.694898   -3.406874   -0.317725
     41          6           0       -5.831730   -2.586928   -2.095572
     42          6           0       -4.353060   -5.271659   -0.808749
     43          6           0       -6.487469   -3.647713   -2.680513
     44          1           0        4.138556   -2.040983    0.208804
     45          1           0        4.898942    0.941914    1.053023
     46          1           0        4.945640   -0.627585    2.173674
     47          1           0        2.752002    1.988876   -0.148318
     48          1           0        3.526150   -0.399183   -1.515385
     49          1           0       -0.599341    0.378771    3.393875
     50          1           0       -1.378478    0.293077    1.944032
     51          1           0        0.504405    2.835678   -0.387077
     52          1           0        3.212492   -1.347566    3.355410
     53          1           0        1.824751   -1.315259    4.155671
     54          1           0        1.969918   -2.473604    2.925801
     55          1           0        6.594367   -2.417478    1.898677
     56          1           0        7.559708   -0.910256    1.755830
     57          1           0        8.011034   -2.491965    0.708169
     58          1           0       -0.885558   -1.953136    1.675504
     59          1           0       -0.290196   -2.100513    3.215727
     60          1           0       -1.796739   -0.439747   -0.401513
     61          1           0       -1.867827    4.901397   -1.901129
     62          1           0       -0.574380    4.287737   -1.227189
     63          1           0        7.913064   -0.753667   -3.195207
     64          1           0       -1.474278    4.610301    1.203464
     65          1           0       -3.008437    4.902424    0.654396
     66          1           0       -4.329953    3.972179   -2.215726
     67          1           0       -5.280963    2.866679   -1.332980
     68          1           0       -4.595851    2.316392   -2.925530
     69          1           0       -4.911916    0.154386   -1.857061
     70          1           0        9.228912   -1.137217   -0.290762
     71          1           0       10.057149   -0.710293   -2.177354
     72          1           0       -3.905849   -2.951188    3.028410
     73          1           0       -6.401521   -1.670587   -1.908127
     74          1           0       -3.747897   -5.620660   -1.965908
     75          1           0       -3.750380   -5.776637   -0.078148
     76          1           0       -5.382762   -5.514969   -0.572555
     77          1           0       -1.778040    8.225072    1.383575
     78          1           0       -7.455065   -3.547410   -3.243370
     79          1           0       -5.976454   -4.679792   -2.578633
 ---------------------------------------------------------------------

 SCF Done:  E(RB3LYP) =  -1947.81490982     A.U. after   16 cycles

 Excitation energies and oscillator strengths:

 Excited State   1:      Singlet-A      1.9494 eV  636.00 nm  f=0.4128  <S**2>=0.000
     154 ->156         0.22494
     155 ->156         0.66777
     155 <-156        -0.10874
 This state for optimization and/or second-order correction.
 Total Energy, E(TD-HF/TD-KS) =  -1947.74326987
 Copying the excited state density for this state as the 1-particle RhoCI density.

 The electronic state is 1-A.
 Alpha  occ. eigenvalues --  -19.18598 -19.18306 -19.12546 -19.11829 -19.10186
 Alpha  occ. eigenvalues --  -19.09052 -14.39679 -14.35981 -14.34780 -14.29290
 Alpha  occ. eigenvalues --  -10.32280 -10.31399 -10.27557 -10.26248 -10.26136
 Alpha  occ. eigenvalues --  -10.24131 -10.24045 -10.23804 -10.23383 -10.23333
 Alpha  occ. eigenvalues --  -10.23328 -10.23317 -10.23201 -10.22014 -10.21837
 Alpha  occ. eigenvalues --  -10.20963 -10.20872 -10.20753 -10.20707 -10.20551
 Alpha  occ. eigenvalues --  -10.20514 -10.20511 -10.20330 -10.20016 -10.19955
 Alpha  occ. eigenvalues --  -10.19926 -10.19761 -10.19567 -10.19478 -10.19198
 Alpha  occ. eigenvalues --  -10.18516 -10.18497 -10.18066  -1.07910  -1.07544
 Alpha  occ. eigenvalues --   -1.02755  -1.00971  -1.00326  -0.98405  -0.98213
 Alpha  occ. eigenvalues --   -0.97973  -0.94467  -0.90443  -0.82960  -0.82633
 Alpha  occ. eigenvalues --   -0.81571  -0.81315  -0.81213  -0.78882  -0.78034
 Alpha  occ. eigenvalues --   -0.76957  -0.76623  -0.75749  -0.74262  -0.72679
 Alpha  occ. eigenvalues --   -0.71772  -0.71504  -0.69349  -0.68780  -0.68158
 Alpha  occ. eigenvalues --   -0.66751  -0.66274  -0.63944  -0.61825  -0.61691
 Alpha  occ. eigenvalues --   -0.58710  -0.58692  -0.58493  -0.57732  -0.57354
 Alpha  occ. eigenvalues --   -0.56591  -0.56036  -0.55201  -0.54222  -0.52521
 Alpha  occ. eigenvalues --   -0.51221  -0.50861  -0.50252  -0.50122  -0.49802
 Alpha  occ. eigenvalues --   -0.49115  -0.48748  -0.48310  -0.47693  -0.47472
 Alpha  occ. eigenvalues --   -0.47378  -0.47059  -0.46806  -0.45945  -0.45699
 Alpha  occ. eigenvalues --   -0.45159  -0.44968  -0.44714  -0.43974  -0.43838
 Alpha  occ. eigenvalues --   -0.43410  -0.43216  -0.43059  -0.42347  -0.42099
 Alpha  occ. eigenvalues --   -0.41671  -0.41589  -0.41443  -0.41292  -0.40888
 Alpha  occ. eigenvalues --   -0.40677  -0.40449  -0.40380  -0.40342  -0.40099
 Alpha  occ. eigenvalues --   -0.39558  -0.39057  -0.38908  -0.38677  -0.38489
 Alpha  occ. eigenvalues --   -0.38397  -0.37455  -0.37389  -0.36864  -0.36494
 Alpha  occ. eigenvalues --   -0.36248  -0.35695  -0.34917  -0.34388  -0.34235
 Alpha  occ. eigenvalues --   -0.34039  -0.33575  -0.32169  -0.31663  -0.31619
 Alpha  occ. eigenvalues --   -0.31083  -0.30831  -0.28964  -0.28006  -0.27819
 Alpha  occ. eigenvalues --   -0.27334  -0.26462  -0.25892  -0.25676  -0.25166
 Alpha  occ. eigenvalues --   -0.24417  -0.24192  -0.23512  -0.21345  -0.18825
 Alpha virt. eigenvalues --   -0.11025  -0.07305  -0.06237  -0.01252  -0.00896
 Alpha virt. eigenvalues --   -0.00352   0.00103   0.00375   0.01440   0.02191
 Alpha virt. eigenvalues --    0.02877   0.03071   0.04152   0.04375   0.04728

 Mulliken charges:
               1
     1  O   -0.229749
     2  O   -0.204174
     3  O   -0.276963
     4  O   -0.293360
     5  O   -0.239943
     6  O   -0.207074
     7  N   -0.189095
     8  N   -0.132920
     9  N   -0.033676
    10  N   -0.358270
    11  C    0.034669
    12  C    0.142156
    13  C   -0.063372
    14  C   -0.163308
    15  C   -0.042035
    16  C    0.135274
    17  C   -0.147637
    18  C    0.083861
    19  C   -0.007561
    20  C   -0.003339
    21  C    0.054697
    22  C    0.129552
    23  C   -0.128080
    24  C    0.204100
    25  C    0.007991
    26  C   -0.145653
    27  C   -0.039254
    28  C    0.029560
    29  C    0.131157
    30  C   -0.029038
    31  C    0.029442
    32  C    0.146294
    33  C   -0.116159
    34  C    0.214765
    35  C    0.061567
    36  C   -0.088239
    37  C    0.140052
    38  C    0.149197
    39  C   -0.208713
    40  C    0.179380
    41  C   -0.105152
    42  C    0.046055
    43  C   -0.059832
    44  H    0.045127
    45  H   -0.014151
    46  H    0.036060
    47  H    0.186451
    48  H    0.103815
    49  H   -0.006268
    50  H   -0.003204
    51  H   -0.086492
    52  H   -0.071430
    53  H    0.013778
    54  H    0.031377
    55  H    0.035045
    56  H    0.058635
    57  H    0.063101
    58  H    0.048991
    59  H    0.020361
    60  H    0.190580
    61  H    0.018332
    62  H   -0.027807
    63  H    0.040223
    64  H    0.022223
    65  H    0.049340
    66  H    0.003250
    67  H    0.024683
    68  H    0.043006
    69  H   -0.013938
    70  H    0.038050
    71  H    0.043998
    72  H    0.229530
    73  H    0.016435
    74  H    0.060790
    75  H    0.016279
    76  H    0.039380
    77  H    0.255700
    78  H    0.035249
    79  H    0.046328
 Sum of Mulliken charges =   0.00000

 Dipole moment (field-independent basis, Debye):
    X=             -0.1998    Y=              2.0705    Z=              3.0714  Tot=              3.7095
 Quadrupole moment (field-independent basis, Debye-Ang):
   XX=           -221.4434   YY=           -247.2600   ZZ=           -264.4899
   XY=             -5.9678   XZ=             34.0990   YZ=              2.9844

 Normal termination of Gaussian 09 at Sun Jul  7 12:46:07 2019.
