 Gaussian 09, Revision D.01,
 Gaussian 09:  ES64L-G09RevD.01 24-Apr-2013

 --------------------------
 # td=(NStates=1) B3LYP/SVP
 --------------------------

 --
 TD
 --
 Symbolic Z-matrix:
 Charge =  0 Multiplicity = 1

                         Standard orientation:
 ---------------------------------------------------------------------
 Center     Atomic      Atomic             Coordinates (Angstroms)
 Number     Number       Type             X           Y           Z
 ---------------------------------------------------------------------
      1          8           0        5.360576   -0.284805   -3.445435
      2          8           0       -2.483046   -3.039608    3.455662
      3          8           0       -2.993802   -0.884683    3.403564
      4          8           0       -2.660740    7.157089    1.274799
      5          8           0       -1.126175    6.952470   -0.434692
      6          8           0       -1.580099   -4.205425   -0.035252
      7          7           0        2.288222    1.293041    0.558677
      8          7           0        4.490750   -0.579644   -1.235599
      9          7           0       -2.012562    0.552396   -0.331805
     10          7           0       -2.569407   -2.090967   -0.386089
     11          6           0        4.948069   -0.980486    0.068928
     12          6           0        4.668415    0.271750    1.196430
     13          6           0        3.073159    0.422608    1.284162
     14          6           0        2.195044   -0.332416    2.141274
     15          6           0        0.868586    0.087522    1.800792
     16          6           0        0.991149    1.067130    0.679660
     17          6           0        6.455760   -1.088528   -0.172272
     18          6           0       -0.500645   -0.139730    2.504480
     19          6           0        6.744932   -0.710604   -1.394725
     20          6           0        0.071063    1.953662    0.073991
     21          6           0       -1.318326    1.766364   -0.407635
     22          6           0        5.439888   -0.456218   -2.149842
     23          6           0       -2.211861    2.696886   -0.960525
     24          6           0        2.554945   -1.279852    3.179821
     25          6           0        7.438436   -1.396151    0.915558
     26          6           0       -3.317871    2.116528   -1.470536
     27          6           0       -0.780068   -1.597963    2.628255
     28          6           0       -3.067576    0.665997   -1.168790
     29          6           0       -1.952308    4.219005   -0.996036
     30          6           0        8.028926   -0.532696   -2.119206
     31          6           0       -2.288344    4.917857    0.385894
     32          6           0       -4.574982    2.825623   -1.996410
     33          6           0       -3.949113   -0.337176   -1.369960
     34          6           0       -2.161860   -1.772177    3.259648
     35          6           0       -3.670273   -1.690485   -0.992281
     36          6           0        9.248142   -0.591758   -1.612852
     37          6           0       -1.971260    6.503060    0.294455
     38          6           0       -4.586670   -2.840520   -1.311864
     39          6           0       -3.886350   -3.940771   -0.939769
     40          6           0       -2.551887   -3.520685   -0.351379
     41          6           0       -5.902954   -2.720276   -1.990388
     42          6           0       -4.240272   -5.445517   -0.903783
     43          6           0       -6.510889   -3.723189   -2.705197
     44          1           0        4.444483   -1.852072    0.372957
     45          1           0        5.254872    1.145280    0.919282
     46          1           0        4.964712   -0.071564    2.195080
     47          1           0        2.764883    1.843994   -0.187040
     48          1           0        3.366476   -0.610933   -1.487448
     49          1           0       -0.532361    0.495558    3.581595
     50          1           0       -1.238801    0.443565    1.763429
     51          1           0        0.405855    2.885518   -0.373382
     52          1           0        3.572705   -1.051853    3.186746
     53          1           0        2.007755   -1.164797    4.183696
     54          1           0        2.426406   -2.336905    2.820394
     55          1           0        6.832653   -2.020551    1.815900
     56          1           0        8.043142   -0.293803    1.166308
     57          1           0        8.174141   -2.170527    0.526437
     58          1           0       -0.856863   -2.219845    1.620338
     59          1           0       -0.151748   -2.159825    3.357589
     60          1           0       -1.575252   -0.429474   -0.225636
     61          1           0       -2.565541    4.527688   -1.834085
     62          1           0       -1.097466    4.652099   -1.212208
     63          1           0        7.894652   -0.382652   -3.160261
     64          1           0       -1.651268    4.494145    1.129490
     65          1           0       -3.225844    4.945829    0.673827
     66          1           0       -4.418652    3.862057   -2.462964
     67          1           0       -5.493021    2.758129   -1.255636
     68          1           0       -4.975839    2.448633   -3.029796
     69          1           0       -4.937812   -0.234495   -1.841281
     70          1           0        9.549592   -0.717910   -0.556925
     71          1           0       10.169775   -0.439094   -2.454330
     72          1           0       -3.495863   -2.839452    3.799638
     73          1           0       -6.410974   -1.924520   -1.643080
     74          1           0       -3.972771   -6.216997   -1.942337
     75          1           0       -3.553157   -6.007883   -0.122605
     76          1           0       -5.317329   -5.431898   -0.740829
     77          1           0       -2.389308    8.015301    0.961760
     78          1           0       -7.479584   -3.654918   -3.168899
     79          1           0       -5.743422   -4.570664   -2.760574
 ---------------------------------------------------------------------

 SCF Done:  E(RB3LYP) =  -1947.81782150     A.U. after   19 cycles

 Excitation energies and oscillator strengths:

 Excited State   1:      Singlet-A      2.0151 eV  615.28 nm  f=0.5232  <S**2>=0.000
     155 ->156         0.70450
     155 <-156        -0.13315
 This state for optimization and/or second-order correction.
 Total Energy, E(TD-HF/TD-KS) =  -1947.74376799
 Copying the excited state density for this state as the 1-particle RhoCI density.

 The electronic state is 1-A.
 Alpha  occ. eigenvalues --  -19.20217 -19.17788 -19.14936 -19.11174 -19.10956
 Alpha  occ. eigenvalues --  -19.09322 -14.40052 -14.38018 -14.36536 -14.28995
 Alpha  occ. eigenvalues --  -10.33482 -10.30121 -10.28852 -10.26996 -10.26378
 Alpha  occ. eigenvalues --  -10.24872 -10.24366 -10.24342 -10.24245 -10.24230
 Alpha  occ. eigenvalues --  -10.23815 -10.23088 -10.22639 -10.22630 -10.21720
 Alpha  occ. eigenvalues --  -10.21325 -10.21305 -10.21087 -10.20855 -10.20800
 Alpha  occ. eigenvalues --  -10.20392 -10.20339 -10.20201 -10.20125 -10.20109
 Alpha  occ. eigenvalues --  -10.20075 -10.20072 -10.20037 -10.19984 -10.19864
 Alpha  occ. eigenvalues --  -10.19712 -10.19655 -10.18541  -1.11872  -1.08736
 Alpha  occ. eigenvalues --   -1.03234  -1.01010  -1.00368  -0.99946  -0.98643
 Alpha  occ. eigenvalues --   -0.97966  -0.93136  -0.91794  -0.82644  -0.82569
 Alpha  occ. eigenvalues --   -0.81820  -0.80698  -0.79943  -0.78768  -0.77404
 Alpha  occ. eigenvalues --   -0.77152  -0.76405  -0.74956  -0.74064  -0.72297
 Alpha  occ. eigenvalues --   -0.71423  -0.70584  -0.69313  -0.68458  -0.68372
 Alpha  occ. eigenvalues --   -0.66645  -0.65870  -0.63981  -0.60729  -0.60331
 Alpha  occ. eigenvalues --   -0.59576  -0.58863  -0.57625  -0.57537  -0.57003
 Alpha  occ. eigenvalues --   -0.56314  -0.55834  -0.54597  -0.53675  -0.53293
 Alpha  occ. eigenvalues --   -0.52127  -0.51714  -0.51161  -0.51082  -0.49734
 Alpha  occ. eigenvalues --   -0.49522  -0.48576  -0.47843  -0.47640  -0.47411
 Alpha  occ. eigenvalues --   -0.47098  -0.46797  -0.46742  -0.46344  -0.45977
 Alpha  occ. eigenvalues --   -0.45700  -0.45532  -0.44376  -0.43824  -0.43312
 Alpha  occ. eigenvalues --   -0.42951  -0.42900  -0.42662  -0.42489  -0.42274
 Alpha  occ. eigenvalues --   -0.42175  -0.41858  -0.41637  -0.41496  -0.41397
 Alpha  occ. eigenvalues --   -0.41024  -0.40659  -0.40378  -0.40198  -0.40005
 Alpha  occ. eigenvalues --   -0.39443  -0.39440  -0.39187  -0.38956  -0.38617
 Alpha  occ. eigenvalues --   -0.38133  -0.37362  -0.37176  -0.36873  -0.36551
 Alpha  occ. eigenvalues --   -0.36045  -0.35994  -0.34764  -0.34676  -0.34330
 Alpha  occ. eigenvalues --   -0.34157  -0.33834  -0.33768  -0.32493  -0.32073
 Alpha  occ. eigenvalues --   -0.30588  -0.30399  -0.29478  -0.28728  -0.27512
 Alpha  occ. eigenvalues --   -0.26741  -0.26711  -0.26246  -0.25304  -0.24864
 Alpha  occ. eigenvalues --   -0.24435  -0.24333  -0.23919  -0.22643  -0.18389
 Alpha virt. eigenvalues --   -0.10814  -0.06725  -0.05370  -0.01569  -0.01136
 Alpha virt. eigenvalues --    0.00694   0.01274   0.01549   0.01618   0.02158
 Alpha virt. eigenvalues --    0.02816   0.03827   0.03856   0.04103   0.04285

 Mulliken charges:
               1
     1  O   -0.321887
     2  O   -0.206411
     3  O   -0.269798
     4  O   -0.153967
     5  O   -0.214235
     6  O   -0.209192
     7  N   -0.026566
     8  N   -0.197597
     9  N   -0.106567
    10  N   -0.292816
    11  C    0.120862
    12  C    0.164593
    13  C   -0.128279
    14  C   -0.150847
    15  C   -0.086172
    16  C    0.071378
    17  C   -0.198574
    18  C    0.010519
    19  C   -0.011653
    20  C   -0.061616
    21  C    0.017573
    22  C    0.169134
    23  C   -0.070834
    24  C    0.122615
    25  C   -0.040875
    26  C   -0.081020
    27  C   -0.022048
    28  C    0.147883
    29  C    0.146007
    30  C    0.051835
    31  C    0.080384
    32  C    0.008233
    33  C   -0.130075
    34  C    0.121845
    35  C    0.036125
    36  C   -0.087623
    37  C    0.114476
    38  C    0.018452
    39  C   -0.191644
    40  C    0.181042
    41  C   -0.002971
    42  C   -0.023849
    43  C   -0.007966
    44  H    0.010135
    45  H    0.006346
    46  H    0.023554
    47  H    0.134826
    48  H    0.186501
    49  H    0.047918
    50  H    0.055046
    51  H   -0.014689
    52  H   -0.036432
    53  H    0.046419
    54  H    0.042806
    55  H    0.043484
    56  H    0.081212
    57  H    0.062683
    58  H    0.108121
    59  H    0.026203
    60  H    0.184539
    61  H   -0.015216
    62  H   -0.032727
    63  H    0.001139
    64  H    0.036764
    65  H   -0.019224
    66  H    0.030198
    67  H    0.065114
    68  H    0.028123
    69  H   -0.026572
    70  H    0.023391
    71  H    0.049109
    72  H    0.212921
    73  H   -0.026433
    74  H    0.051535
    75  H    0.058239
    76  H    0.035745
    77  H    0.153517
    78  H    0.029584
    79  H    0.048251
 Sum of Mulliken charges =   0.00000

 Dipole moment (field-independent basis, Debye):
    X=             -0.0610    Y=              3.4986    Z=              3.3528  Tot=              4.8461
 Quadrupole moment (field-independent basis, Debye-Ang):
   XX=           -220.1248   YY=           -249.0477   ZZ=           -268.6060
   XY=             -8.8301   XZ=             38.5699   YZ=             -3.8090

 Normal termination of Gaussian 09 at Tue Jul  9 19:51:30 2019.
