 Gaussian 09, Revision D.01,
 Gaussian 09:  ES64L-G09RevD.01 24-Apr-2013

 --------------------------
 # td=(NStates=1) B3LYP/SVP
 --------------------------

 --
 TD
 --
 Symbolic Z-matrix:
 Charge =  0 Multiplicity = 1

                         Standard orientation:
 ---------------------------------------------------------------------
 Center     Atomic      Atomic             Coordinates (Angstroms)
 Number     Number       Type             X           Y           Z
 ---------------------------------------------------------------------
      1          8           0        5.535489   -0.127370   -3.339764
      2          8           0       -2.686793   -3.090693    3.464287
      3          8           0       -2.993354   -0.985801    3.407239
      4          8           0       -1.960862    7.225401    1.295567
      5          8           0       -0.437992    6.880523   -0.402798
      6          8           0       -1.964782   -4.063666   -0.072173
      7          7           0        2.430527    0.971543    0.490342
      8          7           0        4.521835   -0.556987   -1.305717
      9          7           0       -1.928375    0.656246   -0.505880
     10          7           0       -2.634003   -1.844388   -0.505276
     11          6           0        4.879206   -1.087550   -0.091772
     12          6           0        4.517800   -0.236056    1.184335
     13          6           0        3.002082    0.093503    1.290214
     14          6           0        2.070811   -0.486806    2.113951
     15          6           0        0.709752   -0.044894    1.710963
     16          6           0        0.952707    0.866010    0.703990
     17          6           0        6.283583   -1.288186   -0.184844
     18          6           0       -0.555897   -0.169536    2.455714
     19          6           0        6.697611   -0.914450   -1.449437
     20          6           0        0.115361    1.787201    0.127724
     21          6           0       -1.163640    1.848049   -0.312768
     22          6           0        5.600126   -0.479048   -2.211320
     23          6           0       -2.042007    2.941962   -0.829697
     24          6           0        2.372199   -1.477771    3.251252
     25          6           0        7.188770   -1.660273    0.936084
     26          6           0       -3.256171    2.361764   -1.249671
     27          6           0       -0.953674   -1.695232    2.491055
     28          6           0       -3.224563    0.893920   -0.927390
     29          6           0       -1.657133    4.295349   -0.905997
     30          6           0        8.143342   -0.921685   -1.983193
     31          6           0       -1.852795    5.041227    0.404274
     32          6           0       -4.442889    3.042422   -1.891463
     33          6           0       -4.167905   -0.018148   -1.132905
     34          6           0       -2.335213   -1.877986    3.090736
     35          6           0       -3.832722   -1.393441   -1.075995
     36          6           0        9.317074   -0.828906   -1.406035
     37          6           0       -1.323563    6.495776    0.319762
     38          6           0       -4.690198   -2.573004   -1.388304
     39          6           0       -4.067446   -3.702002   -1.166309
     40          6           0       -2.757478   -3.313669   -0.400464
     41          6           0       -6.144674   -2.351582   -1.956723
     42          6           0       -4.469603   -5.208954   -1.374152
     43          6           0       -6.812503   -3.376088   -2.562081
     44          1           0        4.532481   -2.166248    0.098338
     45          1           0        5.223640    0.605922    1.192134
     46          1           0        4.611055   -0.844551    2.110382
     47          1           0        2.803745    1.719383   -0.198828
     48          1           0        3.383418   -0.537917   -1.753386
     49          1           0       -0.643360    0.166262    3.495836
     50          1           0       -1.263180    0.454961    2.051722
     51          1           0        0.705447    2.797484    0.068579
     52          1           0        3.301166   -1.389453    3.486972
     53          1           0        1.664696   -1.258961    4.137400
     54          1           0        2.341943   -2.642115    3.040886
     55          1           0        6.440111   -2.340223    1.497365
     56          1           0        7.322223   -0.975237    1.542714
     57          1           0        8.001627   -2.317898    0.590944
     58          1           0       -0.954042   -2.108649    1.391213
     59          1           0       -0.285327   -2.365528    2.875130
     60          1           0       -1.619868   -0.322739   -0.379551
     61          1           0       -2.040424    4.780217   -1.782215
     62          1           0       -0.610131    4.227166   -1.065897
     63          1           0        8.012007   -0.877528   -3.084451
     64          1           0       -1.199090    4.561248    1.218939
     65          1           0       -2.924820    4.931001    0.948510
     66          1           0       -4.326609    4.111749   -1.913639
     67          1           0       -5.462078    2.956075   -1.310303
     68          1           0       -4.766874    2.553679   -2.850715
     69          1           0       -5.232160    0.114593   -1.566659
     70          1           0        9.438236   -0.749202   -0.529945
     71          1           0       10.068476   -0.810222   -2.214545
     72          1           0       -3.667736   -2.877289    3.660757
     73          1           0       -6.627684   -1.400387   -1.756026
     74          1           0       -4.277044   -5.652557   -2.397782
     75          1           0       -3.719390   -6.050658   -0.835101
     76          1           0       -5.665753   -5.366484   -0.946446
     77          1           0       -1.703052    8.325741    1.229121
     78          1           0       -7.859468   -3.431590   -2.873358
     79          1           0       -6.267821   -4.483604   -2.688441
 ---------------------------------------------------------------------

 SCF Done:  E(RB3LYP) =  -1947.74670231     A.U. after   16 cycles

 Excitation energies and oscillator strengths:

 Excited State   1:      Singlet-A      2.2498 eV  551.10 nm  f=0.4399  <S**2>=0.000
     154 ->156         0.11163
     155 ->156         0.69163
 This state for optimization and/or second-order correction.
 Total Energy, E(TD-HF/TD-KS) =  -1947.66402502
 Copying the excited state density for this state as the 1-particle RhoCI density.

 The electronic state is 1-A.
 Alpha  occ. eigenvalues --  -19.19492 -19.16467 -19.14006 -19.11860 -19.10569
 Alpha  occ. eigenvalues --  -19.09837 -14.38687 -14.35636 -14.35508 -14.29217
 Alpha  occ. eigenvalues --  -10.33120 -10.29325 -10.27537 -10.27015 -10.24563
 Alpha  occ. eigenvalues --  -10.24415 -10.24401 -10.23596 -10.23547 -10.22900
 Alpha  occ. eigenvalues --  -10.22839 -10.22558 -10.22392 -10.21825 -10.21558
 Alpha  occ. eigenvalues --  -10.21379 -10.21348 -10.21188 -10.20976 -10.20647
 Alpha  occ. eigenvalues --  -10.20403 -10.20047 -10.19886 -10.19857 -10.19825
 Alpha  occ. eigenvalues --  -10.19673 -10.19498 -10.19273 -10.19220 -10.19128
 Alpha  occ. eigenvalues --  -10.18542 -10.18411 -10.17395  -1.11007  -1.08267
 Alpha  occ. eigenvalues --   -1.06434  -1.04008  -1.00474  -1.00160  -0.97689
 Alpha  occ. eigenvalues --   -0.96169  -0.95781  -0.89698  -0.83684  -0.82485
 Alpha  occ. eigenvalues --   -0.81869  -0.80521  -0.79518  -0.78638  -0.77917
 Alpha  occ. eigenvalues --   -0.76826  -0.76147  -0.75595  -0.73490  -0.72815
 Alpha  occ. eigenvalues --   -0.72166  -0.71196  -0.69280  -0.68089  -0.67826
 Alpha  occ. eigenvalues --   -0.67092  -0.66446  -0.63588  -0.61038  -0.59778
 Alpha  occ. eigenvalues --   -0.58810  -0.57652  -0.57346  -0.56688  -0.56457
 Alpha  occ. eigenvalues --   -0.55727  -0.55636  -0.55333  -0.55067  -0.53346
 Alpha  occ. eigenvalues --   -0.52738  -0.51949  -0.51081  -0.50349  -0.49656
 Alpha  occ. eigenvalues --   -0.49330  -0.48531  -0.48238  -0.48140  -0.47685
 Alpha  occ. eigenvalues --   -0.47333  -0.46826  -0.46632  -0.46507  -0.46105
 Alpha  occ. eigenvalues --   -0.45752  -0.45517  -0.44272  -0.43964  -0.43613
 Alpha  occ. eigenvalues --   -0.43318  -0.43153  -0.42940  -0.42722  -0.42581
 Alpha  occ. eigenvalues --   -0.42208  -0.42021  -0.41782  -0.41323  -0.41155
 Alpha  occ. eigenvalues --   -0.40929  -0.40193  -0.39873  -0.39640  -0.39569
 Alpha  occ. eigenvalues --   -0.39514  -0.39345  -0.39053  -0.38801  -0.38551
 Alpha  occ. eigenvalues --   -0.38359  -0.38217  -0.38015  -0.37521  -0.37065
 Alpha  occ. eigenvalues --   -0.36646  -0.36012  -0.35285  -0.35047  -0.34443
 Alpha  occ. eigenvalues --   -0.33415  -0.33099  -0.32582  -0.32309  -0.31223
 Alpha  occ. eigenvalues --   -0.31106  -0.31036  -0.29348  -0.28504  -0.27909
 Alpha  occ. eigenvalues --   -0.26920  -0.26358  -0.25684  -0.25482  -0.24874
 Alpha  occ. eigenvalues --   -0.24425  -0.24088  -0.23508  -0.22276  -0.19105
 Alpha virt. eigenvalues --   -0.10143  -0.05733  -0.05314  -0.01093  -0.00840
 Alpha virt. eigenvalues --    0.00087   0.00680   0.01145   0.01850   0.02945
 Alpha virt. eigenvalues --    0.03456   0.03570   0.04243   0.04761   0.04870

 Mulliken charges:
               1
     1  O   -0.176924
     2  O   -0.181103
     3  O   -0.201173
     4  O   -0.281094
     5  O   -0.207002
     6  O   -0.108959
     7  N   -0.136872
     8  N   -0.267759
     9  N   -0.138275
    10  N   -0.388763
    11  C    0.100096
    12  C    0.190855
    13  C   -0.052688
    14  C   -0.171069
    15  C   -0.056331
    16  C    0.082569
    17  C   -0.264248
    18  C    0.180578
    19  C   -0.085657
    20  C   -0.158395
    21  C    0.138370
    22  C    0.130955
    23  C   -0.089678
    24  C    0.127448
    25  C    0.242175
    26  C   -0.123169
    27  C   -0.033492
    28  C    0.214889
    29  C    0.172391
    30  C   -0.021239
    31  C   -0.074552
    32  C    0.073802
    33  C   -0.143481
    34  C    0.105488
    35  C    0.054054
    36  C    0.141155
    37  C    0.174314
    38  C    0.032494
    39  C   -0.161689
    40  C    0.146897
    41  C    0.007306
    42  C   -0.059943
    43  C   -0.079078
    44  H    0.027603
    45  H   -0.001764
    46  H   -0.014302
    47  H    0.157496
    48  H    0.189687
    49  H    0.007518
    50  H   -0.033296
    51  H    0.009522
    52  H   -0.062647
    53  H    0.036680
    54  H    0.032299
    55  H   -0.002152
    56  H   -0.041869
    57  H    0.049291
    58  H    0.070532
    59  H   -0.011605
    60  H    0.147147
    61  H    0.008970
    62  H   -0.011413
    63  H    0.011206
    64  H    0.051279
    65  H    0.057927
    66  H    0.010173
    67  H    0.026248
    68  H    0.035020
    69  H    0.001468
    70  H   -0.121927
    71  H    0.037299
    72  H    0.184803
    73  H    0.005867
    74  H    0.052611
    75  H    0.045451
    76  H    0.067618
    77  H    0.244410
    78  H    0.027580
    79  H    0.052073
 Sum of Mulliken charges =   0.00000

 Dipole moment (field-independent basis, Debye):
    X=             -0.4320    Y=              2.9219    Z=              2.6759  Tot=              3.9855
 Quadrupole moment (field-independent basis, Debye-Ang):
   XX=           -223.3834   YY=           -236.6448   ZZ=           -267.6529
   XY=            -13.1834   XZ=             33.5970   YZ=              6.2227

 Normal termination of Gaussian 09 at Mon Jul  8 20:50:30 2019.
