 Gaussian 09, Revision D.01,
 Gaussian 09:  ES64L-G09RevD.01 24-Apr-2013

 --------------------------
 # td=(NStates=1) B3LYP/SVP
 --------------------------

 --
 TD
 --
 Symbolic Z-matrix:
 Charge =  0 Multiplicity = 1

                         Standard orientation:
 ---------------------------------------------------------------------
 Center     Atomic      Atomic             Coordinates (Angstroms)
 Number     Number       Type             X           Y           Z
 ---------------------------------------------------------------------
      1          8           0        5.470914   -0.167826   -3.371295
      2          8           0       -2.915773   -3.034306    3.436001
      3          8           0       -3.243027   -0.850521    3.174118
      4          8           0       -1.511459    7.217812    1.511964
      5          8           0        0.100792    6.842360   -0.074086
      6          8           0       -2.207035   -4.110695   -0.142531
      7          7           0        2.425762    0.729607    0.579956
      8          7           0        4.427027   -0.701398   -1.382490
      9          7           0       -1.968567    0.695814   -0.298764
     10          7           0       -2.781659   -1.866851   -0.618708
     11          6           0        4.858564   -1.342037   -0.094101
     12          6           0        4.496229   -0.424677    1.133575
     13          6           0        2.999609   -0.145624    1.279379
     14          6           0        2.008806   -0.749862    2.141301
     15          6           0        0.758820   -0.124431    1.769577
     16          6           0        0.996758    0.866715    0.734269
     17          6           0        6.352111   -1.394649   -0.202354
     18          6           0       -0.501841   -0.365732    2.462682
     19          6           0        6.769430   -0.938259   -1.350401
     20          6           0        0.207497    1.821069    0.060679
     21          6           0       -1.070917    1.833809   -0.376943
     22          6           0        5.482664   -0.555363   -2.227799
     23          6           0       -1.917237    2.898082   -0.837885
     24          6           0        2.218399   -1.895592    3.111516
     25          6           0        7.299924   -1.960349    0.817216
     26          6           0       -3.073330    2.473499   -1.276273
     27          6           0       -1.064669   -1.747742    2.421692
     28          6           0       -3.145901    1.115193   -0.896233
     29          6           0       -1.392961    4.330003   -0.904086
     30          6           0        8.130901   -0.901743   -1.942358
     31          6           0       -1.652196    5.144496    0.402294
     32          6           0       -4.334051    3.193575   -1.796236
     33          6           0       -4.124153    0.102575   -1.310026
     34          6           0       -2.502912   -1.821644    3.017202
     35          6           0       -3.820080   -1.259209   -1.150263
     36          6           0        9.333021   -0.806353   -1.385843
     37          6           0       -0.962157    6.463445    0.548675
     38          6           0       -4.847698   -2.302867   -1.576740
     39          6           0       -4.252990   -3.555916   -1.168145
     40          6           0       -2.953671   -3.182976   -0.582051
     41          6           0       -6.258302   -1.924660   -2.078744
     42          6           0       -4.771587   -4.951377   -1.292886
     43          6           0       -7.239511   -2.919904   -2.367551
     44          1           0        4.515226   -2.244574    0.099501
     45          1           0        4.991259    0.409388    1.039577
     46          1           0        4.828057   -1.069936    1.990800
     47          1           0        2.915277    1.152470   -0.094497
     48          1           0        3.464618   -0.368276   -1.772022
     49          1           0       -0.341446   -0.091744    3.499795
     50          1           0       -1.414983    0.095925    2.042122
     51          1           0        0.905065    2.626640   -0.208928
     52          1           0        3.200181   -2.201781    3.575043
     53          1           0        1.747070   -1.807883    4.009985
     54          1           0        1.672197   -2.633573    2.700194
     55          1           0        6.825555   -3.025983    1.178850
     56          1           0        7.428122   -1.318050    1.744227
     57          1           0        8.298608   -2.264439    0.529738
     58          1           0       -1.246919   -2.264601    1.271344
     59          1           0       -0.569207   -2.427057    3.034062
     60          1           0       -1.693505   -0.462755   -0.430754
     61          1           0       -1.885686    4.959547   -1.777042
     62          1           0       -0.253919    4.450012   -1.012892
     63          1           0        8.082266   -0.818174   -2.974270
     64          1           0       -1.284928    4.473364    1.262852
     65          1           0       -2.621852    5.292376    0.668774
     66          1           0       -4.078940    4.107885   -2.023112
     67          1           0       -5.122977    3.270092   -0.830265
     68          1           0       -4.703509    2.687953   -2.686327
     69          1           0       -5.093321    0.536774   -1.931717
     70          1           0        9.407961   -0.846963   -0.285951
     71          1           0       10.145546   -0.463466   -2.212804
     72          1           0       -3.658858   -3.143069    3.963313
     73          1           0       -6.379480   -0.840494   -2.198687
     74          1           0       -4.778755   -5.451858   -2.331720
     75          1           0       -4.027602   -5.513475   -0.853821
     76          1           0       -5.564668   -5.191395   -0.594498
     77          1           0       -0.883590    7.853462    1.855284
     78          1           0       -8.061225   -2.533146   -2.820859
     79          1           0       -7.194284   -3.936965   -2.157482
 ---------------------------------------------------------------------

 SCF Done:  E(RB3LYP) =  -1947.80917454     A.U. after   19 cycles

 Excitation energies and oscillator strengths:

 Excited State   1:      Singlet-A      2.1451 eV  577.99 nm  f=0.2051  <S**2>=0.000
     153 ->156        -0.13132
     154 ->156         0.54245
     155 ->156         0.42814
 This state for optimization and/or second-order correction.
 Total Energy, E(TD-HF/TD-KS) =  -1947.73034406
 Copying the excited state density for this state as the 1-particle RhoCI density.

 The electronic state is 1-A.
 Alpha  occ. eigenvalues --  -19.19805 -19.15820 -19.13073 -19.10883 -19.10277
 Alpha  occ. eigenvalues --  -19.08798 -14.39513 -14.37466 -14.36425 -14.29322
 Alpha  occ. eigenvalues --  -10.33694 -10.30690 -10.29372 -10.25900 -10.25360
 Alpha  occ. eigenvalues --  -10.24731 -10.24564 -10.24320 -10.24309 -10.23238
 Alpha  occ. eigenvalues --  -10.23088 -10.22737 -10.22593 -10.22420 -10.21845
 Alpha  occ. eigenvalues --  -10.21808 -10.21617 -10.21158 -10.21032 -10.20841
 Alpha  occ. eigenvalues --  -10.20622 -10.20618 -10.20522 -10.20425 -10.20384
 Alpha  occ. eigenvalues --  -10.19702 -10.19636 -10.19529 -10.18813 -10.18678
 Alpha  occ. eigenvalues --  -10.18453 -10.18284 -10.16904  -1.10312  -1.07593
 Alpha  occ. eigenvalues --   -1.03502  -1.02288  -0.98718  -0.98143  -0.97768
 Alpha  occ. eigenvalues --   -0.96958  -0.94552  -0.92142  -0.83496  -0.83288
 Alpha  occ. eigenvalues --   -0.82937  -0.81885  -0.80320  -0.78942  -0.77571
 Alpha  occ. eigenvalues --   -0.77512  -0.76989  -0.75865  -0.74062  -0.73100
 Alpha  occ. eigenvalues --   -0.72494  -0.71290  -0.71096  -0.69222  -0.68584
 Alpha  occ. eigenvalues --   -0.68226  -0.67082  -0.64806  -0.62109  -0.61545
 Alpha  occ. eigenvalues --   -0.60590  -0.60198  -0.59381  -0.59052  -0.58603
 Alpha  occ. eigenvalues --   -0.56343  -0.55748  -0.55193  -0.54838  -0.53418
 Alpha  occ. eigenvalues --   -0.53361  -0.52127  -0.51557  -0.51149  -0.49310
 Alpha  occ. eigenvalues --   -0.49199  -0.48534  -0.48168  -0.48059  -0.47474
 Alpha  occ. eigenvalues --   -0.46960  -0.46734  -0.46376  -0.46061  -0.45480
 Alpha  occ. eigenvalues --   -0.45268  -0.44836  -0.44567  -0.44257  -0.43883
 Alpha  occ. eigenvalues --   -0.43501  -0.43217  -0.43051  -0.42849  -0.42759
 Alpha  occ. eigenvalues --   -0.42622  -0.42377  -0.42035  -0.41785  -0.41318
 Alpha  occ. eigenvalues --   -0.41232  -0.41025  -0.40413  -0.40149  -0.39961
 Alpha  occ. eigenvalues --   -0.39675  -0.39473  -0.38892  -0.38749  -0.38456
 Alpha  occ. eigenvalues --   -0.38243  -0.38081  -0.37877  -0.37514  -0.36990
 Alpha  occ. eigenvalues --   -0.36525  -0.35660  -0.35189  -0.35017  -0.33656
 Alpha  occ. eigenvalues --   -0.33098  -0.32726  -0.32430  -0.32362  -0.32096
 Alpha  occ. eigenvalues --   -0.30823  -0.30169  -0.28450  -0.28160  -0.27683
 Alpha  occ. eigenvalues --   -0.27036  -0.26431  -0.26110  -0.25714  -0.25335
 Alpha  occ. eigenvalues --   -0.25190  -0.23628  -0.22942  -0.20974  -0.19527
 Alpha virt. eigenvalues --   -0.10907  -0.06425  -0.05050  -0.02777  -0.01362
 Alpha virt. eigenvalues --    0.00804   0.01376   0.01778   0.02236   0.02542
 Alpha virt. eigenvalues --    0.02715   0.03758   0.04570   0.04805   0.05370

 Mulliken charges:
               1
     1  O   -0.205903
     2  O   -0.159871
     3  O   -0.254904
     4  O   -0.161338
     5  O   -0.295901
     6  O   -0.278791
     7  N    0.071503
     8  N   -0.254140
     9  N   -0.215565
    10  N   -0.222534
    11  C    0.209331
    12  C    0.268738
    13  C   -0.173387
    14  C   -0.155141
    15  C   -0.066097
    16  C    0.045296
    17  C   -0.182412
    18  C    0.084237
    19  C   -0.049860
    20  C   -0.081185
    21  C    0.128647
    22  C    0.138465
    23  C   -0.010505
    24  C    0.182469
    25  C    0.025008
    26  C   -0.181709
    27  C   -0.075161
    28  C    0.097325
    29  C    0.023953
    30  C    0.008731
    31  C    0.028304
    32  C    0.168822
    33  C   -0.179832
    34  C    0.129233
    35  C    0.118882
    36  C   -0.047746
    37  C    0.151893
    38  C   -0.029602
    39  C   -0.216238
    40  C    0.148785
    41  C   -0.022261
    42  C    0.151187
    43  C    0.053654
    44  H   -0.029754
    45  H   -0.064340
    46  H    0.014859
    47  H    0.056703
    48  H    0.165363
    49  H    0.006456
    50  H    0.035933
    51  H   -0.005064
    52  H    0.015572
    53  H   -0.032110
    54  H    0.008794
    55  H    0.029468
    56  H    0.045441
    57  H    0.035054
    58  H    0.121767
    59  H   -0.011952
    60  H    0.234959
    61  H    0.039771
    62  H    0.039134
    63  H   -0.016256
    64  H    0.058479
    65  H   -0.003873
    66  H   -0.047552
    67  H    0.064875
    68  H    0.035560
    69  H    0.042398
    70  H    0.019823
    71  H    0.060864
    72  H    0.159219
    73  H   -0.008954
    74  H    0.038485
    75  H   -0.033037
    76  H    0.014244
    77  H    0.186989
    78  H   -0.005275
    79  H    0.013579
 Sum of Mulliken charges =   0.00000

 Dipole moment (field-independent basis, Debye):
    X=              2.2157    Y=              3.3170    Z=              4.3586  Tot=              5.9084
 Quadrupole moment (field-independent basis, Debye-Ang):
   XX=           -229.3901   YY=           -253.5575   ZZ=           -255.3893
   XY=            -18.3235   XZ=             31.2577   YZ=             -0.7083

 Normal termination of Gaussian 09 at Mon Jul  8 02:09:39 2019.
