 Gaussian 09, Revision D.01,
 Gaussian 09:  ES64L-G09RevD.01 24-Apr-2013

 --------------------------
 # td=(NStates=1) B3LYP/SVP
 --------------------------

 --
 TD
 --
 Symbolic Z-matrix:
 Charge =  0 Multiplicity = 1

                         Standard orientation:
 ---------------------------------------------------------------------
 Center     Atomic      Atomic             Coordinates (Angstroms)
 Number     Number       Type             X           Y           Z
 ---------------------------------------------------------------------
      1          8           0        5.373221    0.062669   -3.258873
      2          8           0       -2.791459   -3.105177    3.146560
      3          8           0       -3.335090   -0.880002    3.103435
      4          8           0       -1.778401    7.143242    1.437129
      5          8           0       -0.375619    6.852800   -0.301460
      6          8           0       -1.809423   -4.029301   -0.188473
      7          7           0        2.365747    0.871334    0.638070
      8          7           0        4.441781   -0.700733   -1.273900
      9          7           0       -1.883674    0.708849   -0.337707
     10          7           0       -2.638776   -1.857597   -0.627265
     11          6           0        4.858118   -1.345538   -0.072169
     12          6           0        4.412839   -0.475456    1.166023
     13          6           0        2.986396   -0.075824    1.280759
     14          6           0        1.995940   -0.682329    2.130319
     15          6           0        0.763503   -0.069516    1.804282
     16          6           0        1.040389    1.002980    0.847608
     17          6           0        6.286489   -1.380215   -0.170458
     18          6           0       -0.609118   -0.305426    2.434240
     19          6           0        6.777186   -0.867865   -1.378011
     20          6           0        0.260860    1.957953    0.197598
     21          6           0       -1.135253    1.922625   -0.296912
     22          6           0        5.445224   -0.519846   -2.204059
     23          6           0       -1.964393    2.964836   -0.826226
     24          6           0        2.262354   -1.705085    3.219247
     25          6           0        7.212169   -1.948561    0.890092
     26          6           0       -3.138641    2.392090   -1.212687
     27          6           0       -1.033956   -1.765151    2.501496
     28          6           0       -3.064287    0.906131   -0.937089
     29          6           0       -1.542563    4.379190   -0.932353
     30          6           0        8.053477   -0.709578   -2.047991
     31          6           0       -1.741399    5.057796    0.460796
     32          6           0       -4.292492    3.087241   -1.850866
     33          6           0       -4.070392   -0.092126   -1.283110
     34          6           0       -2.536326   -1.808412    2.917822
     35          6           0       -3.750823   -1.388482   -1.169315
     36          6           0        9.297616   -0.672159   -1.532008
     37          6           0       -1.254991    6.480146    0.469245
     38          6           0       -4.759978   -2.522675   -1.477440
     39          6           0       -4.120169   -3.651911   -1.097463
     40          6           0       -2.696993   -3.171633   -0.611169
     41          6           0       -6.136771   -2.257900   -1.971817
     42          6           0       -4.504016   -5.080651   -1.117671
     43          6           0       -6.843747   -3.177482   -2.538044
     44          1           0        4.354221   -2.373134    0.061229
     45          1           0        5.008692    0.578922    1.161554
     46          1           0        4.853640   -0.997628    1.983382
     47          1           0        2.841911    1.404704   -0.025293
     48          1           0        3.478830   -0.381214   -1.565279
     49          1           0       -0.465302   -0.046656    3.460017
     50          1           0       -1.477220    0.178202    1.909830
     51          1           0        0.666005    3.085525   -0.071674
     52          1           0        3.372032   -1.441611    3.571015
     53          1           0        1.560191   -1.328892    4.091791
     54          1           0        1.992154   -2.649116    2.897796
     55          1           0        6.589556   -2.671758    1.539078
     56          1           0        7.532932   -1.249913    1.617333
     57          1           0        8.046527   -2.496240    0.657666
     58          1           0       -0.851345   -2.460709    1.557198
     59          1           0       -0.612929   -2.158568    3.455052
     60          1           0       -1.782878   -0.400567   -0.185144
     61          1           0       -1.933362    4.965149   -1.708578
     62          1           0       -0.378294    4.327822   -1.225314
     63          1           0        8.183861   -0.662912   -3.107728
     64          1           0       -1.373816    4.449486    1.213310
     65          1           0       -2.886600    5.271522    0.936323
     66          1           0       -4.273859    4.072594   -2.014592
     67          1           0       -5.345900    3.079645   -1.265880
     68          1           0       -4.451146    2.344802   -2.677842
     69          1           0       -5.051076    0.456040   -1.525364
     70          1           0        9.278857   -0.514646   -0.394832
     71          1           0       10.210092   -0.425105   -2.010255
     72          1           0       -3.742803   -3.233653    3.480816
     73          1           0       -6.674414   -1.345659   -1.985646
     74          1           0       -4.533146   -5.604623   -2.122870
     75          1           0       -3.827296   -5.770939   -0.516613
     76          1           0       -5.584780   -5.339471   -0.721570
     77          1           0       -1.453413    8.180930    1.345689
     78          1           0       -7.714747   -2.925176   -2.962830
     79          1           0       -6.554092   -4.286968   -2.708697
 ---------------------------------------------------------------------

 SCF Done:  E(RB3LYP) =  -1947.86271935     A.U. after   23 cycles

 Excitation energies and oscillator strengths:

 Excited State   1:      Singlet-A      2.2477 eV  551.59 nm  f=0.5220  <S**2>=0.000
     154 ->156        -0.17464
     155 ->156         0.68678
     155 <-156        -0.11589
 This state for optimization and/or second-order correction.
 Total Energy, E(TD-HF/TD-KS) =  -1947.78011610
 Copying the excited state density for this state as the 1-particle RhoCI density.

 The electronic state is 1-A.
 Alpha  occ. eigenvalues --  -19.21209 -19.17340 -19.12545 -19.11626 -19.10604
 Alpha  occ. eigenvalues --  -19.07964 -14.39973 -14.36849 -14.36262 -14.29233
 Alpha  occ. eigenvalues --  -10.32385 -10.30922 -10.29008 -10.26334 -10.25547
 Alpha  occ. eigenvalues --  -10.25344 -10.24848 -10.24617 -10.24331 -10.23893
 Alpha  occ. eigenvalues --  -10.23623 -10.22817 -10.22556 -10.21827 -10.21781
 Alpha  occ. eigenvalues --  -10.21706 -10.21197 -10.20751 -10.20691 -10.20559
 Alpha  occ. eigenvalues --  -10.20502 -10.20473 -10.20303 -10.19876 -10.19857
 Alpha  occ. eigenvalues --  -10.19527 -10.19219 -10.19194 -10.18912 -10.18798
 Alpha  occ. eigenvalues --  -10.18783 -10.18720 -10.17426  -1.11838  -1.07411
 Alpha  occ. eigenvalues --   -1.03189  -1.02505  -1.00738  -0.98223  -0.97924
 Alpha  occ. eigenvalues --   -0.96759  -0.95370  -0.91097  -0.83151  -0.82366
 Alpha  occ. eigenvalues --   -0.81916  -0.81672  -0.80147  -0.79305  -0.78056
 Alpha  occ. eigenvalues --   -0.77649  -0.76705  -0.75734  -0.74780  -0.73316
 Alpha  occ. eigenvalues --   -0.71626  -0.71466  -0.70236  -0.68648  -0.68140
 Alpha  occ. eigenvalues --   -0.67188  -0.66869  -0.63841  -0.61327  -0.60725
 Alpha  occ. eigenvalues --   -0.59984  -0.59306  -0.58381  -0.57666  -0.57426
 Alpha  occ. eigenvalues --   -0.56550  -0.55582  -0.55102  -0.54521  -0.53567
 Alpha  occ. eigenvalues --   -0.52283  -0.51772  -0.51575  -0.51411  -0.49748
 Alpha  occ. eigenvalues --   -0.49392  -0.48804  -0.48441  -0.48321  -0.47745
 Alpha  occ. eigenvalues --   -0.47710  -0.47016  -0.46827  -0.46497  -0.45576
 Alpha  occ. eigenvalues --   -0.45096  -0.44952  -0.44499  -0.44392  -0.43815
 Alpha  occ. eigenvalues --   -0.43587  -0.43538  -0.43042  -0.42845  -0.42690
 Alpha  occ. eigenvalues --   -0.42342  -0.42190  -0.41875  -0.41615  -0.41021
 Alpha  occ. eigenvalues --   -0.40586  -0.40275  -0.40222  -0.39897  -0.39136
 Alpha  occ. eigenvalues --   -0.38846  -0.38725  -0.38553  -0.38242  -0.37660
 Alpha  occ. eigenvalues --   -0.37650  -0.37496  -0.37414  -0.37046  -0.36630
 Alpha  occ. eigenvalues --   -0.35998  -0.35395  -0.34687  -0.34329  -0.34091
 Alpha  occ. eigenvalues --   -0.33250  -0.33007  -0.32888  -0.32213  -0.32111
 Alpha  occ. eigenvalues --   -0.30924  -0.30669  -0.28514  -0.28227  -0.26995
 Alpha  occ. eigenvalues --   -0.26858  -0.26791  -0.25801  -0.25664  -0.25227
 Alpha  occ. eigenvalues --   -0.24202  -0.23365  -0.22553  -0.22194  -0.19188
 Alpha virt. eigenvalues --   -0.10618  -0.06582  -0.05238  -0.00797   0.00086
 Alpha virt. eigenvalues --    0.00526   0.00875   0.01373   0.01487   0.03052
 Alpha virt. eigenvalues --    0.03378   0.03646   0.04029   0.04626   0.04797

 Mulliken charges:
               1
     1  O   -0.211150
     2  O   -0.194594
     3  O   -0.257462
     4  O   -0.176377
     5  O   -0.256467
     6  O   -0.312929
     7  N    0.075331
     8  N   -0.223333
     9  N   -0.126209
    10  N   -0.219365
    11  C    0.151058
    12  C    0.111970
    13  C   -0.103554
    14  C   -0.174289
    15  C   -0.076543
    16  C    0.084110
    17  C   -0.179408
    18  C    0.101859
    19  C   -0.011987
    20  C   -0.112399
    21  C    0.025263
    22  C    0.140670
    23  C   -0.040245
    24  C    0.089291
    25  C    0.121760
    26  C   -0.123527
    27  C   -0.101881
    28  C    0.009277
    29  C    0.088031
    30  C   -0.029503
    31  C   -0.040141
    32  C    0.092129
    33  C   -0.147253
    34  C    0.158021
    35  C    0.156840
    36  C   -0.044700
    37  C    0.138334
    38  C    0.076697
    39  C   -0.163482
    40  C    0.151428
    41  C    0.004356
    42  C    0.002274
    43  C   -0.010261
    44  H    0.046182
    45  H    0.019336
    46  H   -0.017013
    47  H    0.085089
    48  H    0.141939
    49  H   -0.005080
    50  H    0.045142
    51  H    0.036223
    52  H    0.036677
    53  H    0.032946
    54  H    0.038855
    55  H    0.006549
    56  H    0.019124
    57  H    0.011906
    58  H    0.111214
    59  H    0.022534
    60  H    0.205059
    61  H   -0.004210
    62  H    0.046313
    63  H    0.007330
    64  H    0.024665
    65  H    0.050471
    66  H   -0.023540
    67  H    0.030409
    68  H    0.042765
    69  H    0.011769
    70  H    0.015053
    71  H    0.024232
    72  H    0.197304
    73  H   -0.031125
    74  H    0.033805
    75  H    0.033607
    76  H    0.024270
    77  H    0.237841
    78  H   -0.024548
    79  H    0.025272
 Sum of Mulliken charges =   0.00000

 Dipole moment (field-independent basis, Debye):
    X=              1.2635    Y=              4.4831    Z=              4.1316  Tot=              6.2261
 Quadrupole moment (field-independent basis, Debye-Ang):
   XX=           -219.2549   YY=           -239.9688   ZZ=           -260.6331
   XY=            -18.1568   XZ=             28.9187   YZ=              1.8483

 Normal termination of Gaussian 09 at Tue Jul  9 09:48:12 2019.
