 Gaussian 09, Revision D.01,
 Gaussian 09:  ES64L-G09RevD.01 24-Apr-2013

 --------------------------
 # td=(NStates=1) B3LYP/SVP
 --------------------------

 --
 TD
 --
 Symbolic Z-matrix:
 Charge =  0 Multiplicity = 1

                         Standard orientation:
 ---------------------------------------------------------------------
 Center     Atomic      Atomic             Coordinates (Angstroms)
 Number     Number       Type             X           Y           Z
 ---------------------------------------------------------------------
      1          8           0        5.231833   -0.088632   -3.382999
      2          8           0       -2.984953   -3.219641    3.300353
      3          8           0       -3.230109   -0.965901    3.198804
      4          8           0       -1.708263    7.105645    1.715660
      5          8           0       -0.647301    7.134253   -0.210618
      6          8           0       -2.048807   -4.038913   -0.119136
      7          7           0        2.430289    0.705360    0.662223
      8          7           0        4.379637   -0.549101   -1.245338
      9          7           0       -1.772181    0.679719   -0.493796
     10          7           0       -2.546781   -1.853786   -0.675325
     11          6           0        4.871121   -1.187275   -0.052625
     12          6           0        4.495857   -0.537368    1.304508
     13          6           0        2.999188   -0.309203    1.369153
     14          6           0        2.030360   -0.930698    2.076999
     15          6           0        0.740616   -0.214989    1.760454
     16          6           0        1.034201    0.810559    0.854226
     17          6           0        6.299405   -1.435013   -0.321309
     18          6           0       -0.517826   -0.425651    2.551614
     19          6           0        6.635842   -0.887570   -1.453171
     20          6           0        0.265426    1.822173    0.237099
     21          6           0       -1.007562    1.883135   -0.192572
     22          6           0        5.406839   -0.463486   -2.196855
     23          6           0       -1.821359    2.994499   -0.832945
     24          6           0        2.273663   -1.990260    3.188494
     25          6           0        7.202653   -1.878645    0.804933
     26          6           0       -2.969727    2.480311   -1.348282
     27          6           0       -1.205162   -1.847960    2.524809
     28          6           0       -2.981693    1.034620   -0.958751
     29          6           0       -1.391950    4.377713   -0.724455
     30          6           0        7.924323   -0.568109   -2.150853
     31          6           0       -1.686607    5.058377    0.585753
     32          6           0       -4.129458    3.178186   -1.991288
     33          6           0       -3.931834    0.034840   -1.300624
     34          6           0       -2.539282   -1.961325    3.062094
     35          6           0       -3.678938   -1.291250   -1.147193
     36          6           0        9.134704   -0.516225   -1.579091
     37          6           0       -1.333351    6.487185    0.568764
     38          6           0       -4.787806   -2.315651   -1.443457
     39          6           0       -4.219275   -3.611543   -1.133315
     40          6           0       -2.791178   -3.242911   -0.610478
     41          6           0       -6.007723   -2.012344   -2.206925
     42          6           0       -4.601556   -5.003954   -1.358568
     43          6           0       -6.873378   -2.927635   -2.786434
     44          1           0        4.358247   -2.142892   -0.137163
     45          1           0        5.105990    0.331343    1.768608
     46          1           0        4.690718   -1.148456    2.153658
     47          1           0        3.124800    1.051895    0.034430
     48          1           0        3.413113   -0.569496   -1.673392
     49          1           0       -0.334481   -0.342764    3.601904
     50          1           0       -1.283794    0.400887    2.218288
     51          1           0        0.766780    2.856701    0.081972
     52          1           0        3.318298   -2.007596    3.486835
     53          1           0        1.916713   -1.812792    4.095514
     54          1           0        1.779003   -2.856034    2.993224
     55          1           0        6.636182   -2.522266    1.298935
     56          1           0        7.049101   -0.725297    1.440305
     57          1           0        8.295241   -2.159372    0.461179
     58          1           0       -1.234565   -2.306473    1.679988
     59          1           0       -0.458512   -2.394922    3.232160
     60          1           0       -1.476919   -0.279859    0.050033
     61          1           0       -1.913737    4.874659   -1.537457
     62          1           0       -0.286434    4.592856   -0.959796
     63          1           0        8.037096   -0.125743   -3.323297
     64          1           0       -1.050911    4.441836    1.434028
     65          1           0       -2.835806    4.719357    1.018806
     66          1           0       -3.902009    4.292928   -1.878905
     67          1           0       -5.071216    2.886176   -1.461967
     68          1           0       -4.110496    2.795103   -2.983232
     69          1           0       -4.894624    0.419499   -1.656406
     70          1           0        9.372766   -0.670638   -0.441620
     71          1           0       10.060767   -0.586569   -2.180424
     72          1           0       -3.958579   -3.222545    3.480310
     73          1           0       -6.334442   -0.919951   -2.278681
     74          1           0       -4.333369   -5.240333   -2.410886
     75          1           0       -4.217242   -5.550885   -0.496658
     76          1           0       -5.849683   -5.089319   -1.268802
     77          1           0       -1.179516    7.940267    1.627097
     78          1           0       -7.866364   -2.601806   -3.054408
     79          1           0       -6.699270   -4.232522   -2.763295
 ---------------------------------------------------------------------

 SCF Done:  E(RB3LYP) =  -1947.80810571     A.U. after   16 cycles

 Excitation energies and oscillator strengths:

 Excited State   1:      Singlet-A      2.2820 eV  543.31 nm  f=0.2770  <S**2>=0.000
     154 ->156         0.33002
     155 ->156         0.61937
 This state for optimization and/or second-order correction.
 Total Energy, E(TD-HF/TD-KS) =  -1947.72424313
 Copying the excited state density for this state as the 1-particle RhoCI density.

 The electronic state is 1-A.
 Alpha  occ. eigenvalues --  -19.18522 -19.17376 -19.14044 -19.10939 -19.10112
 Alpha  occ. eigenvalues --  -19.09917 -14.37522 -14.37282 -14.36038 -14.28750
 Alpha  occ. eigenvalues --  -10.33378 -10.30657 -10.28639 -10.26022 -10.25762
 Alpha  occ. eigenvalues --  -10.25448 -10.24619 -10.24553 -10.24130 -10.23209
 Alpha  occ. eigenvalues --  -10.23040 -10.22807 -10.22647 -10.22558 -10.22200
 Alpha  occ. eigenvalues --  -10.22122 -10.22014 -10.21870 -10.21503 -10.21430
 Alpha  occ. eigenvalues --  -10.21064 -10.20914 -10.20551 -10.20480 -10.20378
 Alpha  occ. eigenvalues --  -10.20316 -10.20192 -10.20178 -10.20124 -10.19433
 Alpha  occ. eigenvalues --  -10.18471 -10.18467 -10.18282  -1.10862  -1.07872
 Alpha  occ. eigenvalues --   -1.02114  -1.01048  -1.00447  -0.98937  -0.98487
 Alpha  occ. eigenvalues --   -0.97139  -0.94555  -0.90230  -0.84121  -0.83195
 Alpha  occ. eigenvalues --   -0.82564  -0.80731  -0.80128  -0.79021  -0.78639
 Alpha  occ. eigenvalues --   -0.77450  -0.77062  -0.75791  -0.74420  -0.73310
 Alpha  occ. eigenvalues --   -0.72571  -0.72268  -0.70143  -0.68794  -0.68556
 Alpha  occ. eigenvalues --   -0.68114  -0.66898  -0.63979  -0.60359  -0.60066
 Alpha  occ. eigenvalues --   -0.59298  -0.59173  -0.58437  -0.57822  -0.56823
 Alpha  occ. eigenvalues --   -0.55723  -0.55240  -0.54839  -0.54006  -0.52679
 Alpha  occ. eigenvalues --   -0.52146  -0.51510  -0.50762  -0.50643  -0.49699
 Alpha  occ. eigenvalues --   -0.49412  -0.49345  -0.49057  -0.48408  -0.47754
 Alpha  occ. eigenvalues --   -0.47329  -0.46943  -0.46387  -0.46334  -0.45877
 Alpha  occ. eigenvalues --   -0.45676  -0.44877  -0.44445  -0.44289  -0.43974
 Alpha  occ. eigenvalues --   -0.43390  -0.43238  -0.42903  -0.42547  -0.42508
 Alpha  occ. eigenvalues --   -0.42078  -0.41805  -0.41706  -0.41444  -0.41272
 Alpha  occ. eigenvalues --   -0.40895  -0.40888  -0.40625  -0.40460  -0.40000
 Alpha  occ. eigenvalues --   -0.39790  -0.39628  -0.39300  -0.38786  -0.38563
 Alpha  occ. eigenvalues --   -0.38196  -0.37839  -0.37761  -0.37326  -0.36897
 Alpha  occ. eigenvalues --   -0.36607  -0.36168  -0.36021  -0.34660  -0.34500
 Alpha  occ. eigenvalues --   -0.34032  -0.32915  -0.32767  -0.32431  -0.31469
 Alpha  occ. eigenvalues --   -0.31115  -0.30891  -0.29748  -0.28665  -0.27113
 Alpha  occ. eigenvalues --   -0.26756  -0.26524  -0.26410  -0.25573  -0.24494
 Alpha  occ. eigenvalues --   -0.24210  -0.23961  -0.23295  -0.21452  -0.19898
 Alpha virt. eigenvalues --   -0.10442  -0.06285  -0.05677  -0.03081  -0.01047
 Alpha virt. eigenvalues --    0.00254   0.01045   0.01489   0.01651   0.02621
 Alpha virt. eigenvalues --    0.03637   0.04046   0.04415   0.04631   0.05212

 Mulliken charges:
               1
     1  O   -0.257356
     2  O   -0.198252
     3  O   -0.246054
     4  O   -0.189065
     5  O   -0.242324
     6  O   -0.182867
     7  N   -0.063927
     8  N   -0.252652
     9  N   -0.162746
    10  N   -0.284110
    11  C    0.194298
    12  C    0.188171
    13  C   -0.179451
    14  C   -0.116066
    15  C   -0.090155
    16  C    0.121936
    17  C   -0.222953
    18  C    0.029919
    19  C   -0.016390
    20  C   -0.090431
    21  C    0.067863
    22  C    0.153180
    23  C   -0.052936
    24  C    0.201793
    25  C    0.075304
    26  C   -0.158224
    27  C    0.077433
    28  C    0.109654
    29  C    0.057216
    30  C   -0.028050
    31  C   -0.116104
    32  C    0.118847
    33  C   -0.137902
    34  C    0.125867
    35  C    0.139690
    36  C   -0.104095
    37  C    0.184793
    38  C    0.024991
    39  C   -0.207446
    40  C    0.137230
    41  C   -0.039163
    42  C    0.038228
    43  C   -0.089990
    44  H    0.014633
    45  H    0.031395
    46  H   -0.046225
    47  H    0.099515
    48  H    0.157557
    49  H    0.001131
    50  H    0.034934
    51  H    0.015353
    52  H   -0.010046
    53  H   -0.040854
    54  H    0.007118
    55  H   -0.005616
    56  H    0.064596
    57  H    0.079747
    58  H   -0.012915
    59  H    0.023959
    60  H    0.228643
    61  H    0.008115
    62  H    0.039646
    63  H    0.073265
    64  H    0.081855
    65  H    0.078145
    66  H    0.034102
    67  H    0.048383
    68  H    0.034577
    69  H   -0.037528
    70  H    0.029059
    71  H    0.034970
    72  H    0.195105
    73  H    0.015262
    74  H    0.061466
    75  H    0.042928
    76  H    0.037512
    77  H    0.183684
    78  H    0.023630
    79  H    0.055196
 Sum of Mulliken charges =   0.00000

 Dipole moment (field-independent basis, Debye):
    X=              1.1915    Y=              1.7618    Z=              4.1885  Tot=              4.6976
 Quadrupole moment (field-independent basis, Debye-Ang):
   XX=           -218.0349   YY=           -255.3262   ZZ=           -264.4324
   XY=            -12.8029   XZ=             31.9022   YZ=             -0.6631

 Normal termination of Gaussian 09 at Mon Jul  8 08:38:00 2019.
