 Gaussian 09, Revision D.01,
 Gaussian 09:  ES64L-G09RevD.01 24-Apr-2013

 --------------------------
 # td=(NStates=1) B3LYP/SVP
 --------------------------

 --
 TD
 --
 Symbolic Z-matrix:
 Charge =  0 Multiplicity = 1

                         Standard orientation:
 ---------------------------------------------------------------------
 Center     Atomic      Atomic             Coordinates (Angstroms)
 Number     Number       Type             X           Y           Z
 ---------------------------------------------------------------------
      1          8           0        5.363830   -0.195517   -3.266325
      2          8           0       -3.018791   -2.994293    3.116675
      3          8           0       -3.095763   -0.785379    3.370594
      4          8           0       -1.196431    7.167155    1.534113
      5          8           0       -0.382259    6.979765   -0.502932
      6          8           0       -2.109076   -3.962323   -0.110698
      7          7           0        2.407796    0.800196    0.508163
      8          7           0        4.291536   -0.838496   -1.283486
      9          7           0       -1.828211    0.677316   -0.431748
     10          7           0       -2.837605   -1.782341   -0.437075
     11          6           0        4.751101   -1.334595    0.068395
     12          6           0        4.442014   -0.294364    1.131645
     13          6           0        3.014793   -0.109538    1.259487
     14          6           0        2.004353   -0.780637    2.034944
     15          6           0        0.802690   -0.098412    1.775313
     16          6           0        1.073899    0.867474    0.772017
     17          6           0        6.288350   -1.518540   -0.220109
     18          6           0       -0.494057   -0.359348    2.381951
     19          6           0        6.641143   -1.068139   -1.372948
     20          6           0        0.290406    1.872083    0.178991
     21          6           0       -1.032530    1.850056   -0.330625
     22          6           0        5.399875   -0.600584   -2.123549
     23          6           0       -1.793123    3.002940   -0.858787
     24          6           0        2.325816   -1.853416    3.092977
     25          6           0        7.271640   -1.989563    0.824035
     26          6           0       -3.060266    2.490379   -1.226237
     27          6           0       -1.031608   -1.861151    2.488334
     28          6           0       -3.045922    1.029159   -0.947154
     29          6           0       -1.361141    4.426580   -0.860249
     30          6           0        7.931752   -0.800284   -2.049408
     31          6           0       -1.574415    5.115126    0.508450
     32          6           0       -4.208385    3.159819   -1.765276
     33          6           0       -4.131609    0.092014   -1.170865
     34          6           0       -2.493937   -1.787100    2.958239
     35          6           0       -3.899732   -1.263176   -0.969472
     36          6           0        9.170211   -0.894844   -1.615534
     37          6           0       -0.916137    6.522416    0.474801
     38          6           0       -4.875230   -2.317416   -1.422683
     39          6           0       -4.306367   -3.510230   -1.064857
     40          6           0       -2.922151   -3.227921   -0.501900
     41          6           0       -6.210186   -2.117807   -2.024176
     42          6           0       -4.672727   -4.958304   -1.281392
     43          6           0       -7.086406   -3.045073   -2.568784
     44          1           0        4.291314   -2.261951    0.323604
     45          1           0        4.781634    0.598873    0.830571
     46          1           0        4.911771   -0.556817    2.154741
     47          1           0        2.825153    1.513444   -0.029720
     48          1           0        3.363340   -0.534921   -1.425816
     49          1           0       -0.439584    0.040878    3.266586
     50          1           0       -1.500600    0.214923    1.955614
     51          1           0        1.037517    2.649627   -0.067424
     52          1           0        3.427387   -1.971436    3.341088
     53          1           0        1.942262   -1.997448    4.194725
     54          1           0        1.949731   -2.863180    2.838056
     55          1           0        6.756526   -2.618619    1.686754
     56          1           0        7.692109   -1.132734    1.496732
     57          1           0        7.837020   -2.692355    0.173959
     58          1           0       -1.222504   -2.244959    1.492020
     59          1           0       -0.274099   -2.419330    3.218847
     60          1           0       -1.675912   -0.353657   -0.152249
     61          1           0       -2.023011    4.751137   -1.615302
     62          1           0       -0.313909    4.295426   -1.173726
     63          1           0        7.752438   -0.837581   -3.140556
     64          1           0       -1.157164    4.505733    1.430006
     65          1           0       -2.657535    5.288838    0.828865
     66          1           0       -4.163002    4.287221   -1.775402
     67          1           0       -5.204403    3.115481   -1.045536
     68          1           0       -4.319776    2.481723   -2.591785
     69          1           0       -5.072911    0.413016   -1.532741
     70          1           0        9.260763   -1.020849   -0.564069
     71          1           0       10.007951   -1.008206   -2.355324
     72          1           0       -3.734836   -2.919399    3.697468
     73          1           0       -6.453849   -1.063726   -2.130516
     74          1           0       -4.673567   -5.205354   -2.258191
     75          1           0       -3.999260   -5.819699   -0.853346
     76          1           0       -5.833993   -5.069092   -0.917239
     77          1           0       -0.849405    8.059863    1.426062
     78          1           0       -8.045827   -2.931042   -3.093229
     79          1           0       -6.701130   -4.191458   -2.709377
 ---------------------------------------------------------------------

 SCF Done:  E(RB3LYP) =  -1947.87807509     A.U. after   16 cycles

 Excitation energies and oscillator strengths:

 Excited State   1:      Singlet-A      2.1293 eV  582.26 nm  f=0.5321  <S**2>=0.000
     155 ->156         0.69844
     155 <-156        -0.11215
 This state for optimization and/or second-order correction.
 Total Energy, E(TD-HF/TD-KS) =  -1947.79982313
 Copying the excited state density for this state as the 1-particle RhoCI density.

 The electronic state is 1-A.
 Alpha  occ. eigenvalues --  -19.20304 -19.16901 -19.12657 -19.11080 -19.10987
 Alpha  occ. eigenvalues --  -19.10275 -14.39320 -14.36622 -14.35051 -14.28191
 Alpha  occ. eigenvalues --  -10.32328 -10.30968 -10.28695 -10.26294 -10.25175
 Alpha  occ. eigenvalues --  -10.24789 -10.24748 -10.23603 -10.22547 -10.22406
 Alpha  occ. eigenvalues --  -10.22312 -10.22304 -10.22165 -10.21571 -10.21495
 Alpha  occ. eigenvalues --  -10.21231 -10.21015 -10.21000 -10.20889 -10.20807
 Alpha  occ. eigenvalues --  -10.20546 -10.20538 -10.20384 -10.20074 -10.19892
 Alpha  occ. eigenvalues --  -10.19689 -10.19608 -10.19461 -10.19326 -10.19289
 Alpha  occ. eigenvalues --  -10.19199 -10.18323 -10.18117  -1.13982  -1.09622
 Alpha  occ. eigenvalues --   -1.04473  -1.02408  -1.02032  -1.01510  -0.98241
 Alpha  occ. eigenvalues --   -0.96569  -0.92976  -0.91796  -0.82999  -0.82736
 Alpha  occ. eigenvalues --   -0.82534  -0.81860  -0.79820  -0.79205  -0.77667
 Alpha  occ. eigenvalues --   -0.76703  -0.76088  -0.75745  -0.73865  -0.72535
 Alpha  occ. eigenvalues --   -0.71588  -0.71343  -0.69742  -0.68757  -0.68458
 Alpha  occ. eigenvalues --   -0.68252  -0.66054  -0.63395  -0.62022  -0.61021
 Alpha  occ. eigenvalues --   -0.60845  -0.59882  -0.59076  -0.58587  -0.57995
 Alpha  occ. eigenvalues --   -0.56036  -0.55354  -0.54966  -0.53532  -0.52468
 Alpha  occ. eigenvalues --   -0.52052  -0.51675  -0.50689  -0.50369  -0.50092
 Alpha  occ. eigenvalues --   -0.49429  -0.48914  -0.48790  -0.48296  -0.47795
 Alpha  occ. eigenvalues --   -0.47617  -0.47219  -0.46747  -0.46511  -0.46411
 Alpha  occ. eigenvalues --   -0.45327  -0.45232  -0.44480  -0.44372  -0.43774
 Alpha  occ. eigenvalues --   -0.43501  -0.43119  -0.42832  -0.42709  -0.42476
 Alpha  occ. eigenvalues --   -0.42320  -0.42071  -0.41938  -0.41704  -0.41453
 Alpha  occ. eigenvalues --   -0.40923  -0.40719  -0.40317  -0.40080  -0.39847
 Alpha  occ. eigenvalues --   -0.39467  -0.39379  -0.38827  -0.38463  -0.38197
 Alpha  occ. eigenvalues --   -0.38015  -0.37986  -0.37417  -0.37175  -0.36850
 Alpha  occ. eigenvalues --   -0.35909  -0.35608  -0.35247  -0.34810  -0.34537
 Alpha  occ. eigenvalues --   -0.33709  -0.33507  -0.33278  -0.31767  -0.31692
 Alpha  occ. eigenvalues --   -0.30483  -0.30397  -0.28730  -0.28548  -0.27912
 Alpha  occ. eigenvalues --   -0.26573  -0.26432  -0.25917  -0.25343  -0.25186
 Alpha  occ. eigenvalues --   -0.24700  -0.23571  -0.23510  -0.21933  -0.18474
 Alpha virt. eigenvalues --   -0.10176  -0.06223  -0.04986  -0.00623   0.00339
 Alpha virt. eigenvalues --    0.00481   0.00867   0.01566   0.02740   0.03303
 Alpha virt. eigenvalues --    0.03340   0.04030   0.04564   0.05176   0.05579

 Mulliken charges:
               1
     1  O   -0.210550
     2  O   -0.127995
     3  O   -0.270309
     4  O   -0.093963
     5  O   -0.230168
     6  O   -0.133860
     7  N   -0.000852
     8  N   -0.240586
     9  N   -0.116739
    10  N   -0.318067
    11  C    0.126771
    12  C    0.278103
    13  C   -0.150710
    14  C   -0.047062
    15  C   -0.016021
    16  C   -0.013636
    17  C   -0.195649
    18  C    0.029131
    19  C   -0.039048
    20  C   -0.114230
    21  C    0.148335
    22  C    0.171389
    23  C   -0.143933
    24  C   -0.011792
    25  C    0.006521
    26  C   -0.118365
    27  C   -0.014081
    28  C    0.099168
    29  C    0.206974
    30  C   -0.002912
    31  C   -0.077066
    32  C    0.030193
    33  C   -0.121375
    34  C    0.128793
    35  C    0.127327
    36  C   -0.011805
    37  C    0.103253
    38  C    0.018303
    39  C   -0.200468
    40  C    0.148780
    41  C    0.017150
    42  C    0.050864
    43  C   -0.085859
    44  H    0.009080
    45  H   -0.069217
    46  H    0.022717
    47  H    0.102378
    48  H    0.110264
    49  H   -0.041881
    50  H    0.050987
    51  H   -0.016081
    52  H    0.004407
    53  H    0.027367
    54  H    0.029765
    55  H    0.015468
    56  H    0.063904
    57  H    0.064986
    58  H    0.060156
    59  H    0.058215
    60  H    0.183602
    61  H    0.000900
    62  H    0.022748
    63  H    0.018630
    64  H    0.058783
    65  H    0.048338
    66  H    0.028766
    67  H    0.041861
    68  H    0.048200
    69  H   -0.048148
    70  H    0.003538
    71  H    0.042883
    72  H    0.151998
    73  H   -0.017035
    74  H    0.008703
    75  H    0.043092
    76  H    0.040670
    77  H    0.173248
    78  H    0.035513
    79  H    0.037241
 Sum of Mulliken charges =   0.00000

 Dipole moment (field-independent basis, Debye):
    X=              1.3000    Y=              2.8484    Z=              4.2981  Tot=              5.3176
 Quadrupole moment (field-independent basis, Debye-Ang):
   XX=           -226.9465   YY=           -237.6813   ZZ=           -261.9454
   XY=            -12.6893   XZ=             32.4809   YZ=              5.8885

 Normal termination of Gaussian 09 at Wed Jul 10 02:05:56 2019.
