 Gaussian 09, Revision D.01,
 Gaussian 09:  ES64L-G09RevD.01 24-Apr-2013

 --------------------------
 # td=(NStates=1) B3LYP/SVP
 --------------------------

 --
 TD
 --
 Symbolic Z-matrix:
 Charge =  0 Multiplicity = 1

                         Standard orientation:
 ---------------------------------------------------------------------
 Center     Atomic      Atomic             Coordinates (Angstroms)
 Number     Number       Type             X           Y           Z
 ---------------------------------------------------------------------
      1          8           0        5.536996    0.161937   -3.284627
      2          8           0       -2.735020   -3.180814    3.248256
      3          8           0       -3.118519   -0.957558    3.388095
      4          8           0       -2.133865    7.255292    1.494644
      5          8           0       -1.184100    7.221103   -0.561572
      6          8           0       -1.788745   -4.004232   -0.034890
      7          7           0        2.364203    0.843878    0.586479
      8          7           0        4.386221   -0.388989   -1.226716
      9          7           0       -1.834659    0.642123   -0.335757
     10          7           0       -2.559714   -1.981795   -0.748508
     11          6           0        4.890741   -1.074370   -0.024237
     12          6           0        4.396757   -0.331115    1.220480
     13          6           0        2.981644   -0.143221    1.362037
     14          6           0        1.994402   -0.627404    2.148571
     15          6           0        0.781341    0.000238    1.964380
     16          6           0        0.981571    0.889115    0.852073
     17          6           0        6.355723   -1.307712   -0.232782
     18          6           0       -0.456881   -0.301991    2.646089
     19          6           0        6.801786   -0.625924   -1.426817
     20          6           0        0.191705    1.894049    0.265532
     21          6           0       -1.081273    1.859219   -0.191429
     22          6           0        5.473065   -0.171779   -2.184714
     23          6           0       -1.987143    2.811933   -0.745468
     24          6           0        2.165156   -1.765168    3.226986
     25          6           0        7.188982   -1.914984    0.843640
     26          6           0       -3.136530    2.284116   -1.330288
     27          6           0       -0.943142   -1.777475    2.577910
     28          6           0       -2.957777    0.905379   -0.984704
     29          6           0       -1.662963    4.347149   -0.775436
     30          6           0        7.988062   -0.442977   -2.099229
     31          6           0       -1.907153    5.134650    0.570652
     32          6           0       -4.337390    3.000235   -1.895236
     33          6           0       -3.805286   -0.044868   -1.430977
     34          6           0       -2.352219   -1.884744    3.100660
     35          6           0       -3.773439   -1.499679   -1.262210
     36          6           0        9.273651   -0.597089   -1.649798
     37          6           0       -1.694563    6.617640    0.422203
     38          6           0       -4.670000   -2.683541   -1.556425
     39          6           0       -3.959002   -3.789022   -1.114134
     40          6           0       -2.721267   -3.332212   -0.475196
     41          6           0       -5.919542   -2.519584   -2.252004
     42          6           0       -4.322354   -5.292480   -1.186688
     43          6           0       -6.691534   -3.619483   -2.808555
     44          1           0        4.368063   -2.104824    0.012966
     45          1           0        5.081786    0.661958    1.499662
     46          1           0        4.970220   -1.107986    1.839701
     47          1           0        3.140711    1.522170    0.261889
     48          1           0        3.475871   -0.298394   -1.548609
     49          1           0       -0.071496   -0.087846    3.651688
     50          1           0       -1.419438    0.287520    2.285576
     51          1           0        0.652343    2.792531    0.194376
     52          1           0        3.238678   -1.822182    3.550656
     53          1           0        1.355854   -1.876861    4.027853
     54          1           0        2.377279   -2.669997    2.423862
     55          1           0        6.760555   -2.636759    1.479663
     56          1           0        7.581174   -0.974355    1.269709
     57          1           0        7.960100   -2.365064    0.328911
     58          1           0       -0.711062   -2.241267    1.606047
     59          1           0       -0.321404   -2.492649    3.148131
     60          1           0       -1.647994   -0.402563   -0.394972
     61          1           0       -2.265851    4.959490   -1.553145
     62          1           0       -0.628887    4.619955   -1.125099
     63          1           0        7.708122   -0.277097   -3.234667
     64          1           0       -1.287983    4.961208    1.599711
     65          1           0       -2.820123    5.016871    0.615750
     66          1           0       -3.980764    3.883502   -2.094836
     67          1           0       -5.239333    2.991098   -0.921100
     68          1           0       -4.836508    2.542543   -2.883650
     69          1           0       -4.684441    0.430762   -1.975960
     70          1           0        9.435433   -0.915233   -0.567206
     71          1           0       10.040568   -0.816107   -2.333444
     72          1           0       -3.582463   -3.194040    3.963656
     73          1           0       -6.340719   -1.506105   -2.239198
     74          1           0       -4.310574   -5.590934   -2.203950
     75          1           0       -3.983707   -6.018527   -0.444177
     76          1           0       -5.606255   -5.120781   -0.874861
     77          1           0       -1.942392    8.183275    1.297723
     78          1           0       -7.547938   -3.240766   -3.399684
     79          1           0       -6.534525   -4.846289   -2.640033
 ---------------------------------------------------------------------

 SCF Done:  E(RB3LYP) =  -1947.72930174     A.U. after   17 cycles

 Excitation energies and oscillator strengths:

 Excited State   1:      Singlet-A      1.9020 eV  651.85 nm  f=0.2950  <S**2>=0.000
     154 ->156         0.28407
     155 ->156         0.63737
     155 <-156        -0.10006
 This state for optimization and/or second-order correction.
 Total Energy, E(TD-HF/TD-KS) =  -1947.65940293
 Copying the excited state density for this state as the 1-particle RhoCI density.

 The electronic state is 1-A.
 Alpha  occ. eigenvalues --  -19.20076 -19.17349 -19.13081 -19.11789 -19.11450
 Alpha  occ. eigenvalues --  -19.09544 -14.38031 -14.35351 -14.34332 -14.28519
 Alpha  occ. eigenvalues --  -10.32983 -10.31022 -10.28883 -10.25584 -10.25404
 Alpha  occ. eigenvalues --  -10.24405 -10.24198 -10.23227 -10.23180 -10.23158
 Alpha  occ. eigenvalues --  -10.22889 -10.22738 -10.22240 -10.22089 -10.22079
 Alpha  occ. eigenvalues --  -10.22028 -10.21651 -10.21499 -10.21363 -10.21151
 Alpha  occ. eigenvalues --  -10.20848 -10.20843 -10.20831 -10.20456 -10.20324
 Alpha  occ. eigenvalues --  -10.20100 -10.20012 -10.19592 -10.19492 -10.19199
 Alpha  occ. eigenvalues --  -10.19179 -10.19041 -10.18966  -1.11635  -1.06436
 Alpha  occ. eigenvalues --   -1.06372  -1.00144  -0.99335  -0.98433  -0.97651
 Alpha  occ. eigenvalues --   -0.97316  -0.92633  -0.90131  -0.82794  -0.82387
 Alpha  occ. eigenvalues --   -0.82081  -0.81671  -0.79921  -0.79389  -0.78806
 Alpha  occ. eigenvalues --   -0.77433  -0.76010  -0.75735  -0.73883  -0.72169
 Alpha  occ. eigenvalues --   -0.71396  -0.70723  -0.68893  -0.68597  -0.68099
 Alpha  occ. eigenvalues --   -0.67191  -0.66116  -0.64073  -0.61336  -0.60988
 Alpha  occ. eigenvalues --   -0.60080  -0.58635  -0.57652  -0.56963  -0.56505
 Alpha  occ. eigenvalues --   -0.55552  -0.55165  -0.54377  -0.54213  -0.52458
 Alpha  occ. eigenvalues --   -0.51830  -0.51474  -0.50294  -0.50141  -0.49722
 Alpha  occ. eigenvalues --   -0.49455  -0.49217  -0.48352  -0.48076  -0.47854
 Alpha  occ. eigenvalues --   -0.47432  -0.46859  -0.46339  -0.45988  -0.45641
 Alpha  occ. eigenvalues --   -0.45293  -0.45169  -0.44551  -0.44166  -0.44002
 Alpha  occ. eigenvalues --   -0.43776  -0.43459  -0.42977  -0.42627  -0.42558
 Alpha  occ. eigenvalues --   -0.42262  -0.41958  -0.41463  -0.41148  -0.41082
 Alpha  occ. eigenvalues --   -0.40650  -0.40515  -0.40356  -0.39850  -0.39473
 Alpha  occ. eigenvalues --   -0.39414  -0.38744  -0.38639  -0.38446  -0.38194
 Alpha  occ. eigenvalues --   -0.38120  -0.37642  -0.37230  -0.37115  -0.35792
 Alpha  occ. eigenvalues --   -0.35633  -0.35446  -0.35020  -0.34958  -0.34005
 Alpha  occ. eigenvalues --   -0.33429  -0.33225  -0.32601  -0.32576  -0.31477
 Alpha  occ. eigenvalues --   -0.30978  -0.30464  -0.28440  -0.27755  -0.26933
 Alpha  occ. eigenvalues --   -0.26686  -0.26459  -0.26075  -0.25970  -0.24266
 Alpha  occ. eigenvalues --   -0.23866  -0.23373  -0.22527  -0.21339  -0.18898
 Alpha virt. eigenvalues --   -0.11076  -0.07134  -0.06658  -0.02201  -0.01010
 Alpha virt. eigenvalues --   -0.00556   0.00091   0.01572   0.02432   0.02724
 Alpha virt. eigenvalues --    0.03121   0.03981   0.04473   0.04523   0.04825

 Mulliken charges:
               1
     1  O   -0.137876
     2  O   -0.253710
     3  O   -0.256404
     4  O   -0.143110
     5  O   -0.283818
     6  O   -0.215944
     7  N   -0.148995
     8  N   -0.263948
     9  N   -0.089186
    10  N   -0.328446
    11  C    0.127348
    12  C    0.020604
    13  C    0.003500
    14  C   -0.123417
    15  C   -0.052291
    16  C    0.100443
    17  C   -0.205704
    18  C    0.050354
    19  C   -0.090098
    20  C   -0.077189
    21  C    0.145775
    22  C    0.162931
    23  C   -0.038155
    24  C    0.045793
    25  C    0.151005
    26  C   -0.114070
    27  C   -0.018411
    28  C    0.053456
    29  C   -0.025459
    30  C   -0.068553
    31  C    0.120354
    32  C    0.090783
    33  C   -0.109715
    34  C    0.178110
    35  C    0.093504
    36  C   -0.027229
    37  C    0.101767
    38  C    0.090501
    39  C   -0.189920
    40  C    0.163450
    41  C   -0.064027
    42  C    0.029129
    43  C   -0.083883
    44  H    0.029347
    45  H    0.033946
    46  H   -0.003884
    47  H    0.152368
    48  H    0.108974
    49  H    0.012284
    50  H    0.064424
    51  H   -0.057211
    52  H    0.003374
    53  H    0.065497
    54  H    0.030486
    55  H    0.017636
    56  H    0.052668
    57  H    0.012723
    58  H    0.068099
    59  H    0.013609
    60  H    0.160883
    61  H    0.033534
    62  H    0.029607
    63  H    0.047397
    64  H    0.077248
    65  H   -0.048596
    66  H   -0.034163
    67  H    0.070325
    68  H    0.060672
    69  H   -0.029739
    70  H    0.020230
    71  H    0.020319
    72  H    0.235119
    73  H    0.014692
    74  H    0.041223
    75  H    0.049763
    76  H    0.036489
    77  H    0.178361
    78  H    0.033045
    79  H    0.079999
 Sum of Mulliken charges =   0.00000

 Dipole moment (field-independent basis, Debye):
    X=             -0.1574    Y=              1.5933    Z=              3.8065  Tot=              4.1295
 Quadrupole moment (field-independent basis, Debye-Ang):
   XX=           -225.3416   YY=           -244.0576   ZZ=           -258.9155
   XY=            -13.9704   XZ=             29.9119   YZ=              4.3373

 Normal termination of Gaussian 09 at Wed Jul 10 20:27:24 2019.
