 Gaussian 09, Revision D.01,
 Gaussian 09:  ES64L-G09RevD.01 24-Apr-2013

 --------------------------
 # td=(NStates=1) B3LYP/SVP
 --------------------------

 --
 TD
 --
 Symbolic Z-matrix:
 Charge =  0 Multiplicity = 1

                         Standard orientation:
 ---------------------------------------------------------------------
 Center     Atomic      Atomic             Coordinates (Angstroms)
 Number     Number       Type             X           Y           Z
 ---------------------------------------------------------------------
      1          8           0        5.492787   -0.369981   -3.304985
      2          8           0       -2.648277   -3.074668    3.458938
      3          8           0       -3.069003   -0.795488    3.007987
      4          8           0       -1.931991    7.044193    1.528406
      5          8           0       -0.928044    7.036487   -0.536264
      6          8           0       -1.873484   -4.050779    0.026484
      7          7           0        2.300870    1.066362    0.530568
      8          7           0        4.480433   -0.500882   -1.281697
      9          7           0       -1.923722    0.542503   -0.348208
     10          7           0       -2.552830   -1.941135   -0.618657
     11          6           0        4.908241   -0.977136    0.033043
     12          6           0        4.500999   -0.026867    1.043522
     13          6           0        3.017329    0.190921    1.250030
     14          6           0        2.076446   -0.510700    2.093167
     15          6           0        0.756237    0.022164    1.733937
     16          6           0        0.985937    1.014134    0.711969
     17          6           0        6.386853   -1.111217   -0.133469
     18          6           0       -0.418960   -0.281256    2.608596
     19          6           0        6.760487   -0.709613   -1.374373
     20          6           0        0.033151    1.874263    0.059890
     21          6           0       -1.219591    1.790850   -0.345654
     22          6           0        5.524521   -0.473604   -2.124001
     23          6           0       -2.099403    2.785184   -0.984111
     24          6           0        2.371893   -1.528310    3.132359
     25          6           0        7.266033   -1.481645    1.104383
     26          6           0       -3.314033    2.246171   -1.229049
     27          6           0       -0.869032   -1.612286    2.672363
     28          6           0       -3.133984    0.834060   -0.923788
     29          6           0       -1.639194    4.230140   -1.004201
     30          6           0        8.024879   -0.714722   -2.094163
     31          6           0       -2.077067    4.939388    0.293444
     32          6           0       -4.596348    2.925455   -1.785909
     33          6           0       -4.018777   -0.197879   -1.343196
     34          6           0       -2.287328   -1.740221    3.071152
     35          6           0       -3.707215   -1.504517   -1.093558
     36          6           0        9.306562   -0.902545   -1.625351
     37          6           0       -1.547448    6.384659    0.363128
     38          6           0       -4.676267   -2.657116   -1.399619
     39          6           0       -4.036908   -3.801098   -0.993580
     40          6           0       -2.695176   -3.328926   -0.406163
     41          6           0       -5.989661   -2.473617   -2.075527
     42          6           0       -4.325517   -5.217217   -0.991900
     43          6           0       -6.720008   -3.424235   -2.631145
     44          1           0        4.605308   -2.099326    0.113658
     45          1           0        5.055471    0.891958    0.731747
     46          1           0        4.742898   -0.264119    2.043052
     47          1           0        2.800389    1.515246   -0.319124
     48          1           0        3.626859   -0.629840   -1.712683
     49          1           0       -0.351332    0.195873    3.506951
     50          1           0       -1.102685    0.371447    1.898504
     51          1           0        0.462530    2.767230   -0.286968
     52          1           0        3.331464   -1.209954    3.336382
     53          1           0        1.633638   -1.346034    3.863201
     54          1           0        2.191134   -2.626450    2.789343
     55          1           0        6.600744   -2.052423    1.981682
     56          1           0        7.904635   -0.722598    1.568958
     57          1           0        7.805434   -2.345959    0.602806
     58          1           0       -0.755171   -2.270956    1.639275
     59          1           0       -0.334667   -2.324204    3.385286
     60          1           0       -1.788927   -0.549864   -0.155355
     61          1           0       -2.095640    4.761219   -1.998385
     62          1           0       -0.483232    4.309492   -0.975372
     63          1           0        7.936689   -0.388414   -3.184922
     64          1           0       -1.551590    4.522305    1.149131
     65          1           0       -3.218125    5.052380    0.602063
     66          1           0       -4.217398    3.879335   -2.493132
     67          1           0       -5.268982    3.124430   -0.785548
     68          1           0       -5.123471    2.070906   -2.495126
     69          1           0       -4.960505    0.120058   -1.739757
     70          1           0        9.343025   -0.903863   -0.450945
     71          1           0       10.206952   -0.786184   -2.342508
     72          1           0       -3.474565   -3.105158    3.706803
     73          1           0       -6.450144   -1.462473   -1.966943
     74          1           0       -4.380716   -5.626926   -1.951532
     75          1           0       -3.481679   -5.633729   -0.354407
     76          1           0       -5.268192   -5.358503   -0.617132
     77          1           0       -1.636605    8.058578    1.551686
     78          1           0       -7.760894   -3.366444   -2.915064
     79          1           0       -6.297706   -4.429056   -2.817542
 ---------------------------------------------------------------------

 SCF Done:  E(RB3LYP) =  -1947.86592466     A.U. after   16 cycles

 Excitation energies and oscillator strengths:

 Excited State   1:      Singlet-A      2.3721 eV  522.68 nm  f=0.5020  <S**2>=0.000
     154 ->156         0.11406
     155 ->156         0.69526
 This state for optimization and/or second-order correction.
 Total Energy, E(TD-HF/TD-KS) =  -1947.77875278
 Copying the excited state density for this state as the 1-particle RhoCI density.

 The electronic state is 1-A.
 Alpha  occ. eigenvalues --  -19.18815 -19.15650 -19.13166 -19.12212 -19.10566
 Alpha  occ. eigenvalues --  -19.09604 -14.39460 -14.35402 -14.35300 -14.28974
 Alpha  occ. eigenvalues --  -10.33401 -10.31365 -10.27564 -10.26140 -10.25509
 Alpha  occ. eigenvalues --  -10.24706 -10.24328 -10.23925 -10.23442 -10.23415
 Alpha  occ. eigenvalues --  -10.23306 -10.23198 -10.23002 -10.22773 -10.22479
 Alpha  occ. eigenvalues --  -10.21767 -10.21685 -10.21302 -10.21180 -10.20999
 Alpha  occ. eigenvalues --  -10.20592 -10.20157 -10.20064 -10.20029 -10.19677
 Alpha  occ. eigenvalues --  -10.19203 -10.19100 -10.18913 -10.18844 -10.18835
 Alpha  occ. eigenvalues --  -10.18328 -10.17696 -10.16955  -1.06916  -1.06629
 Alpha  occ. eigenvalues --   -1.04714  -1.03749  -1.00123  -0.99840  -0.97695
 Alpha  occ. eigenvalues --   -0.96784  -0.96079  -0.91773  -0.83201  -0.82949
 Alpha  occ. eigenvalues --   -0.82493  -0.81960  -0.80514  -0.80024  -0.78035
 Alpha  occ. eigenvalues --   -0.77828  -0.76867  -0.75715  -0.74882  -0.72922
 Alpha  occ. eigenvalues --   -0.71701  -0.71137  -0.69695  -0.69416  -0.67868
 Alpha  occ. eigenvalues --   -0.67472  -0.66136  -0.63942  -0.61159  -0.60087
 Alpha  occ. eigenvalues --   -0.59566  -0.59175  -0.58570  -0.58117  -0.56343
 Alpha  occ. eigenvalues --   -0.55590  -0.55073  -0.54916  -0.54058  -0.53164
 Alpha  occ. eigenvalues --   -0.52786  -0.52208  -0.50741  -0.49692  -0.49497
 Alpha  occ. eigenvalues --   -0.49340  -0.48683  -0.48326  -0.48120  -0.47253
 Alpha  occ. eigenvalues --   -0.47125  -0.46806  -0.46553  -0.46050  -0.45620
 Alpha  occ. eigenvalues --   -0.45281  -0.44946  -0.44436  -0.44316  -0.43849
 Alpha  occ. eigenvalues --   -0.43556  -0.43290  -0.43086  -0.42276  -0.42187
 Alpha  occ. eigenvalues --   -0.41846  -0.41717  -0.41480  -0.41348  -0.41214
 Alpha  occ. eigenvalues --   -0.40928  -0.40679  -0.40567  -0.40178  -0.40046
 Alpha  occ. eigenvalues --   -0.39811  -0.39396  -0.39373  -0.39170  -0.38662
 Alpha  occ. eigenvalues --   -0.38521  -0.38335  -0.37896  -0.37287  -0.36703
 Alpha  occ. eigenvalues --   -0.36379  -0.35995  -0.35315  -0.34894  -0.34461
 Alpha  occ. eigenvalues --   -0.34181  -0.33723  -0.32123  -0.31735  -0.31410
 Alpha  occ. eigenvalues --   -0.31041  -0.30009  -0.29196  -0.28118  -0.27915
 Alpha  occ. eigenvalues --   -0.27655  -0.27220  -0.26285  -0.25638  -0.24400
 Alpha  occ. eigenvalues --   -0.24303  -0.24058  -0.23488  -0.22195  -0.19169
 Alpha virt. eigenvalues --   -0.09740  -0.06118  -0.05242  -0.01943  -0.00235
 Alpha virt. eigenvalues --    0.00260   0.01275   0.01694   0.01883   0.02269
 Alpha virt. eigenvalues --    0.02782   0.02887   0.03623   0.05065   0.05351

 Mulliken charges:
               1
     1  O   -0.193138
     2  O   -0.179410
     3  O   -0.228915
     4  O   -0.268342
     5  O   -0.276911
     6  O   -0.163999
     7  N   -0.005954
     8  N   -0.146458
     9  N   -0.169399
    10  N   -0.302212
    11  C    0.120667
    12  C    0.263097
    13  C   -0.162534
    14  C   -0.194679
    15  C   -0.125539
    16  C    0.043665
    17  C   -0.224118
    18  C    0.140379
    19  C   -0.012689
    20  C   -0.059707
    21  C    0.113562
    22  C    0.067641
    23  C   -0.029181
    24  C    0.170951
    25  C    0.003635
    26  C   -0.125403
    27  C   -0.067262
    28  C    0.103573
    29  C    0.025233
    30  C   -0.050050
    31  C   -0.003667
    32  C   -0.032316
    33  C   -0.136534
    34  C    0.153710
    35  C    0.135843
    36  C   -0.066634
    37  C    0.168216
    38  C    0.036397
    39  C   -0.263663
    40  C    0.147089
    41  C   -0.005612
    42  C    0.165752
    43  C   -0.038753
    44  H    0.038347
    45  H   -0.009140
    46  H   -0.019213
    47  H    0.144852
    48  H    0.104004
    49  H   -0.007185
    50  H    0.028883
    51  H   -0.063700
    52  H   -0.014928
    53  H   -0.000347
    54  H    0.049961
    55  H    0.036638
    56  H    0.067984
    57  H    0.060172
    58  H    0.104998
    59  H    0.027234
    60  H    0.202814
    61  H    0.054564
    62  H    0.041933
    63  H    0.032332
    64  H    0.040214
    65  H    0.076070
    66  H    0.067314
    67  H    0.079567
    68  H    0.066769
    69  H   -0.053278
    70  H    0.031053
    71  H    0.055911
    72  H    0.119345
    73  H    0.001454
    74  H    0.013445
    75  H    0.040655
    76  H   -0.009157
    77  H    0.231825
    78  H    0.018977
    79  H    0.013298
 Sum of Mulliken charges =   0.00000

 Dipole moment (field-independent basis, Debye):
    X=              0.5474    Y=              2.8484    Z=              3.6478  Tot=              4.6604
 Quadrupole moment (field-independent basis, Debye-Ang):
   XX=           -221.7143   YY=           -251.7426   ZZ=           -262.7160
   XY=             -6.4900   XZ=             28.6029   YZ=              4.9242

 Normal termination of Gaussian 09 at Sun Jul  7 20:15:49 2019.
