 Gaussian 09, Revision D.01,
 Gaussian 09:  ES64L-G09RevD.01 24-Apr-2013

 --------------------------
 # td=(NStates=1) B3LYP/SVP
 --------------------------

 --
 TD
 --
 Symbolic Z-matrix:
 Charge =  0 Multiplicity = 1

                         Standard orientation:
 ---------------------------------------------------------------------
 Center     Atomic      Atomic             Coordinates (Angstroms)
 Number     Number       Type             X           Y           Z
 ---------------------------------------------------------------------
      1          8           0        5.330494   -0.306347   -3.333208
      2          8           0       -2.793150   -3.246014    3.279973
      3          8           0       -3.227365   -1.032290    3.341665
      4          8           0       -1.327222    7.257373    1.605927
      5          8           0       -0.139816    6.930891   -0.179642
      6          8           0       -2.158112   -3.831294    0.060227
      7          7           0        2.340437    0.847813    0.628444
      8          7           0        4.344053   -0.751387   -1.337128
      9          7           0       -1.867482    0.762067   -0.435995
     10          7           0       -2.804916   -1.743515   -0.534860
     11          6           0        4.779869   -1.333305   -0.030366
     12          6           0        4.399380   -0.480870    1.210953
     13          6           0        2.937308   -0.108460    1.307298
     14          6           0        2.008328   -0.756638    2.137587
     15          6           0        0.687309   -0.132498    1.729447
     16          6           0        1.018812    0.875708    0.764531
     17          6           0        6.272730   -1.505230   -0.271409
     18          6           0       -0.636771   -0.296976    2.447170
     19          6           0        6.662928   -1.123328   -1.500691
     20          6           0        0.239289    1.846433    0.158169
     21          6           0       -1.028022    1.862294   -0.257580
     22          6           0        5.377826   -0.651579   -2.171982
     23          6           0       -1.813897    2.947425   -0.825780
     24          6           0        2.250016   -1.734655    3.128436
     25          6           0        7.145258   -2.051307    0.877116
     26          6           0       -2.971221    2.553239   -1.275114
     27          6           0       -1.095340   -1.746347    2.443707
     28          6           0       -3.068534    1.009858   -1.006254
     29          6           0       -1.187482    4.324968   -0.762024
     30          6           0        7.926040   -0.935332   -2.205779
     31          6           0       -1.534139    5.086474    0.611382
     32          6           0       -4.192222    3.224567   -2.053294
     33          6           0       -4.076829    0.086110   -1.445316
     34          6           0       -2.458440   -1.932010    3.073768
     35          6           0       -3.870769   -1.276002   -1.132324
     36          6           0        9.099128   -0.818801   -1.559551
     37          6           0       -0.899541    6.540329    0.544336
     38          6           0       -4.878204   -2.271849   -1.474668
     39          6           0       -4.333369   -3.511601   -1.027426
     40          6           0       -2.945966   -3.078972   -0.513756
     41          6           0       -6.087043   -2.022088   -2.236015
     42          6           0       -4.707052   -4.925731   -1.165556
     43          6           0       -7.098440   -2.903810   -2.641079
     44          1           0        4.500793   -2.514225    0.182349
     45          1           0        5.027517    0.540610    1.125122
     46          1           0        4.870618   -1.074169    2.072243
     47          1           0        2.904663    1.411044   -0.048033
     48          1           0        3.497360   -0.766812   -1.745365
     49          1           0       -0.695786    0.180915    3.610148
     50          1           0       -1.347051    0.280938    1.928879
     51          1           0        0.809776    2.835024    0.057789
     52          1           0        3.377780   -1.887922    3.533103
     53          1           0        1.597501   -1.679184    4.211382
     54          1           0        1.880572   -2.813968    2.870658
     55          1           0        6.527993   -2.770226    1.475895
     56          1           0        7.646467   -1.397154    1.420908
     57          1           0        8.003726   -2.494944    0.426095
     58          1           0       -1.152685   -2.094727    1.450602
     59          1           0       -0.278206   -2.289716    2.935394
     60          1           0       -1.749130   -0.147229   -0.173405
     61          1           0       -1.563916    4.893854   -1.684603
     62          1           0        0.041492    4.093963   -0.915527
     63          1           0        7.716412   -0.961000   -3.244371
     64          1           0       -0.825412    4.662855    1.433002
     65          1           0       -2.616676    5.097098    0.691272
     66          1           0       -3.804817    4.112559   -2.449252
     67          1           0       -5.014779    3.412485   -1.193128
     68          1           0       -4.379303    2.795604   -2.961278
     69          1           0       -4.780794    0.585995   -1.733062
     70          1           0        9.109852   -0.672700   -0.531971
     71          1           0        9.910084   -0.622023   -2.225376
     72          1           0       -3.586208   -3.448762    3.622205
     73          1           0       -6.283268   -0.829412   -2.540889
     74          1           0       -4.904390   -5.379917   -2.264600
     75          1           0       -3.996025   -5.694055   -0.792975
     76          1           0       -5.712879   -5.148216   -0.660682
     77          1           0       -0.657176    8.023195    1.620133
     78          1           0       -7.989416   -2.627376   -2.984843
     79          1           0       -7.173596   -4.155902   -2.228197
 ---------------------------------------------------------------------

 SCF Done:  E(RB3LYP) =  -1947.79408589     A.U. after   18 cycles

 Excitation energies and oscillator strengths:

 Excited State   1:      Singlet-A      2.2453 eV  552.19 nm  f=0.4106  <S**2>=0.000
     154 ->156         0.20316
     155 ->156         0.67477
 This state for optimization and/or second-order correction.
 Total Energy, E(TD-HF/TD-KS) =  -1947.71157223
 Copying the excited state density for this state as the 1-particle RhoCI density.

 The electronic state is 1-A.
 Alpha  occ. eigenvalues --  -19.18103 -19.14972 -19.14137 -19.10795 -19.09575
 Alpha  occ. eigenvalues --  -19.09535 -14.39603 -14.36576 -14.35750 -14.28652
 Alpha  occ. eigenvalues --  -10.32034 -10.30552 -10.27878 -10.26962 -10.25852
 Alpha  occ. eigenvalues --  -10.25405 -10.24257 -10.23973 -10.23481 -10.23390
 Alpha  occ. eigenvalues --  -10.23140 -10.22955 -10.22917 -10.22290 -10.22168
 Alpha  occ. eigenvalues --  -10.22024 -10.22000 -10.21428 -10.21104 -10.20780
 Alpha  occ. eigenvalues --  -10.20728 -10.20682 -10.20349 -10.20208 -10.20066
 Alpha  occ. eigenvalues --  -10.20025 -10.20020 -10.19667 -10.19576 -10.19432
 Alpha  occ. eigenvalues --  -10.19226 -10.17934 -10.17762  -1.13392  -1.07295
 Alpha  occ. eigenvalues --   -1.03284  -1.03092  -1.01552  -1.00818  -0.98954
 Alpha  occ. eigenvalues --   -0.98872  -0.94666  -0.93151  -0.83568  -0.83109
 Alpha  occ. eigenvalues --   -0.82266  -0.81046  -0.79730  -0.79552  -0.78028
 Alpha  occ. eigenvalues --   -0.76834  -0.76801  -0.75862  -0.74065  -0.73073
 Alpha  occ. eigenvalues --   -0.72843  -0.71534  -0.70109  -0.69255  -0.67662
 Alpha  occ. eigenvalues --   -0.67250  -0.66159  -0.64250  -0.62148  -0.61292
 Alpha  occ. eigenvalues --   -0.60600  -0.59747  -0.59212  -0.59170  -0.58403
 Alpha  occ. eigenvalues --   -0.56280  -0.55732  -0.55305  -0.54632  -0.53137
 Alpha  occ. eigenvalues --   -0.52866  -0.51477  -0.51184  -0.50787  -0.49947
 Alpha  occ. eigenvalues --   -0.49630  -0.49269  -0.49168  -0.48768  -0.48432
 Alpha  occ. eigenvalues --   -0.47256  -0.46929  -0.46469  -0.46120  -0.45562
 Alpha  occ. eigenvalues --   -0.45258  -0.45036  -0.44805  -0.44606  -0.43775
 Alpha  occ. eigenvalues --   -0.43710  -0.43521  -0.43274  -0.43011  -0.42845
 Alpha  occ. eigenvalues --   -0.42654  -0.42258  -0.42013  -0.41781  -0.41112
 Alpha  occ. eigenvalues --   -0.40425  -0.39860  -0.39824  -0.39480  -0.39370
 Alpha  occ. eigenvalues --   -0.39133  -0.39023  -0.38749  -0.38488  -0.38396
 Alpha  occ. eigenvalues --   -0.38332  -0.37625  -0.37573  -0.37026  -0.36833
 Alpha  occ. eigenvalues --   -0.36184  -0.35830  -0.35081  -0.34396  -0.34123
 Alpha  occ. eigenvalues --   -0.33916  -0.33752  -0.32850  -0.31877  -0.31819
 Alpha  occ. eigenvalues --   -0.31286  -0.30487  -0.29486  -0.28959  -0.27567
 Alpha  occ. eigenvalues --   -0.27396  -0.27154  -0.26311  -0.25261  -0.24647
 Alpha  occ. eigenvalues --   -0.24027  -0.23810  -0.23569  -0.21867  -0.19719
 Alpha virt. eigenvalues --   -0.10670  -0.06548  -0.05345  -0.01360   0.00862
 Alpha virt. eigenvalues --    0.01147   0.01617   0.01892   0.02356   0.02862
 Alpha virt. eigenvalues --    0.03088   0.03678   0.04388   0.04507   0.04758

 Mulliken charges:
               1
     1  O   -0.228704
     2  O   -0.156920
     3  O   -0.229395
     4  O   -0.216828
     5  O   -0.123672
     6  O   -0.216342
     7  N    0.028962
     8  N   -0.108626
     9  N   -0.015346
    10  N   -0.208401
    11  C    0.051321
    12  C    0.124085
    13  C   -0.094897
    14  C   -0.036544
    15  C   -0.116342
    16  C    0.075690
    17  C   -0.225543
    18  C    0.080078
    19  C   -0.052050
    20  C   -0.131711
    21  C    0.123170
    22  C    0.073749
    23  C   -0.049194
    24  C   -0.091889
    25  C    0.157184
    26  C   -0.183503
    27  C    0.027640
    28  C   -0.011616
    29  C   -0.031068
    30  C    0.012480
    31  C    0.018107
    32  C    0.162610
    33  C    0.057704
    34  C    0.147259
    35  C    0.152370
    36  C    0.040445
    37  C    0.078590
    38  C    0.038637
    39  C   -0.138275
    40  C    0.117398
    41  C   -0.064343
    42  C    0.001119
    43  C   -0.046412
    44  H    0.056870
    45  H    0.009992
    46  H    0.020207
    47  H    0.127185
    48  H    0.093621
    49  H    0.035166
    50  H   -0.028195
    51  H    0.004497
    52  H    0.028057
    53  H    0.040890
    54  H    0.055713
    55  H    0.026825
    56  H   -0.005255
    57  H    0.006461
    58  H    0.044299
    59  H    0.006560
    60  H    0.087799
    61  H    0.031160
    62  H    0.046814
    63  H   -0.001384
    64  H    0.064794
    65  H    0.047979
    66  H   -0.023801
    67  H    0.071995
    68  H    0.008593
    69  H   -0.180619
    70  H   -0.000711
    71  H    0.023554
    72  H    0.133295
    73  H    0.039975
    74  H    0.044274
    75  H    0.032390
    76  H    0.035793
    77  H    0.187365
    78  H   -0.006990
    79  H    0.043851
 Sum of Mulliken charges =   0.00000

 Dipole moment (field-independent basis, Debye):
    X=              1.6992    Y=              3.0280    Z=              2.3989  Tot=              4.2203
 Quadrupole moment (field-independent basis, Debye-Ang):
   XX=           -223.1714   YY=           -242.1764   ZZ=           -266.2532
   XY=             -6.4813   XZ=             34.0829   YZ=             -1.9130

 Normal termination of Gaussian 09 at Mon Jul  8 23:08:15 2019.
