 Gaussian 09, Revision D.01,
 Gaussian 09:  ES64L-G09RevD.01 24-Apr-2013

 --------------------------
 # td=(NStates=1) B3LYP/SVP
 --------------------------

 --
 TD
 --
 Symbolic Z-matrix:
 Charge =  0 Multiplicity = 1

                         Standard orientation:
 ---------------------------------------------------------------------
 Center     Atomic      Atomic             Coordinates (Angstroms)
 Number     Number       Type             X           Y           Z
 ---------------------------------------------------------------------
      1          8           0        5.319470   -0.303980   -3.216675
      2          8           0       -3.168644   -2.948019    3.173012
      3          8           0       -3.273941   -0.762948    3.104342
      4          8           0       -1.158003    7.143334    1.530333
      5          8           0       -0.366560    7.034454   -0.646166
      6          8           0       -2.040174   -3.996370   -0.069337
      7          7           0        2.258902    0.768266    0.475704
      8          7           0        4.361264   -0.755582   -1.202928
      9          7           0       -1.946661    0.782010   -0.276905
     10          7           0       -2.759962   -1.763057   -0.511456
     11          6           0        4.788283   -1.307667    0.115562
     12          6           0        4.452526   -0.341164    1.274976
     13          6           0        2.915585   -0.146149    1.347415
     14          6           0        1.937131   -0.736511    2.044732
     15          6           0        0.744303   -0.139411    1.797345
     16          6           0        0.945265    0.788513    0.795698
     17          6           0        6.381559   -1.487180   -0.101426
     18          6           0       -0.578665   -0.395974    2.551795
     19          6           0        6.776936   -0.942807   -1.349033
     20          6           0        0.222903    1.874538    0.141425
     21          6           0       -1.124681    1.794483   -0.230477
     22          6           0        5.407063   -0.681866   -2.067258
     23          6           0       -1.820006    2.920522   -0.857462
     24          6           0        2.166178   -1.762244    3.201385
     25          6           0        7.262302   -1.970014    0.928303
     26          6           0       -3.037352    2.453846   -1.176493
     27          6           0       -1.159424   -1.772625    2.502448
     28          6           0       -3.058379    1.143677   -0.924388
     29          6           0       -1.410197    4.378136   -0.922247
     30          6           0        7.912290   -0.879920   -2.084182
     31          6           0       -1.346572    5.078949    0.502750
     32          6           0       -4.305979    3.282428   -1.750995
     33          6           0       -4.008226    0.196583   -1.326669
     34          6           0       -2.639635   -1.751992    2.937400
     35          6           0       -3.846852   -1.255311   -1.011472
     36          6           0        9.238415   -0.955605   -1.721984
     37          6           0       -0.873917    6.546695    0.406558
     38          6           0       -4.749207   -2.434039   -1.566987
     39          6           0       -4.106026   -3.611768   -1.141914
     40          6           0       -2.833926   -3.161963   -0.560721
     41          6           0       -6.141919   -2.234100   -2.046489
     42          6           0       -4.462869   -5.059179   -1.374593
     43          6           0       -7.028529   -3.152148   -2.467646
     44          1           0        4.447532   -2.310219    0.227439
     45          1           0        5.236795    0.503528    1.068496
     46          1           0        4.780896   -0.726862    2.118577
     47          1           0        2.744036    1.275203   -0.061752
     48          1           0        3.567871   -0.883309   -1.545516
     49          1           0       -0.414852    0.003791    3.730739
     50          1           0       -1.143436    0.438632    2.083155
     51          1           0        0.775847    2.742939   -0.143909
     52          1           0        3.215742   -1.958097    3.257320
     53          1           0        1.760765   -1.235428    3.933059
     54          1           0        1.843321   -2.750718    3.124432
     55          1           0        6.797706   -2.748917    1.430407
     56          1           0        7.387488   -1.149092    1.813096
     57          1           0        8.243768   -2.166014    0.422556
     58          1           0       -1.231182   -2.071215    1.442893
     59          1           0       -0.548189   -2.585007    3.232208
     60          1           0       -1.785052   -0.251206   -0.523385
     61          1           0       -2.204993    5.103657   -1.578622
     62          1           0       -0.379376    4.602590   -1.653339
     63          1           0        7.830428   -0.958663   -3.277820
     64          1           0       -0.581239    4.510193    1.199588
     65          1           0       -2.259030    4.976141    0.999878
     66          1           0       -4.007018    4.209950   -2.433057
     67          1           0       -4.956806    3.578414   -0.698447
     68          1           0       -5.128032    2.329513   -2.294952
     69          1           0       -4.856100    0.483855   -1.677187
     70          1           0        9.510074   -0.761325   -0.608416
     71          1           0       10.084322   -0.848491   -2.392082
     72          1           0       -4.207504   -2.944181    3.249059
     73          1           0       -6.365926   -1.148412   -2.013153
     74          1           0       -4.846263   -5.411999   -2.424023
     75          1           0       -3.860524   -5.721059   -0.891543
     76          1           0       -5.370628   -5.390863   -0.741556
     77          1           0       -1.007906    8.188167    1.294173
     78          1           0       -7.958217   -2.944040   -2.910352
     79          1           0       -6.716581   -4.207080   -2.345087
 ---------------------------------------------------------------------

 SCF Done:  E(RB3LYP) =  -1947.73587548     A.U. after   16 cycles

 Excitation energies and oscillator strengths:

 Excited State   1:      Singlet-A      2.0384 eV  608.23 nm  f=0.4495  <S**2>=0.000
     155 ->156         0.70014
     155 <-156        -0.11729
 This state for optimization and/or second-order correction.
 Total Energy, E(TD-HF/TD-KS) =  -1947.66096453
 Copying the excited state density for this state as the 1-particle RhoCI density.

 The electronic state is 1-A.
 Alpha  occ. eigenvalues --  -19.21836 -19.16333 -19.13523 -19.10728 -19.10032
 Alpha  occ. eigenvalues --  -19.09427 -14.36463 -14.35917 -14.34364 -14.30463
 Alpha  occ. eigenvalues --  -10.33615 -10.29650 -10.28025 -10.27148 -10.25336
 Alpha  occ. eigenvalues --  -10.25333 -10.24903 -10.24132 -10.24003 -10.23409
 Alpha  occ. eigenvalues --  -10.22842 -10.22628 -10.22515 -10.22256 -10.22016
 Alpha  occ. eigenvalues --  -10.22008 -10.21322 -10.21282 -10.21232 -10.20720
 Alpha  occ. eigenvalues --  -10.20621 -10.20440 -10.20347 -10.20270 -10.20217
 Alpha  occ. eigenvalues --  -10.19917 -10.19839 -10.19521 -10.19488 -10.18791
 Alpha  occ. eigenvalues --  -10.18194 -10.18098 -10.17723  -1.11368  -1.07925
 Alpha  occ. eigenvalues --   -1.02619  -1.02105  -1.00363  -0.99665  -0.99407
 Alpha  occ. eigenvalues --   -0.98466  -0.93954  -0.92889  -0.83147  -0.82642
 Alpha  occ. eigenvalues --   -0.82461  -0.81885  -0.79996  -0.79748  -0.77468
 Alpha  occ. eigenvalues --   -0.77119  -0.75952  -0.75777  -0.74938  -0.72804
 Alpha  occ. eigenvalues --   -0.71504  -0.70622  -0.69324  -0.68569  -0.67252
 Alpha  occ. eigenvalues --   -0.66579  -0.66000  -0.64588  -0.62480  -0.61941
 Alpha  occ. eigenvalues --   -0.60911  -0.59795  -0.59210  -0.58133  -0.57209
 Alpha  occ. eigenvalues --   -0.56407  -0.55637  -0.54914  -0.53498  -0.52919
 Alpha  occ. eigenvalues --   -0.52194  -0.51971  -0.50898  -0.50504  -0.50030
 Alpha  occ. eigenvalues --   -0.49439  -0.48869  -0.48674  -0.47682  -0.47462
 Alpha  occ. eigenvalues --   -0.47306  -0.46684  -0.46607  -0.46192  -0.45723
 Alpha  occ. eigenvalues --   -0.45650  -0.45477  -0.45040  -0.44422  -0.43937
 Alpha  occ. eigenvalues --   -0.43588  -0.43388  -0.42742  -0.42457  -0.42243
 Alpha  occ. eigenvalues --   -0.41929  -0.41760  -0.41610  -0.41361  -0.41173
 Alpha  occ. eigenvalues --   -0.40624  -0.40377  -0.40232  -0.39652  -0.39135
 Alpha  occ. eigenvalues --   -0.39069  -0.38728  -0.38485  -0.38263  -0.38217
 Alpha  occ. eigenvalues --   -0.37628  -0.37442  -0.37338  -0.36843  -0.36335
 Alpha  occ. eigenvalues --   -0.36164  -0.35814  -0.34673  -0.33914  -0.33589
 Alpha  occ. eigenvalues --   -0.33317  -0.33195  -0.32923  -0.32144  -0.31757
 Alpha  occ. eigenvalues --   -0.31092  -0.30359  -0.29381  -0.28935  -0.27963
 Alpha  occ. eigenvalues --   -0.27091  -0.26782  -0.25852  -0.25448  -0.24952
 Alpha  occ. eigenvalues --   -0.24443  -0.23973  -0.23124  -0.22804  -0.19175
 Alpha virt. eigenvalues --   -0.11297  -0.07066  -0.06769  -0.01635  -0.00611
 Alpha virt. eigenvalues --    0.00725   0.01236   0.01454   0.01807   0.02912
 Alpha virt. eigenvalues --    0.03219   0.04278   0.04384   0.04806   0.05120

 Mulliken charges:
               1
     1  O   -0.221635
     2  O   -0.214433
     3  O   -0.212428
     4  O   -0.177193
     5  O   -0.280834
     6  O   -0.233045
     7  N    0.000992
     8  N   -0.084004
     9  N    0.016738
    10  N   -0.266584
    11  C    0.097202
    12  C    0.250939
    13  C   -0.100301
    14  C   -0.138060
    15  C   -0.107287
    16  C    0.065379
    17  C   -0.226205
    18  C    0.052632
    19  C    0.039750
    20  C   -0.090721
    21  C    0.035983
    22  C    0.090912
    23  C   -0.039159
    24  C    0.205800
    25  C    0.090487
    26  C   -0.065459
    27  C    0.003886
    28  C    0.060149
    29  C   -0.072821
    30  C   -0.100993
    31  C   -0.001912
    32  C   -0.072846
    33  C    0.012676
    34  C    0.102636
    35  C    0.046778
    36  C   -0.071131
    37  C    0.161857
    38  C   -0.020198
    39  C   -0.148550
    40  C    0.161788
    41  C   -0.017062
    42  C    0.109861
    43  C    0.010641
    44  H    0.009411
    45  H    0.022739
    46  H   -0.061526
    47  H    0.029735
    48  H    0.051484
    49  H    0.020666
    50  H    0.014497
    51  H   -0.008869
    52  H   -0.031384
    53  H   -0.005582
    54  H    0.009520
    55  H   -0.000261
    56  H    0.048729
    57  H    0.046139
    58  H    0.066535
    59  H    0.058946
    60  H    0.180306
    61  H    0.038664
    62  H    0.069435
    63  H    0.054245
    64  H    0.059048
    65  H    0.024148
    66  H    0.078236
    67  H    0.067719
    68  H    0.059341
    69  H   -0.132914
    70  H    0.027634
    71  H    0.031452
    72  H    0.214438
    73  H   -0.005414
    74  H    0.055355
    75  H   -0.016860
    76  H    0.010387
    77  H    0.231541
    78  H    0.015800
    79  H    0.012438
 Sum of Mulliken charges =   0.00000

 Dipole moment (field-independent basis, Debye):
    X=             -0.3398    Y=              2.5440    Z=              3.4209  Tot=              4.2767
 Quadrupole moment (field-independent basis, Debye-Ang):
   XX=           -219.5571   YY=           -235.3449   ZZ=           -267.2891
   XY=             -9.6348   XZ=             31.3272   YZ=              7.4734

 Normal termination of Gaussian 09 at Wed Jul 10 05:54:02 2019.
