 Gaussian 09, Revision D.01,
 Gaussian 09:  ES64L-G09RevD.01 24-Apr-2013

 --------------------------
 # td=(NStates=1) B3LYP/SVP
 --------------------------

 --
 TD
 --
 Symbolic Z-matrix:
 Charge =  0 Multiplicity = 1

                         Standard orientation:
 ---------------------------------------------------------------------
 Center     Atomic      Atomic             Coordinates (Angstroms)
 Number     Number       Type             X           Y           Z
 ---------------------------------------------------------------------
      1          8           0        5.340465   -0.087780   -3.316064
      2          8           0       -2.913724   -3.225188    3.055247
      3          8           0       -3.268327   -0.979424    3.237479
      4          8           0       -1.419464    7.293588    1.553949
      5          8           0       -0.419035    6.903470   -0.463064
      6          8           0       -2.005637   -3.867983   -0.075750
      7          7           0        2.336847    0.852257    0.519800
      8          7           0        4.428077   -0.651319   -1.238680
      9          7           0       -1.897960    0.683024   -0.327001
     10          7           0       -2.720269   -1.741714   -0.433786
     11          6           0        4.891177   -1.295596    0.021928
     12          6           0        4.550370   -0.434389    1.279176
     13          6           0        2.974658   -0.070362    1.289488
     14          6           0        2.051461   -0.750656    2.074542
     15          6           0        0.843245   -0.122880    1.855687
     16          6           0        0.939749    0.784777    0.801916
     17          6           0        6.389259   -1.395169   -0.197904
     18          6           0       -0.496596   -0.349147    2.456153
     19          6           0        6.661333   -0.943164   -1.403451
     20          6           0        0.103660    1.826084    0.194835
     21          6           0       -1.061830    1.863537   -0.296223
     22          6           0        5.317479   -0.586932   -2.146302
     23          6           0       -1.965969    2.997535   -0.750192
     24          6           0        2.320785   -1.756913    3.236690
     25          6           0        7.285390   -1.911588    0.906798
     26          6           0       -3.141131    2.538127   -1.138378
     27          6           0       -1.038754   -1.832880    2.563926
     28          6           0       -3.045770    0.998095   -0.980707
     29          6           0       -1.383754    4.378456   -0.864247
     30          6           0        7.914831   -0.822669   -2.145595
     31          6           0       -1.654263    5.176369    0.514308
     32          6           0       -4.319173    3.075598   -1.736606
     33          6           0       -4.041434    0.010706   -1.436465
     34          6           0       -2.525268   -1.934697    2.976714
     35          6           0       -3.884667   -1.298102   -1.009888
     36          6           0        9.231052   -0.748619   -1.740180
     37          6           0       -1.137334    6.600016    0.502143
     38          6           0       -4.780343   -2.451130   -1.424931
     39          6           0       -4.167541   -3.576557   -1.032984
     40          6           0       -2.888725   -3.099610   -0.519637
     41          6           0       -6.182649   -2.324555   -1.829336
     42          6           0       -4.683800   -4.929423   -1.127747
     43          6           0       -6.743323   -3.148851   -2.936791
     44          1           0        4.620865   -2.377810   -0.005998
     45          1           0        5.125822    0.486389    1.144304
     46          1           0        5.043837   -0.873695    2.192071
     47          1           0        2.825027    1.349112   -0.213033
     48          1           0        3.521886   -0.753643   -1.697351
     49          1           0       -0.487571    0.038061    3.600092
     50          1           0       -1.193248    0.334540    2.005855
     51          1           0        0.619301    2.804632   -0.018909
     52          1           0        3.326522   -1.734376    3.641175
     53          1           0        1.762459   -1.672554    4.181911
     54          1           0        2.230398   -2.806720    2.567191
     55          1           0        6.632757   -2.632965    1.392506
     56          1           0        7.562981   -1.093767    1.593881
     57          1           0        8.126598   -2.272993    0.341331
     58          1           0       -0.895676   -2.230479    1.551917
     59          1           0       -0.286442   -2.419162    3.321211
     60          1           0       -1.789180   -0.260005   -0.191614
     61          1           0       -2.098391    4.919053   -1.591197
     62          1           0       -0.249624    4.552611   -1.236973
     63          1           0        7.607763   -0.771908   -3.068184
     64          1           0       -1.071026    4.583970    1.226958
     65          1           0       -2.633907    4.977442    0.760183
     66          1           0       -3.968616    4.077662   -2.239911
     67          1           0       -5.128182    3.299504   -0.971611
     68          1           0       -4.783314    2.363020   -2.686946
     69          1           0       -5.010118    0.280471   -1.768370
     70          1           0        9.307862   -1.089465   -0.684659
     71          1           0        9.804813   -0.743802   -2.479638
     72          1           0       -3.822448   -3.081016    3.099278
     73          1           0       -6.882949   -1.347919   -1.567117
     74          1           0       -4.128952   -5.403565   -2.115200
     75          1           0       -4.270285   -5.627566   -0.470926
     76          1           0       -5.857127   -4.944721   -1.307568
     77          1           0       -1.095624    8.090455    1.256395
     78          1           0       -7.765783   -2.999970   -3.462137
     79          1           0       -6.234274   -4.100475   -3.416067
 ---------------------------------------------------------------------

 SCF Done:  E(RB3LYP) =  -1947.78396978     A.U. after   18 cycles

 Excitation energies and oscillator strengths:

 Excited State   1:      Singlet-A      2.4123 eV  513.97 nm  f=0.3124  <S**2>=0.000
     153 ->156        -0.20377
     154 ->156         0.15772
     155 ->156         0.65284
 This state for optimization and/or second-order correction.
 Total Energy, E(TD-HF/TD-KS) =  -1947.69531993
 Copying the excited state density for this state as the 1-particle RhoCI density.

 The electronic state is 1-A.
 Alpha  occ. eigenvalues --  -19.21802 -19.16939 -19.13744 -19.11538 -19.09533
 Alpha  occ. eigenvalues --  -19.08425 -14.38764 -14.37279 -14.36519 -14.28902
 Alpha  occ. eigenvalues --  -10.33868 -10.31130 -10.28261 -10.26323 -10.26142
 Alpha  occ. eigenvalues --  -10.25258 -10.24311 -10.23791 -10.23682 -10.23501
 Alpha  occ. eigenvalues --  -10.23145 -10.23042 -10.23000 -10.22804 -10.22720
 Alpha  occ. eigenvalues --  -10.22460 -10.21845 -10.21630 -10.21268 -10.21163
 Alpha  occ. eigenvalues --  -10.21149 -10.21014 -10.20064 -10.19762 -10.19677
 Alpha  occ. eigenvalues --  -10.19194 -10.19056 -10.18963 -10.18914 -10.18860
 Alpha  occ. eigenvalues --  -10.18793 -10.18230 -10.18058  -1.15673  -1.09242
 Alpha  occ. eigenvalues --   -1.02093  -1.02066  -0.99321  -0.98622  -0.98409
 Alpha  occ. eigenvalues --   -0.97875  -0.94650  -0.91240  -0.84139  -0.83604
 Alpha  occ. eigenvalues --   -0.82545  -0.81230  -0.80650  -0.79216  -0.78485
 Alpha  occ. eigenvalues --   -0.76802  -0.75787  -0.74902  -0.73625  -0.72634
 Alpha  occ. eigenvalues --   -0.72300  -0.71624  -0.69429  -0.68941  -0.68597
 Alpha  occ. eigenvalues --   -0.66710  -0.66171  -0.64184  -0.62346  -0.62197
 Alpha  occ. eigenvalues --   -0.60513  -0.59190  -0.58850  -0.58275  -0.57494
 Alpha  occ. eigenvalues --   -0.56420  -0.55963  -0.54946  -0.54268  -0.52921
 Alpha  occ. eigenvalues --   -0.52634  -0.51754  -0.51670  -0.51150  -0.50671
 Alpha  occ. eigenvalues --   -0.50295  -0.49391  -0.48999  -0.47992  -0.47608
 Alpha  occ. eigenvalues --   -0.47296  -0.46930  -0.46575  -0.46028  -0.45598
 Alpha  occ. eigenvalues --   -0.45277  -0.44790  -0.44481  -0.44295  -0.44015
 Alpha  occ. eigenvalues --   -0.43788  -0.43466  -0.43105  -0.42658  -0.42466
 Alpha  occ. eigenvalues --   -0.42102  -0.41830  -0.41567  -0.41251  -0.40965
 Alpha  occ. eigenvalues --   -0.40751  -0.40561  -0.40102  -0.40024  -0.39848
 Alpha  occ. eigenvalues --   -0.39339  -0.38900  -0.38567  -0.38400  -0.38134
 Alpha  occ. eigenvalues --   -0.37918  -0.37301  -0.37125  -0.37043  -0.36751
 Alpha  occ. eigenvalues --   -0.35917  -0.35471  -0.34949  -0.34802  -0.34676
 Alpha  occ. eigenvalues --   -0.34086  -0.33394  -0.32934  -0.32624  -0.31200
 Alpha  occ. eigenvalues --   -0.30898  -0.30526  -0.29242  -0.28788  -0.27718
 Alpha  occ. eigenvalues --   -0.27339  -0.27011  -0.26839  -0.24985  -0.24646
 Alpha  occ. eigenvalues --   -0.23894  -0.23303  -0.22854  -0.22145  -0.20055
 Alpha virt. eigenvalues --   -0.09959  -0.06186  -0.04905  -0.02728  -0.01404
 Alpha virt. eigenvalues --    0.00476   0.00781   0.00981   0.02332   0.02878
 Alpha virt. eigenvalues --    0.03161   0.04177   0.04499   0.05058   0.05527

 Mulliken charges:
               1
     1  O   -0.292964
     2  O   -0.127663
     3  O   -0.262106
     4  O   -0.056671
     5  O   -0.265595
     6  O   -0.243334
     7  N   -0.083632
     8  N   -0.097443
     9  N   -0.041243
    10  N   -0.273978
    11  C    0.079681
    12  C    0.184167
    13  C   -0.081986
    14  C   -0.122820
    15  C   -0.046354
    16  C    0.067602
    17  C   -0.273494
    18  C    0.058585
    19  C   -0.079329
    20  C   -0.125648
    21  C    0.154844
    22  C    0.104600
    23  C   -0.037779
    24  C    0.035735
    25  C    0.133028
    26  C   -0.051618
    27  C   -0.043002
    28  C    0.036567
    29  C   -0.019146
    30  C    0.008074
    31  C    0.022324
    32  C   -0.031906
    33  C   -0.038488
    34  C    0.164349
    35  C    0.062289
    36  C    0.113487
    37  C    0.144775
    38  C    0.024704
    39  C   -0.111499
    40  C    0.109906
    41  C   -0.090350
    42  C    0.072950
    43  C   -0.126142
    44  H    0.039394
    45  H   -0.007628
    46  H    0.024731
    47  H    0.119595
    48  H    0.135815
    49  H    0.007165
    50  H   -0.004761
    51  H   -0.005865
    52  H   -0.005744
    53  H    0.040533
    54  H    0.058633
    55  H    0.018478
    56  H    0.046676
    57  H    0.042238
    58  H    0.071521
    59  H    0.051740
    60  H    0.097634
    61  H    0.016365
    62  H    0.078026
    63  H   -0.061267
    64  H    0.035471
    65  H    0.005462
    66  H    0.035009
    67  H    0.059533
    68  H    0.074673
    69  H   -0.038860
    70  H    0.008765
    71  H   -0.039182
    72  H    0.138879
    73  H    0.057787
    74  H    0.036487
    75  H    0.000813
    76  H    0.053127
    77  H    0.140318
    78  H    0.052182
    79  H    0.062782
 Sum of Mulliken charges =   0.00000

 Dipole moment (field-independent basis, Debye):
    X=             -0.9498    Y=              3.3285    Z=              2.8630  Tot=              4.4920
 Quadrupole moment (field-independent basis, Debye-Ang):
   XX=           -229.9102   YY=           -237.4418   ZZ=           -267.5488
   XY=            -19.4581   XZ=             40.4385   YZ=              8.7856

 Normal termination of Gaussian 09 at Tue Jul  9 06:58:54 2019.
