 Gaussian 09, Revision D.01,
 Gaussian 09:  ES64L-G09RevD.01 24-Apr-2013

 --------------------------
 # td=(NStates=1) B3LYP/SVP
 --------------------------

 --
 TD
 --
 Symbolic Z-matrix:
 Charge =  0 Multiplicity = 1

                         Standard orientation:
 ---------------------------------------------------------------------
 Center     Atomic      Atomic             Coordinates (Angstroms)
 Number     Number       Type             X           Y           Z
 ---------------------------------------------------------------------
      1          8           0        5.644041   -0.086553   -3.398088
      2          8           0       -2.759373   -3.336420    3.440210
      3          8           0       -3.202298   -1.127419    3.154729
      4          8           0       -1.359318    7.021448    1.864950
      5          8           0       -0.880022    7.205841   -0.504184
      6          8           0       -2.197478   -3.971678   -0.168806
      7          7           0        2.287187    0.768474    0.557573
      8          7           0        4.419244   -0.616609   -1.384056
      9          7           0       -1.834825    0.692304   -0.395044
     10          7           0       -2.676072   -1.788302   -0.682927
     11          6           0        4.824207   -1.320188   -0.166675
     12          6           0        4.409083   -0.536458    1.162145
     13          6           0        2.969703   -0.225363    1.252013
     14          6           0        1.987359   -0.790594    2.052051
     15          6           0        0.748022   -0.177158    1.781246
     16          6           0        0.958628    0.791459    0.752110
     17          6           0        6.319929   -1.441004   -0.204326
     18          6           0       -0.610570   -0.458934    2.543585
     19          6           0        6.779246   -0.848462   -1.397114
     20          6           0        0.175079    1.822872    0.281895
     21          6           0       -1.056017    1.761927   -0.278504
     22          6           0        5.564575   -0.466660   -2.206486
     23          6           0       -1.842963    2.912102   -0.751759
     24          6           0        2.245692   -1.936302    3.043504
     25          6           0        7.203339   -2.044637    0.791030
     26          6           0       -3.053699    2.505605   -1.146666
     27          6           0       -1.048470   -1.912810    2.470558
     28          6           0       -3.190804    1.072074   -0.875706
     29          6           0       -1.353043    4.332151   -0.726413
     30          6           0        8.098877   -0.506245   -1.964406
     31          6           0       -1.630558    5.014953    0.533694
     32          6           0       -4.260168    3.281369   -1.566341
     33          6           0       -4.061172    0.139057   -1.236906
     34          6           0       -2.396242   -2.024024    3.107856
     35          6           0       -3.819088   -1.278322   -1.126705
     36          6           0        9.253198   -0.322724   -1.401817
     37          6           0       -1.264451    6.491454    0.576973
     38          6           0       -4.850032   -2.371581   -1.525778
     39          6           0       -4.210672   -3.469442   -1.373252
     40          6           0       -2.876805   -3.192241   -0.671289
     41          6           0       -6.151112   -2.028873   -2.107832
     42          6           0       -4.714438   -4.976662   -1.339534
     43          6           0       -6.856400   -2.873652   -2.939396
     44          1           0        4.442290   -2.285397    0.114936
     45          1           0        5.075385    0.538576    1.148195
     46          1           0        4.786066   -0.999912    2.260585
     47          1           0        2.929872    1.300981    0.018042
     48          1           0        3.486752   -0.843320   -1.846513
     49          1           0       -0.426166   -0.290479    3.705976
     50          1           0       -1.413163    0.213506    2.198605
     51          1           0        0.675613    2.947109    0.116231
     52          1           0        3.298297   -1.919030    3.426838
     53          1           0        1.641484   -2.029681    3.839546
     54          1           0        2.046829   -2.893404    2.592378
     55          1           0        6.722305   -2.607358    1.480232
     56          1           0        7.428419   -1.143906    1.329459
     57          1           0        8.048868   -2.724872    0.536289
     58          1           0       -1.138321   -2.386966    1.478881
     59          1           0       -0.306391   -2.524496    2.904390
     60          1           0       -1.710958   -0.233082   -0.226108
     61          1           0       -1.966268    4.934679   -1.556335
     62          1           0       -0.251812    4.275207   -0.866760
     63          1           0        8.370667   -0.611155   -3.127167
     64          1           0       -1.292740    4.479045    1.518584
     65          1           0       -2.681703    4.910636    0.942710
     66          1           0       -4.107160    4.435696   -1.682953
     67          1           0       -5.086734    3.087346   -0.932978
     68          1           0       -4.330905    2.993148   -2.695136
     69          1           0       -4.851038    0.437279   -1.629799
     70          1           0        9.395274   -0.482761   -0.356691
     71          1           0       10.217268    0.010165   -1.943150
     72          1           0       -3.680834   -3.560795    3.950854
     73          1           0       -6.482948   -0.874593   -1.862133
     74          1           0       -4.524659   -5.568678   -2.301203
     75          1           0       -4.060051   -5.486541   -0.645868
     76          1           0       -5.826703   -5.085557   -0.937862
     77          1           0       -1.137004    7.963182    1.832201
     78          1           0       -7.839133   -2.609396   -3.294816
     79          1           0       -6.525258   -3.934094   -3.319286
 ---------------------------------------------------------------------

 SCF Done:  E(RB3LYP) =  -1947.82099148     A.U. after   17 cycles

 Excitation energies and oscillator strengths:

 Excited State   1:      Singlet-A      2.1307 eV  581.89 nm  f=0.4518  <S**2>=0.000
     155 ->156         0.70420
     155 <-156        -0.10009
 This state for optimization and/or second-order correction.
 Total Energy, E(TD-HF/TD-KS) =  -1947.74268935
 Copying the excited state density for this state as the 1-particle RhoCI density.

 The electronic state is 1-A.
 Alpha  occ. eigenvalues --  -19.19976 -19.15850 -19.13416 -19.12100 -19.11282
 Alpha  occ. eigenvalues --  -19.10195 -14.37472 -14.36994 -14.34703 -14.29931
 Alpha  occ. eigenvalues --  -10.34381 -10.30718 -10.28979 -10.27194 -10.25849
 Alpha  occ. eigenvalues --  -10.24536 -10.24430 -10.24398 -10.23324 -10.23114
 Alpha  occ. eigenvalues --  -10.22674 -10.22497 -10.22278 -10.21959 -10.21551
 Alpha  occ. eigenvalues --  -10.21334 -10.21210 -10.20992 -10.20848 -10.20662
 Alpha  occ. eigenvalues --  -10.20593 -10.20295 -10.20065 -10.20012 -10.20009
 Alpha  occ. eigenvalues --  -10.19957 -10.19272 -10.18863 -10.18843 -10.18510
 Alpha  occ. eigenvalues --  -10.18504 -10.18438 -10.17781  -1.07653  -1.06544
 Alpha  occ. eigenvalues --   -1.05530  -1.00524  -0.98764  -0.97215  -0.97128
 Alpha  occ. eigenvalues --   -0.95749  -0.93558  -0.92852  -0.83552  -0.82541
 Alpha  occ. eigenvalues --   -0.82294  -0.80714  -0.80373  -0.79827  -0.78492
 Alpha  occ. eigenvalues --   -0.77849  -0.76587  -0.75610  -0.74320  -0.72859
 Alpha  occ. eigenvalues --   -0.72310  -0.71313  -0.69653  -0.68844  -0.68762
 Alpha  occ. eigenvalues --   -0.66007  -0.65780  -0.64194  -0.60797  -0.60615
 Alpha  occ. eigenvalues --   -0.59877  -0.59237  -0.58138  -0.57656  -0.57098
 Alpha  occ. eigenvalues --   -0.55961  -0.55500  -0.55055  -0.53745  -0.53285
 Alpha  occ. eigenvalues --   -0.52329  -0.51776  -0.51664  -0.50900  -0.49576
 Alpha  occ. eigenvalues --   -0.49376  -0.48343  -0.47918  -0.47645  -0.47413
 Alpha  occ. eigenvalues --   -0.47190  -0.46518  -0.46197  -0.45864  -0.45439
 Alpha  occ. eigenvalues --   -0.44988  -0.44930  -0.44779  -0.44435  -0.44006
 Alpha  occ. eigenvalues --   -0.43544  -0.43155  -0.43035  -0.42751  -0.42510
 Alpha  occ. eigenvalues --   -0.41947  -0.41682  -0.41672  -0.41334  -0.40770
 Alpha  occ. eigenvalues --   -0.40452  -0.40230  -0.39634  -0.39611  -0.39249
 Alpha  occ. eigenvalues --   -0.39175  -0.38689  -0.38497  -0.38218  -0.38150
 Alpha  occ. eigenvalues --   -0.37939  -0.37196  -0.36877  -0.36632  -0.36199
 Alpha  occ. eigenvalues --   -0.35917  -0.35697  -0.35453  -0.35171  -0.34596
 Alpha  occ. eigenvalues --   -0.33885  -0.33801  -0.32967  -0.31738  -0.31054
 Alpha  occ. eigenvalues --   -0.30281  -0.29493  -0.29188  -0.28888  -0.27933
 Alpha  occ. eigenvalues --   -0.27435  -0.26633  -0.25962  -0.25228  -0.25103
 Alpha  occ. eigenvalues --   -0.24754  -0.24227  -0.23992  -0.23451  -0.18658
 Alpha virt. eigenvalues --   -0.10282  -0.05815  -0.05472  -0.03869  -0.01309
 Alpha virt. eigenvalues --    0.00879   0.00909   0.01222   0.02495   0.02992
 Alpha virt. eigenvalues --    0.03193   0.04582   0.04733   0.04985   0.05113

 Mulliken charges:
               1
     1  O   -0.245463
     2  O   -0.298475
     3  O   -0.220138
     4  O   -0.198731
     5  O   -0.333066
     6  O   -0.116396
     7  N   -0.028071
     8  N   -0.218405
     9  N   -0.063104
    10  N   -0.264815
    11  C    0.172907
    12  C   -0.032026
    13  C   -0.074911
    14  C   -0.132104
    15  C   -0.083603
    16  C    0.080800
    17  C   -0.193202
    18  C    0.060973
    19  C   -0.029009
    20  C   -0.180313
    21  C    0.105336
    22  C    0.170165
    23  C   -0.097955
    24  C    0.160387
    25  C    0.168157
    26  C   -0.120099
    27  C    0.040198
    28  C    0.128020
    29  C    0.135578
    30  C   -0.014308
    31  C   -0.052487
    32  C    0.065135
    33  C    0.020630
    34  C    0.156700
    35  C    0.071013
    36  C   -0.085723
    37  C    0.225386
    38  C    0.071791
    39  C   -0.227114
    40  C    0.141217
    41  C   -0.046146
    42  C    0.034549
    43  C   -0.050876
    44  H    0.008334
    45  H    0.018544
    46  H    0.051955
    47  H    0.099125
    48  H    0.162589
    49  H    0.020095
    50  H    0.024953
    51  H    0.019446
    52  H   -0.004979
    53  H   -0.025737
    54  H    0.013770
    55  H   -0.036631
    56  H    0.031329
    57  H    0.054264
    58  H    0.061954
    59  H   -0.022153
    60  H    0.086645
    61  H    0.049439
    62  H    0.023203
    63  H    0.049483
    64  H    0.046327
    65  H    0.040454
    66  H    0.025888
    67  H    0.042059
    68  H    0.044036
    69  H   -0.168020
    70  H   -0.011667
    71  H    0.041093
    72  H    0.230092
    73  H    0.047455
    74  H    0.032301
    75  H    0.018478
    76  H    0.045082
    77  H    0.192307
    78  H    0.025584
    79  H    0.060500
 Sum of Mulliken charges =   0.00000

 Dipole moment (field-independent basis, Debye):
    X=             -0.8864    Y=             -0.5453    Z=              4.2229  Tot=              4.3493
 Quadrupole moment (field-independent basis, Debye-Ang):
   XX=           -219.3843   YY=           -248.3580   ZZ=           -261.0158
   XY=            -13.1667   XZ=             32.7905   YZ=              9.1071

 Normal termination of Gaussian 09 at Sun Jul  7 16:33:46 2019.
