 Gaussian 09, Revision D.01,
 Gaussian 09:  ES64L-G09RevD.01 24-Apr-2013

 --------------------------
 # td=(NStates=1) B3LYP/SVP
 --------------------------

 --
 TD
 --
 Symbolic Z-matrix:
 Charge =  0 Multiplicity = 1

                         Standard orientation:
 ---------------------------------------------------------------------
 Center     Atomic      Atomic             Coordinates (Angstroms)
 Number     Number       Type             X           Y           Z
 ---------------------------------------------------------------------
      1          8           0        5.442555   -0.374409   -3.350441
      2          8           0       -2.813553   -3.140981    3.141692
      3          8           0       -3.058718   -0.949695    3.245196
      4          8           0       -1.803962    7.361084    1.310105
      5          8           0        0.032343    6.770267   -0.176643
      6          8           0       -2.208771   -4.012750   -0.241046
      7          7           0        2.470004    0.880125    0.555345
      8          7           0        4.419524   -0.608156   -1.243068
      9          7           0       -1.893660    0.618696   -0.270498
     10          7           0       -2.912286   -1.836870   -0.568610
     11          6           0        4.909875   -1.258292   -0.074428
     12          6           0        4.479800   -0.282053    1.225959
     13          6           0        3.012847   -0.052739    1.341662
     14          6           0        2.095888   -0.677372    2.097471
     15          6           0        0.823095   -0.114184    1.822654
     16          6           0        1.073991    0.857409    0.823546
     17          6           0        6.389727   -1.368169   -0.186621
     18          6           0       -0.492300   -0.416919    2.468486
     19          6           0        6.757936   -0.941127   -1.402594
     20          6           0        0.195807    1.825820    0.021745
     21          6           0       -1.089846    1.745619   -0.267800
     22          6           0        5.501193   -0.684557   -2.226072
     23          6           0       -1.832407    2.919187   -0.804990
     24          6           0        2.466102   -1.730082    3.227893
     25          6           0        7.234823   -1.929382    0.928398
     26          6           0       -3.090423    2.485836   -1.166221
     27          6           0       -0.952466   -1.851373    2.440984
     28          6           0       -3.096445    1.030979   -0.866309
     29          6           0       -1.387652    4.286920   -0.892732
     30          6           0        8.010293   -0.740206   -2.105889
     31          6           0       -1.787399    5.120035    0.448641
     32          6           0       -4.234092    3.321042   -1.694900
     33          6           0       -4.075651    0.109698   -1.205525
     34          6           0       -2.325991   -1.892300    3.002269
     35          6           0       -4.066661   -1.303791   -1.058361
     36          6           0        9.325145   -0.861878   -1.691291
     37          6           0       -1.091076    6.504598    0.455006
     38          6           0       -5.001484   -2.350628   -1.461763
     39          6           0       -4.443407   -3.527403   -1.173734
     40          6           0       -3.041384   -3.202332   -0.528416
     41          6           0       -6.355430   -2.080174   -1.902177
     42          6           0       -4.782374   -5.050591   -1.363640
     43          6           0       -7.206525   -3.034914   -2.332943
     44          1           0        4.557133   -2.308798    0.326610
     45          1           0        5.114814    0.468341    0.971870
     46          1           0        4.879891   -0.451487    2.100411
     47          1           0        2.854236    1.467611   -0.144668
     48          1           0        3.443139   -1.109823   -1.603167
     49          1           0       -0.375368    0.073999    3.473409
     50          1           0       -1.206315    0.195408    1.912601
     51          1           0        0.663220    2.683784   -0.181216
     52          1           0        3.401960   -1.867463    3.496331
     53          1           0        1.899915   -1.621909    4.104556
     54          1           0        2.312283   -2.782976    2.730765
     55          1           0        6.838918   -2.701668    1.485413
     56          1           0        7.511453   -1.162494    1.473514
     57          1           0        8.167891   -2.395399    0.481704
     58          1           0       -1.020970   -2.468849    1.420744
     59          1           0       -0.394986   -2.548806    3.150722
     60          1           0       -1.855634   -0.353569   -0.243675
     61          1           0       -1.945849    4.621616   -1.668123
     62          1           0       -0.381230    4.640464   -1.194287
     63          1           0        8.020004   -0.389445   -3.179801
     64          1           0       -1.333687    4.537084    1.174523
     65          1           0       -2.841667    5.233322    0.517656
     66          1           0       -3.661021    4.349643   -1.812602
     67          1           0       -5.127911    3.388309   -1.066018
     68          1           0       -4.566798    3.101833   -2.764674
     69          1           0       -4.930000    0.404441   -1.539671
     70          1           0        9.782906   -1.227670   -0.592309
     71          1           0       10.284658   -0.741843   -2.266028
     72          1           0       -3.643626   -3.077570    3.466062
     73          1           0       -6.583106   -1.062411   -2.214442
     74          1           0       -4.903504   -5.366816   -2.421550
     75          1           0       -3.795652   -5.501476   -0.889466
     76          1           0       -5.606881   -5.179562   -0.827357
     77          1           0       -1.148223    8.088078    1.242745
     78          1           0       -8.396010   -2.587112   -2.592065
     79          1           0       -6.859248   -4.091533   -2.461448
 ---------------------------------------------------------------------

 SCF Done:  E(RB3LYP) =  -1947.80432006     A.U. after   16 cycles

 Excitation energies and oscillator strengths:

 Excited State   1:      Singlet-A      2.1484 eV  577.10 nm  f=0.4593  <S**2>=0.000
     153 ->156        -0.10494
     155 ->156         0.69116
 This state for optimization and/or second-order correction.
 Total Energy, E(TD-HF/TD-KS) =  -1947.72536757
 Copying the excited state density for this state as the 1-particle RhoCI density.

 The electronic state is 1-A.
 Alpha  occ. eigenvalues --  -19.21356 -19.15532 -19.15420 -19.12302 -19.10603
 Alpha  occ. eigenvalues --  -19.10438 -14.37199 -14.36317 -14.36170 -14.28308
 Alpha  occ. eigenvalues --  -10.35270 -10.29932 -10.29291 -10.25930 -10.25076
 Alpha  occ. eigenvalues --  -10.25068 -10.24027 -10.23235 -10.22537 -10.22249
 Alpha  occ. eigenvalues --  -10.22221 -10.22040 -10.21914 -10.21778 -10.21649
 Alpha  occ. eigenvalues --  -10.21587 -10.21319 -10.20929 -10.20645 -10.20563
 Alpha  occ. eigenvalues --  -10.20563 -10.19886 -10.19695 -10.19627 -10.19424
 Alpha  occ. eigenvalues --  -10.19242 -10.18939 -10.18804 -10.18778 -10.18775
 Alpha  occ. eigenvalues --  -10.18657 -10.18212 -10.17675  -1.09383  -1.09019
 Alpha  occ. eigenvalues --   -1.06125  -1.02448  -0.98959  -0.98513  -0.98219
 Alpha  occ. eigenvalues --   -0.97799  -0.94188  -0.91781  -0.84421  -0.82171
 Alpha  occ. eigenvalues --   -0.81449  -0.80908  -0.80193  -0.78895  -0.78147
 Alpha  occ. eigenvalues --   -0.76986  -0.76417  -0.75472  -0.73781  -0.72351
 Alpha  occ. eigenvalues --   -0.71838  -0.71416  -0.70033  -0.69694  -0.69093
 Alpha  occ. eigenvalues --   -0.67485  -0.65796  -0.64025  -0.60876  -0.60210
 Alpha  occ. eigenvalues --   -0.59911  -0.59130  -0.58316  -0.57869  -0.57162
 Alpha  occ. eigenvalues --   -0.56847  -0.56454  -0.54716  -0.53416  -0.52967
 Alpha  occ. eigenvalues --   -0.51968  -0.51659  -0.51490  -0.50824  -0.50224
 Alpha  occ. eigenvalues --   -0.50154  -0.48810  -0.47907  -0.47617  -0.47517
 Alpha  occ. eigenvalues --   -0.46764  -0.46621  -0.46496  -0.46184  -0.45649
 Alpha  occ. eigenvalues --   -0.45247  -0.44944  -0.44555  -0.44206  -0.43932
 Alpha  occ. eigenvalues --   -0.43890  -0.43674  -0.43312  -0.42724  -0.42539
 Alpha  occ. eigenvalues --   -0.42330  -0.41884  -0.41626  -0.41365  -0.41163
 Alpha  occ. eigenvalues --   -0.40974  -0.40832  -0.40602  -0.40364  -0.40124
 Alpha  occ. eigenvalues --   -0.39686  -0.39489  -0.39207  -0.38912  -0.38607
 Alpha  occ. eigenvalues --   -0.38530  -0.37676  -0.37280  -0.36722  -0.36144
 Alpha  occ. eigenvalues --   -0.35880  -0.35665  -0.35565  -0.35122  -0.34537
 Alpha  occ. eigenvalues --   -0.34016  -0.33319  -0.33078  -0.32821  -0.32462
 Alpha  occ. eigenvalues --   -0.31162  -0.30421  -0.29865  -0.28748  -0.28204
 Alpha  occ. eigenvalues --   -0.27595  -0.26736  -0.26643  -0.26195  -0.24378
 Alpha  occ. eigenvalues --   -0.24239  -0.23822  -0.23223  -0.21907  -0.19013
 Alpha virt. eigenvalues --   -0.10443  -0.06229  -0.05598  -0.04388  -0.00957
 Alpha virt. eigenvalues --   -0.00205   0.01819   0.02152   0.02637   0.03561
 Alpha virt. eigenvalues --    0.04244   0.04676   0.05015   0.05145   0.05359

 Mulliken charges:
               1
     1  O   -0.138262
     2  O   -0.130592
     3  O   -0.250553
     4  O   -0.187339
     5  O   -0.305686
     6  O   -0.191657
     7  N   -0.036710
     8  N   -0.247873
     9  N   -0.037100
    10  N   -0.301585
    11  C    0.006089
    12  C    0.271291
    13  C   -0.056107
    14  C   -0.149069
    15  C   -0.137667
    16  C    0.016682
    17  C   -0.181469
    18  C    0.136380
    19  C   -0.026051
    20  C   -0.040650
    21  C    0.170989
    22  C    0.140807
    23  C   -0.062663
    24  C    0.160160
    25  C    0.197090
    26  C   -0.104256
    27  C   -0.032338
    28  C    0.109643
    29  C    0.061331
    30  C   -0.002414
    31  C    0.080550
    32  C    0.059738
    33  C   -0.010318
    34  C    0.102828
    35  C    0.066225
    36  C   -0.135358
    37  C    0.188366
    38  C    0.064406
    39  C   -0.258753
    40  C    0.145937
    41  C   -0.014214
    42  C    0.105381
    43  C   -0.088075
    44  H    0.032779
    45  H   -0.064018
    46  H   -0.061407
    47  H    0.108614
    48  H    0.179015
    49  H    0.023197
    50  H    0.002088
    51  H   -0.069364
    52  H   -0.053353
    53  H    0.011824
    54  H    0.020064
    55  H   -0.002092
    56  H   -0.006344
    57  H    0.030074
    58  H    0.106038
    59  H    0.030671
    60  H    0.098958
    61  H   -0.022553
    62  H    0.039770
    63  H    0.034473
    64  H    0.036005
    65  H    0.032716
    66  H    0.014494
    67  H    0.048365
    68  H    0.042049
    69  H   -0.135588
    70  H    0.027486
    71  H    0.039716
    72  H    0.129050
    73  H    0.002021
    74  H    0.044489
    75  H    0.058163
    76  H   -0.000539
    77  H    0.183121
    78  H    0.052928
    79  H    0.029953
 Sum of Mulliken charges =   0.00000

 Dipole moment (field-independent basis, Debye):
    X=              1.0142    Y=              3.0927    Z=              2.0629  Tot=              3.8535
 Quadrupole moment (field-independent basis, Debye-Ang):
   XX=           -221.5055   YY=           -242.1993   ZZ=           -259.9568
   XY=            -19.5612   XZ=             29.9975   YZ=             -1.9461

 Normal termination of Gaussian 09 at Tue Jul  9 02:14:02 2019.
