 Gaussian 09, Revision D.01,
 Gaussian 09:  ES64L-G09RevD.01 24-Apr-2013

 --------------------------
 # td=(NStates=1) B3LYP/SVP
 --------------------------

 --
 TD
 --
 Symbolic Z-matrix:
 Charge =  0 Multiplicity = 1

                         Standard orientation:
 ---------------------------------------------------------------------
 Center     Atomic      Atomic             Coordinates (Angstroms)
 Number     Number       Type             X           Y           Z
 ---------------------------------------------------------------------
      1          8           0        5.284696   -0.231093   -3.331154
      2          8           0       -2.747822   -3.100195    3.421095
      3          8           0       -3.152086   -0.803149    3.412050
      4          8           0       -1.749234    7.075041    1.541728
      5          8           0       -1.091163    7.101800   -0.744304
      6          8           0       -1.849409   -4.129228    0.120010
      7          7           0        2.261923    1.118448    0.616950
      8          7           0        4.442182   -0.528697   -1.206723
      9          7           0       -1.852512    0.620264   -0.400741
     10          7           0       -2.599358   -1.925110   -0.379767
     11          6           0        4.864880   -0.987101    0.109472
     12          6           0        4.442527   -0.078647    1.227811
     13          6           0        2.957544    0.166625    1.334134
     14          6           0        1.978141   -0.551304    2.094074
     15          6           0        0.705544    0.053220    1.833168
     16          6           0        0.860938    0.913232    0.750172
     17          6           0        6.440558   -1.042398   -0.111623
     18          6           0       -0.478942   -0.231348    2.528575
     19          6           0        6.663409   -0.878392   -1.442604
     20          6           0        0.119754    1.957500    0.121233
     21          6           0       -1.153417    1.787633   -0.264227
     22          6           0        5.422975   -0.544001   -2.111266
     23          6           0       -1.958221    2.870326   -0.870514
     24          6           0        2.202197   -1.534596    3.147243
     25          6           0        7.256509   -1.660398    0.977648
     26          6           0       -3.127327    2.252295   -1.213181
     27          6           0       -0.972238   -1.715845    2.698430
     28          6           0       -3.044322    0.877030   -0.965025
     29          6           0       -1.705843    4.320500   -0.974964
     30          6           0        7.869924   -0.827662   -2.229717
     31          6           0       -1.900892    4.990954    0.320856
     32          6           0       -4.293817    2.850372   -1.929110
     33          6           0       -3.990906   -0.163618   -1.438403
     34          6           0       -2.422354   -1.694874    3.155086
     35          6           0       -3.690319   -1.559811   -1.063496
     36          6           0        9.215096   -0.818556   -1.760208
     37          6           0       -1.490467    6.457088    0.304856
     38          6           0       -4.568868   -2.639551   -1.448760
     39          6           0       -3.960931   -3.785670   -1.150220
     40          6           0       -2.671020   -3.346579   -0.469083
     41          6           0       -5.853751   -2.444543   -2.192375
     42          6           0       -4.273231   -5.252250   -1.315429
     43          6           0       -6.586639   -3.461469   -2.650386
     44          1           0        4.531836   -1.925452    0.225343
     45          1           0        4.935742    0.894612    1.235910
     46          1           0        4.796686   -0.353453    2.207574
     47          1           0        3.007288    1.772805    0.065373
     48          1           0        3.348835   -0.639780   -1.553963
     49          1           0       -0.302229    0.199625    3.560929
     50          1           0       -1.275878    0.298854    2.021948
     51          1           0        0.479062    2.916737   -0.112859
     52          1           0        3.345972   -1.635685    3.434227
     53          1           0        1.617382   -1.587636    4.236768
     54          1           0        2.141695   -2.597584    2.927594
     55          1           0        6.754566   -2.338284    1.461233
     56          1           0        7.817115   -0.981597    1.658648
     57          1           0        8.160392   -2.277353    0.714326
     58          1           0       -0.904948   -2.117966    1.694719
     59          1           0       -0.393821   -2.316667    3.492485
     60          1           0       -1.574159   -0.488523   -0.303532
     61          1           0       -2.231776    4.787976   -1.868286
     62          1           0       -0.653696    4.558017   -1.514076
     63          1           0        7.703528   -0.728030   -3.197530
     64          1           0       -1.180162    4.548851    1.042158
     65          1           0       -2.872269    4.848459    0.728128
     66          1           0       -4.219373    3.922669   -1.953347
     67          1           0       -5.178294    2.909203   -1.259107
     68          1           0       -4.522087    2.534828   -3.043520
     69          1           0       -4.981369    0.221482   -1.873765
     70          1           0        9.323522   -0.847644   -0.674580
     71          1           0       10.004867   -0.794478   -2.312559
     72          1           0       -3.601897   -2.933332    3.911041
     73          1           0       -6.121331   -1.235414   -2.329559
     74          1           0       -4.325787   -5.399125   -2.466118
     75          1           0       -3.543982   -5.912647   -0.778664
     76          1           0       -5.423498   -5.515861   -0.961933
     77          1           0       -1.433268    7.976123    1.721085
     78          1           0       -7.367212   -3.380250   -3.275242
     79          1           0       -6.325916   -4.352181   -2.637285
 ---------------------------------------------------------------------

 SCF Done:  E(RB3LYP) =  -1947.81030714     A.U. after   18 cycles

 Excitation energies and oscillator strengths:

 Excited State   1:      Singlet-A      2.2164 eV  559.39 nm  f=0.4881  <S**2>=0.000
     155 ->156         0.70229
     155 <-156        -0.10988
 This state for optimization and/or second-order correction.
 Total Energy, E(TD-HF/TD-KS) =  -1947.72885552
 Copying the excited state density for this state as the 1-particle RhoCI density.

 The electronic state is 1-A.
 Alpha  occ. eigenvalues --  -19.19138 -19.14977 -19.14073 -19.13572 -19.09961
 Alpha  occ. eigenvalues --  -19.09054 -14.39207 -14.36664 -14.36623 -14.30062
 Alpha  occ. eigenvalues --  -10.34565 -10.31049 -10.27939 -10.26742 -10.24948
 Alpha  occ. eigenvalues --  -10.24280 -10.23782 -10.23681 -10.23537 -10.23483
 Alpha  occ. eigenvalues --  -10.23074 -10.22396 -10.22136 -10.22074 -10.21502
 Alpha  occ. eigenvalues --  -10.21381 -10.21213 -10.21079 -10.20751 -10.20624
 Alpha  occ. eigenvalues --  -10.20614 -10.20254 -10.20246 -10.20000 -10.19831
 Alpha  occ. eigenvalues --  -10.19737 -10.19648 -10.19580 -10.19478 -10.19454
 Alpha  occ. eigenvalues --  -10.19342 -10.18782 -10.16896  -1.07380  -1.06975
 Alpha  occ. eigenvalues --   -1.00929  -0.99201  -0.98439  -0.98252  -0.98189
 Alpha  occ. eigenvalues --   -0.97547  -0.93632  -0.91786  -0.84003  -0.83028
 Alpha  occ. eigenvalues --   -0.82343  -0.81833  -0.80648  -0.80320  -0.78985
 Alpha  occ. eigenvalues --   -0.76985  -0.75975  -0.75685  -0.74609  -0.72628
 Alpha  occ. eigenvalues --   -0.72337  -0.71531  -0.69852  -0.69090  -0.68950
 Alpha  occ. eigenvalues --   -0.66992  -0.66641  -0.63992  -0.63047  -0.61694
 Alpha  occ. eigenvalues --   -0.60668  -0.58697  -0.58460  -0.57501  -0.56422
 Alpha  occ. eigenvalues --   -0.56165  -0.55355  -0.54639  -0.54141  -0.52934
 Alpha  occ. eigenvalues --   -0.52322  -0.52227  -0.51604  -0.51210  -0.49762
 Alpha  occ. eigenvalues --   -0.49203  -0.48824  -0.48566  -0.47896  -0.47666
 Alpha  occ. eigenvalues --   -0.47249  -0.47149  -0.46568  -0.46358  -0.45610
 Alpha  occ. eigenvalues --   -0.45392  -0.45295  -0.44717  -0.44494  -0.43880
 Alpha  occ. eigenvalues --   -0.43469  -0.43076  -0.42672  -0.42635  -0.42453
 Alpha  occ. eigenvalues --   -0.42255  -0.41880  -0.41618  -0.41501  -0.41090
 Alpha  occ. eigenvalues --   -0.40399  -0.40366  -0.40196  -0.39792  -0.39624
 Alpha  occ. eigenvalues --   -0.39414  -0.39231  -0.38873  -0.38550  -0.38511
 Alpha  occ. eigenvalues --   -0.38247  -0.37917  -0.37645  -0.37341  -0.37072
 Alpha  occ. eigenvalues --   -0.36624  -0.35614  -0.35441  -0.35018  -0.33876
 Alpha  occ. eigenvalues --   -0.33680  -0.33183  -0.33021  -0.32329  -0.31667
 Alpha  occ. eigenvalues --   -0.31097  -0.30525  -0.29027  -0.28821  -0.28478
 Alpha  occ. eigenvalues --   -0.28068  -0.26430  -0.26260  -0.24979  -0.24369
 Alpha  occ. eigenvalues --   -0.23987  -0.23905  -0.23506  -0.22819  -0.19186
 Alpha virt. eigenvalues --   -0.10544  -0.07324  -0.06099  -0.03287  -0.00519
 Alpha virt. eigenvalues --   -0.00221   0.00150   0.00856   0.01769   0.02788
 Alpha virt. eigenvalues --    0.03057   0.03337   0.04039   0.04135   0.05034

 Mulliken charges:
               1
     1  O   -0.281502
     2  O   -0.271893
     3  O   -0.181738
     4  O   -0.237758
     5  O   -0.281484
     6  O   -0.258917
     7  N   -0.172386
     8  N   -0.227931
     9  N   -0.114459
    10  N   -0.305948
    11  C    0.158072
    12  C    0.229571
    13  C   -0.121573
    14  C   -0.055898
    15  C   -0.070956
    16  C    0.113980
    17  C   -0.161452
    18  C    0.084689
    19  C   -0.009830
    20  C   -0.076987
    21  C    0.077238
    22  C    0.139835
    23  C   -0.048580
    24  C   -0.009882
    25  C    0.126123
    26  C   -0.142007
    27  C   -0.000426
    28  C    0.070660
    29  C   -0.006643
    30  C    0.023192
    31  C    0.077971
    32  C    0.101493
    33  C   -0.144066
    34  C    0.164769
    35  C    0.111235
    36  C    0.064565
    37  C    0.201789
    38  C    0.025705
    39  C   -0.186037
    40  C    0.174989
    41  C   -0.035119
    42  C    0.021100
    43  C    0.131194
    44  H   -0.012463
    45  H   -0.024625
    46  H   -0.008732
    47  H    0.179240
    48  H    0.187319
    49  H    0.016424
    50  H    0.004959
    51  H   -0.034356
    52  H   -0.009875
    53  H    0.044694
    54  H    0.015173
    55  H   -0.024310
    56  H    0.031444
    57  H    0.017199
    58  H    0.065679
    59  H    0.051160
    60  H    0.217015
    61  H    0.032406
    62  H    0.036058
    63  H   -0.050598
    64  H    0.038742
    65  H    0.038058
    66  H   -0.024071
    67  H    0.013823
    68  H    0.061805
    69  H    0.020365
    70  H    0.007454
    71  H   -0.020129
    72  H    0.169635
    73  H    0.027601
    74  H    0.050444
    75  H    0.053740
    76  H    0.049637
    77  H    0.197818
    78  H   -0.016853
    79  H   -0.096580
 Sum of Mulliken charges =   0.00000

 Dipole moment (field-independent basis, Debye):
    X=              1.9204    Y=              3.2606    Z=              4.0625  Tot=              5.5518
 Quadrupole moment (field-independent basis, Debye-Ang):
   XX=           -219.8383   YY=           -250.6420   ZZ=           -262.6812
   XY=             -9.7419   XZ=             36.7221   YZ=             13.2684

 Normal termination of Gaussian 09 at Tue Jul  9 17:25:47 2019.
