 Gaussian 09, Revision D.01,
 Gaussian 09:  ES64L-G09RevD.01 24-Apr-2013

 --------------------------
 # td=(NStates=1) B3LYP/SVP
 --------------------------

 --
 TD
 --
 Symbolic Z-matrix:
 Charge =  0 Multiplicity = 1

                         Standard orientation:
 ---------------------------------------------------------------------
 Center     Atomic      Atomic             Coordinates (Angstroms)
 Number     Number       Type             X           Y           Z
 ---------------------------------------------------------------------
      1          8           0        5.458728   -0.459447   -3.395845
      2          8           0       -3.029908   -2.849053    3.373882
      3          8           0       -3.369158   -0.680220    3.073115
      4          8           0       -1.482884    7.183303    1.429525
      5          8           0       -0.348122    6.962323   -0.436932
      6          8           0       -1.873354   -4.032941   -0.035107
      7          7           0        2.331939    0.922111    0.598380
      8          7           0        4.545243   -0.617361   -1.291726
      9          7           0       -1.841697    0.687681   -0.463221
     10          7           0       -2.699160   -1.891516   -0.475857
     11          6           0        4.809869   -1.187414    0.013957
     12          6           0        4.374770   -0.361919    1.212542
     13          6           0        2.881931   -0.019716    1.336023
     14          6           0        1.985226   -0.661322    2.090295
     15          6           0        0.655174   -0.040872    1.804041
     16          6           0        0.989716    0.909817    0.815010
     17          6           0        6.413947   -1.317769   -0.146706
     18          6           0       -0.704635   -0.197327    2.471753
     19          6           0        6.814302   -0.937433   -1.376469
     20          6           0        0.159729    1.911106    0.188529
     21          6           0       -1.118230    1.862783   -0.339445
     22          6           0        5.547636   -0.573458   -2.211202
     23          6           0       -1.939868    2.914230   -0.883811
     24          6           0        2.151236   -1.549688    3.207476
     25          6           0        7.214795   -1.885015    1.022571
     26          6           0       -3.091795    2.355159   -1.337346
     27          6           0       -1.127111   -1.684602    2.613038
     28          6           0       -2.963464    0.938171   -1.010769
     29          6           0       -1.585150    4.399505   -1.043392
     30          6           0        8.193676   -1.008165   -2.026978
     31          6           0       -1.685242    5.088408    0.333777
     32          6           0       -4.275572    2.983391   -1.938136
     33          6           0       -4.045220   -0.051226   -1.312979
     34          6           0       -2.648718   -1.662593    3.077064
     35          6           0       -3.796004   -1.485286   -1.103213
     36          6           0        9.381536   -0.874951   -1.341975
     37          6           0       -1.066438    6.465200    0.346602
     38          6           0       -4.756827   -2.639995   -1.405809
     39          6           0       -4.100544   -3.696078   -0.991860
     40          6           0       -2.837063   -3.322152   -0.441394
     41          6           0       -6.075300   -2.367711   -1.921619
     42          6           0       -4.615733   -5.115784   -0.992680
     43          6           0       -6.835396   -3.109076   -2.954237
     44          1           0        4.253383   -2.338900   -0.144648
     45          1           0        4.904017    0.531039    1.085265
     46          1           0        4.600226   -0.920828    2.208704
     47          1           0        2.736166    1.521615   -0.071423
     48          1           0        3.592913   -0.932349   -1.673908
     49          1           0       -0.705488    0.012741    3.477994
     50          1           0       -1.364371    0.548456    2.021942
     51          1           0        0.602582    2.958139   -0.079510
     52          1           0        3.311588   -1.736949    3.474085
     53          1           0        1.455770   -1.402246    4.034544
     54          1           0        1.984939   -2.648850    3.028371
     55          1           0        6.713596   -2.442020    1.771900
     56          1           0        7.470283   -0.997689    1.628287
     57          1           0        8.157884   -2.336698    0.559299
     58          1           0       -1.267505   -2.200415    1.587037
     59          1           0       -0.795544   -2.341339    3.260318
     60          1           0       -1.543996   -0.323335   -0.391589
     61          1           0       -2.200244    4.952402   -1.846227
     62          1           0       -0.560570    4.568004   -1.305266
     63          1           0        7.956598   -1.087093   -3.112281
     64          1           0       -0.958459    4.558974    1.080005
     65          1           0       -2.656922    5.012438    0.853267
     66          1           0       -3.990122    4.062691   -2.165711
     67          1           0       -5.116610    3.103711   -1.179027
     68          1           0       -4.732955    2.618118   -2.825165
     69          1           0       -4.897789    0.442032   -1.716315
     70          1           0        9.393172   -0.433926   -0.307509
     71          1           0       10.345186   -0.874081   -2.075514
     72          1           0       -3.988435   -2.849393    3.740701
     73          1           0       -6.571579   -1.293062   -1.532290
     74          1           0       -4.202276   -5.567453   -1.956413
     75          1           0       -4.160270   -5.596339   -0.101610
     76          1           0       -5.757062   -5.166391   -1.073421
     77          1           0       -0.981100    8.088972    1.489642
     78          1           0       -7.866782   -2.686723   -3.360438
     79          1           0       -6.188302   -3.970706   -3.541164
 ---------------------------------------------------------------------

 SCF Done:  E(RB3LYP) =  -1947.87560745     A.U. after   17 cycles

 Excitation energies and oscillator strengths:

 Excited State   1:      Singlet-A      2.0984 eV  590.85 nm  f=0.4189  <S**2>=0.000
     155 ->156         0.69503
     155 <-156        -0.10644
 This state for optimization and/or second-order correction.
 Total Energy, E(TD-HF/TD-KS) =  -1947.79849227
 Copying the excited state density for this state as the 1-particle RhoCI density.

 The electronic state is 1-A.
 Alpha  occ. eigenvalues --  -19.18296 -19.17779 -19.13295 -19.10990 -19.10200
 Alpha  occ. eigenvalues --  -19.09929 -14.38295 -14.36955 -14.35618 -14.28895
 Alpha  occ. eigenvalues --  -10.32251 -10.29904 -10.29020 -10.26629 -10.26178
 Alpha  occ. eigenvalues --  -10.24476 -10.24205 -10.23282 -10.23267 -10.23220
 Alpha  occ. eigenvalues --  -10.22918 -10.22789 -10.22525 -10.22408 -10.22299
 Alpha  occ. eigenvalues --  -10.22208 -10.21973 -10.21573 -10.21504 -10.21496
 Alpha  occ. eigenvalues --  -10.20740 -10.20690 -10.20617 -10.20418 -10.20030
 Alpha  occ. eigenvalues --  -10.19958 -10.19703 -10.19247 -10.19125 -10.18957
 Alpha  occ. eigenvalues --  -10.18822 -10.18450 -10.18136  -1.10200  -1.10057
 Alpha  occ. eigenvalues --   -1.04211  -1.01138  -1.00798  -1.00740  -0.98988
 Alpha  occ. eigenvalues --   -0.98572  -0.94424  -0.91418  -0.83575  -0.81778
 Alpha  occ. eigenvalues --   -0.81565  -0.80948  -0.80263  -0.79411  -0.78305
 Alpha  occ. eigenvalues --   -0.76886  -0.75527  -0.74716  -0.73737  -0.71598
 Alpha  occ. eigenvalues --   -0.71414  -0.70771  -0.69783  -0.68691  -0.68094
 Alpha  occ. eigenvalues --   -0.67698  -0.65650  -0.63686  -0.60947  -0.60272
 Alpha  occ. eigenvalues --   -0.59825  -0.59589  -0.57883  -0.57868  -0.57263
 Alpha  occ. eigenvalues --   -0.56996  -0.56571  -0.56009  -0.54327  -0.52909
 Alpha  occ. eigenvalues --   -0.51773  -0.51167  -0.50363  -0.50080  -0.49329
 Alpha  occ. eigenvalues --   -0.48432  -0.48095  -0.47757  -0.47399  -0.47341
 Alpha  occ. eigenvalues --   -0.46885  -0.46672  -0.46067  -0.45728  -0.45544
 Alpha  occ. eigenvalues --   -0.45184  -0.44703  -0.44490  -0.43645  -0.43591
 Alpha  occ. eigenvalues --   -0.43416  -0.43232  -0.42927  -0.42777  -0.42411
 Alpha  occ. eigenvalues --   -0.41920  -0.41742  -0.41535  -0.41352  -0.41322
 Alpha  occ. eigenvalues --   -0.41051  -0.40760  -0.40231  -0.40082  -0.39837
 Alpha  occ. eigenvalues --   -0.39552  -0.39386  -0.39028  -0.38916  -0.38693
 Alpha  occ. eigenvalues --   -0.38446  -0.37871  -0.37442  -0.36944  -0.36818
 Alpha  occ. eigenvalues --   -0.35779  -0.35520  -0.35043  -0.34595  -0.34253
 Alpha  occ. eigenvalues --   -0.33468  -0.32824  -0.32520  -0.32248  -0.31119
 Alpha  occ. eigenvalues --   -0.30751  -0.30605  -0.29069  -0.28455  -0.27113
 Alpha  occ. eigenvalues --   -0.27018  -0.26752  -0.26059  -0.25754  -0.24541
 Alpha  occ. eigenvalues --   -0.24163  -0.23851  -0.23561  -0.22543  -0.18717
 Alpha virt. eigenvalues --   -0.10298  -0.06799  -0.05179  -0.02256  -0.00046
 Alpha virt. eigenvalues --    0.00509   0.01837   0.02560   0.03071   0.03369
 Alpha virt. eigenvalues --    0.03649   0.03696   0.03941   0.04281   0.04491

 Mulliken charges:
               1
     1  O   -0.191168
     2  O   -0.147659
     3  O   -0.255187
     4  O   -0.245131
     5  O   -0.183162
     6  O   -0.245567
     7  N    0.034146
     8  N   -0.203655
     9  N    0.026799
    10  N   -0.295047
    11  C   -0.000712
    12  C    0.268857
    13  C   -0.137072
    14  C   -0.095280
    15  C   -0.076192
    16  C    0.023663
    17  C   -0.198696
    18  C    0.178624
    19  C   -0.123030
    20  C   -0.117263
    21  C    0.032689
    22  C    0.141267
    23  C   -0.048896
    24  C    0.057756
    25  C    0.102338
    26  C   -0.130405
    27  C   -0.009119
    28  C   -0.035600
    29  C    0.115781
    30  C    0.010979
    31  C   -0.055603
    32  C    0.090158
    33  C   -0.054298
    34  C    0.075496
    35  C    0.080412
    36  C   -0.073620
    37  C    0.119369
    38  C    0.086815
    39  C   -0.193585
    40  C    0.160177
    41  C   -0.115643
    42  C    0.075518
    43  C   -0.104914
    44  H    0.051093
    45  H   -0.037062
    46  H    0.017011
    47  H    0.100297
    48  H    0.145372
    49  H   -0.025132
    50  H    0.019526
    51  H    0.003353
    52  H    0.001526
    53  H    0.020477
    54  H    0.015461
    55  H    0.004765
    56  H    0.022733
    57  H    0.055094
    58  H    0.092858
    59  H   -0.026250
    60  H    0.170897
    61  H    0.041442
    62  H    0.004370
    63  H    0.032730
    64  H    0.056285
    65  H    0.042858
    66  H    0.003457
    67  H    0.038032
    68  H    0.027734
    69  H   -0.051994
    70  H    0.052884
    71  H    0.059927
    72  H    0.203107
    73  H    0.059139
    74  H    0.037627
    75  H    0.037691
    76  H    0.031288
    77  H    0.210616
    78  H    0.066669
    79  H    0.069779
 Sum of Mulliken charges =   0.00000

 Dipole moment (field-independent basis, Debye):
    X=             -0.2242    Y=              2.9428    Z=              3.2288  Tot=              4.3744
 Quadrupole moment (field-independent basis, Debye-Ang):
   XX=           -226.6190   YY=           -250.4079   ZZ=           -256.7585
   XY=             -4.0870   XZ=             30.0300   YZ=             -0.2978

 Normal termination of Gaussian 09 at Mon Jul  8 17:27:12 2019.
