 Gaussian 09, Revision D.01,
 Gaussian 09:  ES64L-G09RevD.01 24-Apr-2013

 --------------------------
 # td=(NStates=1) B3LYP/SVP
 --------------------------

 --
 TD
 --
 Symbolic Z-matrix:
 Charge =  0 Multiplicity = 1

                         Standard orientation:
 ---------------------------------------------------------------------
 Center     Atomic      Atomic             Coordinates (Angstroms)
 Number     Number       Type             X           Y           Z
 ---------------------------------------------------------------------
      1          8           0        5.371566    0.020704   -3.301093
      2          8           0       -2.990122   -3.263779    3.033064
      3          8           0       -3.200096   -1.007214    3.237668
      4          8           0       -1.655763    7.145282    1.807100
      5          8           0       -0.825995    7.207513   -0.355036
      6          8           0       -1.966620   -3.961387   -0.089116
      7          7           0        2.385186    0.834272    0.707200
      8          7           0        4.432885   -0.638670   -1.264461
      9          7           0       -1.846390    0.684155   -0.413762
     10          7           0       -2.639160   -1.778048   -0.560130
     11          6           0        4.818671   -1.304666    0.026579
     12          6           0        4.386599   -0.458328    1.329505
     13          6           0        3.004326   -0.232042    1.381699
     14          6           0        1.885635   -0.865232    2.089467
     15          6           0        0.733039   -0.241307    1.799442
     16          6           0        0.994091    0.778846    0.884292
     17          6           0        6.400543   -1.378999   -0.145648
     18          6           0       -0.668229   -0.562489    2.389369
     19          6           0        6.778586   -0.688719   -1.323811
     20          6           0        0.235029    1.790820    0.109305
     21          6           0       -1.100673    1.820200   -0.352250
     22          6           0        5.509281   -0.322124   -2.113627
     23          6           0       -1.843795    2.924951   -0.774818
     24          6           0        2.081863   -1.915048    3.166952
     25          6           0        7.321774   -1.929022    0.830775
     26          6           0       -3.053141    2.430273   -1.224107
     27          6           0       -1.142069   -1.979010    2.359876
     28          6           0       -3.040685    1.025360   -1.068808
     29          6           0       -1.381972    4.364720   -0.686672
     30          6           0        7.990081   -0.516997   -2.099301
     31          6           0       -1.808422    5.105068    0.561159
     32          6           0       -4.137282    3.317131   -1.865627
     33          6           0       -4.025393    0.062441   -1.266483
     34          6           0       -2.577656   -2.029723    2.869111
     35          6           0       -3.693858   -1.274441   -1.100540
     36          6           0        9.295968   -0.494961   -1.552363
     37          6           0       -1.361927    6.599138    0.559260
     38          6           0       -4.665519   -2.452924   -1.492665
     39          6           0       -4.047155   -3.577779   -1.170108
     40          6           0       -2.767285   -3.186341   -0.630563
     41          6           0       -5.926402   -2.226708   -2.150259
     42          6           0       -4.347190   -4.989866   -1.347604
     43          6           0       -6.782085   -3.186002   -2.657515
     44          1           0        4.245122   -2.263492   -0.102281
     45          1           0        4.864912    0.594566    1.528680
     46          1           0        4.693550   -1.221496    2.076291
     47          1           0        2.918341    1.311249   -0.086733
     48          1           0        3.418063   -0.680917   -1.592730
     49          1           0       -0.610529   -0.110531    3.536092
     50          1           0       -1.606467    0.095830    1.919579
     51          1           0        0.776381    2.849524   -0.099982
     52          1           0        3.087767   -2.141063    3.536043
     53          1           0        1.536096   -1.689841    4.123012
     54          1           0        1.505419   -3.037489    2.632382
     55          1           0        6.873583   -2.635527    1.545568
     56          1           0        7.752604   -1.200067    1.588611
     57          1           0        8.170923   -2.488722    0.345324
     58          1           0       -1.249629   -2.270174    1.412925
     59          1           0       -0.490881   -2.741507    3.068991
     60          1           0       -1.542831   -0.199292   -0.380663
     61          1           0       -1.867160    4.594390   -1.703034
     62          1           0       -0.393504    4.432543   -1.072014
     63          1           0        7.708271   -0.293791   -3.124845
     64          1           0       -1.406308    4.718434    1.509213
     65          1           0       -2.819038    5.251962    0.695068
     66          1           0       -4.144291    4.419942   -2.001066
     67          1           0       -5.100740    3.038534   -1.500289
     68          1           0       -4.315391    2.615776   -2.736697
     69          1           0       -4.864623    0.254194   -1.750554
     70          1           0        9.287558   -0.439569   -0.502609
     71          1           0       10.127697   -0.329260   -2.204856
     72          1           0       -3.991032   -3.294385    3.521556
     73          1           0       -6.057771   -1.094729   -2.360048
     74          1           0       -4.465308   -5.298737   -2.458457
     75          1           0       -3.819051   -5.754874   -0.508539
     76          1           0       -5.510728   -5.230516   -1.182305
     77          1           0       -1.018183    7.932476    1.974067
     78          1           0       -7.741227   -2.848879   -3.040431
     79          1           0       -6.531482   -4.122802   -2.552039
 ---------------------------------------------------------------------

 SCF Done:  E(RB3LYP) =  -1947.81612869     A.U. after   18 cycles

 Excitation energies and oscillator strengths:

 Excited State   1:      Singlet-A      2.0596 eV  601.98 nm  f=0.5605  <S**2>=0.000
     155 ->156         0.70368
     155 <-156        -0.12330
 This state for optimization and/or second-order correction.
 Total Energy, E(TD-HF/TD-KS) =  -1947.74043998
 Copying the excited state density for this state as the 1-particle RhoCI density.

 The electronic state is 1-A.
 Alpha  occ. eigenvalues --  -19.18753 -19.18215 -19.14085 -19.10589 -19.10029
 Alpha  occ. eigenvalues --  -19.09789 -14.38910 -14.35897 -14.35285 -14.28628
 Alpha  occ. eigenvalues --  -10.33188 -10.30038 -10.29240 -10.26980 -10.25771
 Alpha  occ. eigenvalues --  -10.24416 -10.23693 -10.23679 -10.23458 -10.23197
 Alpha  occ. eigenvalues --  -10.23167 -10.23147 -10.22488 -10.21765 -10.21718
 Alpha  occ. eigenvalues --  -10.21577 -10.21497 -10.21217 -10.21086 -10.20935
 Alpha  occ. eigenvalues --  -10.20863 -10.20860 -10.20766 -10.20406 -10.20271
 Alpha  occ. eigenvalues --  -10.20214 -10.19644 -10.19371 -10.19277 -10.18906
 Alpha  occ. eigenvalues --  -10.18380 -10.17965 -10.17674  -1.08126  -1.07208
 Alpha  occ. eigenvalues --   -1.01168  -1.00432  -1.00393  -0.98958  -0.97663
 Alpha  occ. eigenvalues --   -0.96665  -0.92419  -0.92085  -0.83453  -0.81703
 Alpha  occ. eigenvalues --   -0.81653  -0.81129  -0.80855  -0.80234  -0.78380
 Alpha  occ. eigenvalues --   -0.76822  -0.75930  -0.75834  -0.74443  -0.72968
 Alpha  occ. eigenvalues --   -0.71026  -0.70782  -0.69895  -0.68989  -0.68249
 Alpha  occ. eigenvalues --   -0.66242  -0.65201  -0.63699  -0.61819  -0.60826
 Alpha  occ. eigenvalues --   -0.59937  -0.58742  -0.58235  -0.57784  -0.57551
 Alpha  occ. eigenvalues --   -0.56269  -0.55830  -0.54750  -0.53329  -0.53105
 Alpha  occ. eigenvalues --   -0.51964  -0.51045  -0.50189  -0.49921  -0.49548
 Alpha  occ. eigenvalues --   -0.48518  -0.48265  -0.48121  -0.47681  -0.47345
 Alpha  occ. eigenvalues --   -0.47183  -0.46657  -0.46599  -0.45904  -0.45700
 Alpha  occ. eigenvalues --   -0.45305  -0.45138  -0.45037  -0.44008  -0.43642
 Alpha  occ. eigenvalues --   -0.43536  -0.43209  -0.43023  -0.42722  -0.42459
 Alpha  occ. eigenvalues --   -0.42123  -0.41984  -0.41802  -0.41539  -0.41073
 Alpha  occ. eigenvalues --   -0.40349  -0.40085  -0.39943  -0.39803  -0.39370
 Alpha  occ. eigenvalues --   -0.39283  -0.39160  -0.38814  -0.38521  -0.37830
 Alpha  occ. eigenvalues --   -0.37758  -0.37615  -0.37312  -0.36974  -0.36720
 Alpha  occ. eigenvalues --   -0.36370  -0.35618  -0.35386  -0.34145  -0.34017
 Alpha  occ. eigenvalues --   -0.33677  -0.33012  -0.32981  -0.31377  -0.31303
 Alpha  occ. eigenvalues --   -0.30764  -0.29720  -0.28861  -0.28243  -0.26709
 Alpha  occ. eigenvalues --   -0.26347  -0.25909  -0.25775  -0.25481  -0.25323
 Alpha  occ. eigenvalues --   -0.23932  -0.23874  -0.23456  -0.22508  -0.18469
 Alpha virt. eigenvalues --   -0.10616  -0.07391  -0.06468  -0.01104  -0.00947
 Alpha virt. eigenvalues --   -0.00101   0.00316   0.01259   0.02362   0.02994
 Alpha virt. eigenvalues --    0.03175   0.03446   0.03997   0.04272   0.04860

 Mulliken charges:
               1
     1  O   -0.250904
     2  O   -0.212799
     3  O   -0.286935
     4  O   -0.257304
     5  O   -0.215318
     6  O   -0.225621
     7  N   -0.139643
     8  N   -0.282316
     9  N   -0.010293
    10  N   -0.254676
    11  C    0.095387
    12  C    0.165368
    13  C   -0.079722
    14  C   -0.081369
    15  C   -0.017972
    16  C    0.079800
    17  C   -0.139790
    18  C   -0.065331
    19  C   -0.076489
    20  C   -0.108931
    21  C    0.049253
    22  C    0.186985
    23  C   -0.133123
    24  C   -0.027136
    25  C    0.040159
    26  C   -0.142433
    27  C    0.076331
    28  C    0.114241
    29  C    0.107127
    30  C   -0.036398
    31  C    0.113982
    32  C    0.140392
    33  C   -0.026433
    34  C    0.133201
    35  C    0.057646
    36  C    0.020364
    37  C    0.134574
    38  C    0.059247
    39  C   -0.152942
    40  C    0.140978
    41  C   -0.081868
    42  C   -0.012694
    43  C    0.079462
    44  H    0.044778
    45  H    0.045055
    46  H   -0.000491
    47  H    0.142244
    48  H    0.151084
    49  H    0.027991
    50  H    0.071052
    51  H    0.021559
    52  H    0.010809
    53  H    0.038210
    54  H    0.062268
    55  H    0.007824
    56  H    0.046207
    57  H    0.049947
    58  H    0.003523
    59  H    0.053252
    60  H    0.089668
    61  H    0.020886
    62  H   -0.004255
    63  H    0.024177
    64  H    0.046515
    65  H    0.015519
    66  H    0.053565
    67  H   -0.009815
    68  H    0.012789
    69  H   -0.115757
    70  H    0.015455
    71  H    0.032258
    72  H    0.239886
    73  H    0.006589
    74  H    0.042326
    75  H    0.077241
    76  H    0.018106
    77  H    0.212941
    78  H    0.027243
    79  H   -0.056707
 Sum of Mulliken charges =   0.00000

 Dipole moment (field-independent basis, Debye):
    X=              1.3615    Y=              1.5939    Z=              3.4124  Tot=              4.0048
 Quadrupole moment (field-independent basis, Debye-Ang):
   XX=           -217.4173   YY=           -249.7741   ZZ=           -261.5632
   XY=             -4.4998   XZ=             34.5973   YZ=              3.7891

 Normal termination of Gaussian 09 at Tue Jul  9 07:04:41 2019.
