 Gaussian 09, Revision D.01,
 Gaussian 09:  ES64L-G09RevD.01 24-Apr-2013

 --------------------------
 # td=(NStates=1) B3LYP/SVP
 --------------------------

 --
 TD
 --
 Symbolic Z-matrix:
 Charge =  0 Multiplicity = 1

                         Standard orientation:
 ---------------------------------------------------------------------
 Center     Atomic      Atomic             Coordinates (Angstroms)
 Number     Number       Type             X           Y           Z
 ---------------------------------------------------------------------
      1          8           0        5.299186   -0.310037   -3.367462
      2          8           0       -2.795538   -3.142575    3.259643
      3          8           0       -3.200735   -1.026528    3.197346
      4          8           0       -1.785820    7.297701    1.290838
      5          8           0       -0.486051    7.042186   -0.520992
      6          8           0       -1.893803   -3.969077   -0.018149
      7          7           0        2.371501    0.989200    0.677892
      8          7           0        4.410618   -0.496156   -1.209364
      9          7           0       -1.867669    0.659158   -0.437825
     10          7           0       -2.680374   -1.879869   -0.536961
     11          6           0        4.873983   -1.029821    0.016327
     12          6           0        4.523436   -0.140855    1.298981
     13          6           0        3.054615    0.037355    1.464904
     14          6           0        2.060562   -0.649599    2.143818
     15          6           0        0.738874   -0.075764    1.847780
     16          6           0        1.002238    0.994731    0.898037
     17          6           0        6.363859   -1.218565   -0.228192
     18          6           0       -0.543362   -0.291116    2.612417
     19          6           0        6.766945   -0.761569   -1.482515
     20          6           0        0.064521    1.999889    0.341796
     21          6           0       -1.129610    1.792856   -0.243876
     22          6           0        5.497525   -0.458705   -2.178910
     23          6           0       -1.959444    2.882984   -0.825260
     24          6           0        2.250865   -1.627128    3.182582
     25          6           0        7.271964   -1.836738    0.864616
     26          6           0       -3.154369    2.287962   -1.205584
     27          6           0       -1.091863   -1.709447    2.574046
     28          6           0       -3.200179    0.957533   -0.910837
     29          6           0       -1.475493    4.267854   -0.844312
     30          6           0        8.012296   -0.957713   -2.159622
     31          6           0       -1.768048    5.143525    0.421041
     32          6           0       -4.352417    3.040475   -1.770217
     33          6           0       -4.112063   -0.053621   -1.293910
     34          6           0       -2.454177   -1.874728    3.013391
     35          6           0       -3.778723   -1.437184   -1.084426
     36          6           0        9.249394   -0.975621   -1.740296
     37          6           0       -1.307147    6.600513    0.242100
     38          6           0       -4.668898   -2.539669   -1.568956
     39          6           0       -4.096544   -3.737312   -1.154197
     40          6           0       -2.778779   -3.260362   -0.556309
     41          6           0       -6.082685   -2.293460   -2.219601
     42          6           0       -4.405242   -5.183933   -1.272197
     43          6           0       -6.882082   -3.293336   -2.557484
     44          1           0        4.513622   -2.107473    0.322589
     45          1           0        4.958057    0.867289    1.386127
     46          1           0        4.987479   -1.030106    2.088593
     47          1           0        2.662626    1.162850   -0.296044
     48          1           0        3.329670   -0.672703   -1.536833
     49          1           0       -0.077993   -0.191430    3.571867
     50          1           0       -1.416817    0.361145    2.422647
     51          1           0        0.577064    2.910497    0.170904
     52          1           0        3.218564   -1.798601    3.704998
     53          1           0        1.656137   -1.328595    3.964260
     54          1           0        1.904742   -2.637712    2.754940
     55          1           0        6.821550   -2.240648    1.637150
     56          1           0        7.858821   -1.010522    1.501085
     57          1           0        8.154180   -2.541146    0.572603
     58          1           0       -0.895437   -2.242568    1.630446
     59          1           0       -0.419859   -2.457248    3.187537
     60          1           0       -1.762949   -0.298459   -0.289035
     61          1           0       -2.022328    4.807101   -1.707101
     62          1           0       -0.347871    4.445860   -1.142087
     63          1           0        7.959996   -1.073689   -3.089267
     64          1           0       -1.338713    4.771168    1.244566
     65          1           0       -2.682831    5.184653    0.593566
     66          1           0       -4.291002    4.254865   -1.855218
     67          1           0       -5.381144    2.704692   -1.339178
     68          1           0       -4.596956    2.581799   -2.738284
     69          1           0       -5.075537    0.286046   -1.677785
     70          1           0        9.570646   -1.004398   -0.673784
     71          1           0       10.132294   -0.810186   -2.322701
     72          1           0       -3.814158   -3.307515    3.678908
     73          1           0       -6.563472   -1.170163   -2.123053
     74          1           0       -4.564510   -5.520069   -2.258918
     75          1           0       -3.735164   -5.845068   -0.679704
     76          1           0       -5.356373   -5.224930   -0.799861
     77          1           0       -1.194125    8.103941    1.417169
     78          1           0       -8.023565   -3.213187   -2.698448
     79          1           0       -6.420798   -4.351768   -2.559434
 ---------------------------------------------------------------------

 SCF Done:  E(RB3LYP) =  -1947.82294657     A.U. after   16 cycles

 Excitation energies and oscillator strengths:

 Excited State   1:      Singlet-A      2.0355 eV  609.10 nm  f=0.4358  <S**2>=0.000
     155 ->156         0.70200
     155 <-156        -0.11294
 This state for optimization and/or second-order correction.
 Total Energy, E(TD-HF/TD-KS) =  -1947.74814194
 Copying the excited state density for this state as the 1-particle RhoCI density.

 The electronic state is 1-A.
 Alpha  occ. eigenvalues --  -19.19038 -19.15456 -19.13776 -19.10775 -19.10369
 Alpha  occ. eigenvalues --  -19.09927 -14.36937 -14.35907 -14.35261 -14.29319
 Alpha  occ. eigenvalues --  -10.32802 -10.29313 -10.28748 -10.26690 -10.25774
 Alpha  occ. eigenvalues --  -10.24416 -10.24057 -10.23751 -10.23649 -10.23268
 Alpha  occ. eigenvalues --  -10.22726 -10.22407 -10.22131 -10.21931 -10.21715
 Alpha  occ. eigenvalues --  -10.21557 -10.21481 -10.21458 -10.21159 -10.21157
 Alpha  occ. eigenvalues --  -10.20727 -10.20642 -10.20581 -10.19968 -10.19648
 Alpha  occ. eigenvalues --  -10.19432 -10.19258 -10.18891 -10.18759 -10.18741
 Alpha  occ. eigenvalues --  -10.18597 -10.18570 -10.18102  -1.10355  -1.08724
 Alpha  occ. eigenvalues --   -1.02753  -1.01381  -1.00061  -0.98419  -0.97388
 Alpha  occ. eigenvalues --   -0.96507  -0.93379  -0.92616  -0.82706  -0.82391
 Alpha  occ. eigenvalues --   -0.81618  -0.81157  -0.80063  -0.79264  -0.78301
 Alpha  occ. eigenvalues --   -0.77341  -0.76382  -0.75935  -0.74849  -0.72551
 Alpha  occ. eigenvalues --   -0.71754  -0.70862  -0.70269  -0.68732  -0.68529
 Alpha  occ. eigenvalues --   -0.66613  -0.65905  -0.63587  -0.61617  -0.61145
 Alpha  occ. eigenvalues --   -0.60089  -0.57813  -0.57612  -0.57050  -0.56308
 Alpha  occ. eigenvalues --   -0.55441  -0.54776  -0.54526  -0.54276  -0.52871
 Alpha  occ. eigenvalues --   -0.52352  -0.51545  -0.51235  -0.50896  -0.50312
 Alpha  occ. eigenvalues --   -0.49879  -0.48737  -0.48576  -0.48419  -0.47309
 Alpha  occ. eigenvalues --   -0.47046  -0.46595  -0.46100  -0.45467  -0.45172
 Alpha  occ. eigenvalues --   -0.45024  -0.44573  -0.44470  -0.44225  -0.44072
 Alpha  occ. eigenvalues --   -0.43862  -0.43615  -0.43367  -0.42761  -0.42456
 Alpha  occ. eigenvalues --   -0.42424  -0.41857  -0.41411  -0.41358  -0.40980
 Alpha  occ. eigenvalues --   -0.40519  -0.40129  -0.39920  -0.39864  -0.39664
 Alpha  occ. eigenvalues --   -0.39249  -0.39084  -0.38889  -0.38553  -0.38426
 Alpha  occ. eigenvalues --   -0.38147  -0.37580  -0.37265  -0.37142  -0.36862
 Alpha  occ. eigenvalues --   -0.35959  -0.35843  -0.35739  -0.34813  -0.33978
 Alpha  occ. eigenvalues --   -0.33784  -0.33692  -0.33368  -0.31499  -0.31269
 Alpha  occ. eigenvalues --   -0.30994  -0.30368  -0.29232  -0.28884  -0.27641
 Alpha  occ. eigenvalues --   -0.26858  -0.26197  -0.25715  -0.25291  -0.24573
 Alpha  occ. eigenvalues --   -0.24386  -0.23755  -0.23664  -0.22798  -0.19158
 Alpha virt. eigenvalues --   -0.11219  -0.06594  -0.06271  -0.00964  -0.00538
 Alpha virt. eigenvalues --   -0.00093   0.00534   0.01769   0.02369   0.03138
 Alpha virt. eigenvalues --    0.03444   0.04137   0.04160   0.04496   0.05002

 Mulliken charges:
               1
     1  O   -0.201873
     2  O   -0.265795
     3  O   -0.168281
     4  O   -0.205848
     5  O   -0.212623
     6  O   -0.227341
     7  N   -0.117621
     8  N   -0.282582
     9  N   -0.080049
    10  N   -0.217358
    11  C    0.077268
    12  C    0.117955
    13  C   -0.052525
    14  C   -0.131939
    15  C   -0.094037
    16  C   -0.014516
    17  C   -0.140548
    18  C    0.156837
    19  C    0.007896
    20  C   -0.102382
    21  C    0.187712
    22  C    0.162713
    23  C   -0.047660
    24  C    0.096012
    25  C    0.078336
    26  C   -0.092973
    27  C   -0.069263
    28  C    0.115575
    29  C   -0.033981
    30  C    0.075107
    31  C    0.187328
    32  C    0.039055
    33  C   -0.099468
    34  C    0.109426
    35  C    0.083759
    36  C   -0.042752
    37  C    0.118371
    38  C   -0.021572
    39  C   -0.213979
    40  C    0.141278
    41  C   -0.017626
    42  C    0.149152
    43  C   -0.076252
    44  H    0.037812
    45  H    0.014353
    46  H    0.025967
    47  H    0.127795
    48  H    0.183002
    49  H   -0.001131
    50  H    0.033098
    51  H   -0.019542
    52  H    0.004925
    53  H   -0.014679
    54  H    0.045864
    55  H   -0.035535
    56  H    0.039362
    57  H    0.055161
    58  H    0.057395
    59  H    0.022047
    60  H    0.098465
    61  H    0.019958
    62  H    0.050512
    63  H   -0.080257
    64  H    0.001228
    65  H   -0.055068
    66  H    0.054413
    67  H    0.026010
    68  H    0.012407
    69  H   -0.028757
    70  H    0.005086
    71  H    0.022778
    72  H    0.236320
    73  H    0.038328
    74  H    0.031484
    75  H    0.034426
    76  H    0.009351
    77  H    0.199360
    78  H    0.047969
    79  H    0.027159
 Sum of Mulliken charges =   0.00000

 Dipole moment (field-independent basis, Debye):
    X=             -0.2126    Y=              1.3171    Z=              3.3922  Tot=              3.6451
 Quadrupole moment (field-independent basis, Debye-Ang):
   XX=           -208.4968   YY=           -241.7674   ZZ=           -262.8475
   XY=             -6.1394   XZ=             29.7926   YZ=              4.4976

 Normal termination of Gaussian 09 at Wed Jul 10 13:41:45 2019.
