 Gaussian 09, Revision D.01,
 Gaussian 09:  ES64L-G09RevD.01 24-Apr-2013

 --------------------------
 # td=(NStates=1) B3LYP/SVP
 --------------------------

 --
 TD
 --
 Symbolic Z-matrix:
 Charge =  0 Multiplicity = 1

                         Standard orientation:
 ---------------------------------------------------------------------
 Center     Atomic      Atomic             Coordinates (Angstroms)
 Number     Number       Type             X           Y           Z
 ---------------------------------------------------------------------
      1          8           0        5.282004   -0.333296   -3.353973
      2          8           0       -3.155681   -2.705983    3.287401
      3          8           0       -3.271574   -0.548101    3.077484
      4          8           0       -1.126758    7.224350    1.401682
      5          8           0       -0.277147    6.953958   -0.655303
      6          8           0       -2.169998   -4.020572    0.199516
      7          7           0        2.381513    0.924215    0.673260
      8          7           0        4.308452   -0.800095   -1.288697
      9          7           0       -1.825884    0.642783   -0.242915
     10          7           0       -2.823185   -1.881316   -0.319889
     11          6           0        4.776969   -1.306219    0.025830
     12          6           0        4.463035   -0.364381    1.314118
     13          6           0        3.017066   -0.087084    1.378735
     14          6           0        2.037472   -0.631727    2.148105
     15          6           0        0.658974   -0.070206    1.885430
     16          6           0        0.989221    0.898526    0.852618
     17          6           0        6.209841   -1.323781   -0.181171
     18          6           0       -0.541301   -0.180136    2.664450
     19          6           0        6.688829   -1.112961   -1.455979
     20          6           0        0.236772    1.828900    0.192372
     21          6           0       -1.098942    1.881221   -0.240032
     22          6           0        5.386830   -0.747777   -2.195884
     23          6           0       -1.884814    2.998678   -0.931129
     24          6           0        2.225805   -1.735352    3.251960
     25          6           0        7.146269   -1.884435    0.884704
     26          6           0       -3.038597    2.349599   -1.371264
     27          6           0       -1.120619   -1.499794    2.681829
     28          6           0       -3.005629    0.977438   -0.879967
     29          6           0       -1.373522    4.354923   -1.050036
     30          6           0        7.874664   -0.962363   -2.151408
     31          6           0       -1.752183    5.065694    0.238505
     32          6           0       -4.275636    2.865659   -1.986992
     33          6           0       -3.955801    0.015328   -1.211815
     34          6           0       -2.533603   -1.492982    3.131889
     35          6           0       -3.831200   -1.364326   -0.903909
     36          6           0        9.154091   -1.018916   -1.707240
     37          6           0       -1.015374    6.526968    0.295651
     38          6           0       -4.763000   -2.502976   -1.394887
     39          6           0       -4.164637   -3.678764   -1.017515
     40          6           0       -2.862111   -3.217097   -0.301513
     41          6           0       -6.012554   -2.217301   -2.253514
     42          6           0       -4.486590   -5.145109   -1.178618
     43          6           0       -6.694236   -3.198017   -2.942641
     44          1           0        4.179920   -2.363143    0.348014
     45          1           0        5.134448    0.453115    1.137938
     46          1           0        4.668442   -1.091764    2.191870
     47          1           0        2.970472    1.664667    0.224984
     48          1           0        3.448068   -0.852363   -1.710858
     49          1           0       -0.161211    0.431883    3.707246
     50          1           0       -1.257600    0.525870    2.160215
     51          1           0        0.864869    2.708812   -0.101372
     52          1           0        3.264471   -1.706546    3.411780
     53          1           0        1.766219   -1.335322    3.995595
     54          1           0        1.824032   -2.736415    3.029908
     55          1           0        6.536866   -2.453951    1.655660
     56          1           0        7.681533   -1.026453    1.519157
     57          1           0        8.101425   -2.344878    0.358871
     58          1           0       -0.828866   -2.222669    1.741987
     59          1           0       -0.565927   -2.296254    3.277481
     60          1           0       -1.651423   -0.395031    0.112261
     61          1           0       -1.722472    4.645277   -1.917650
     62          1           0       -0.300039    4.254865   -1.214151
     63          1           0        7.650056   -0.627606   -3.177583
     64          1           0       -1.508625    4.527449    1.241396
     65          1           0       -2.900561    5.089894    0.254689
     66          1           0       -4.195754    3.935599   -2.330914
     67          1           0       -5.094846    2.849874   -1.255776
     68          1           0       -4.857813    2.303286   -2.858541
     69          1           0       -4.833427    0.471303   -1.780597
     70          1           0        9.325103   -1.508491   -0.554660
     71          1           0       10.059017   -0.722957   -2.460361
     72          1           0       -4.124610   -2.457157    3.291916
     73          1           0       -6.601066   -1.198014   -2.249844
     74          1           0       -4.165628   -5.395393   -2.233944
     75          1           0       -3.863409   -5.618440   -0.591435
     76          1           0       -5.668681   -5.353151   -1.154739
     77          1           0       -0.616235    8.117235    1.372519
     78          1           0       -7.634391   -2.926067   -3.471392
     79          1           0       -6.188306   -4.236406   -2.920520
 ---------------------------------------------------------------------

 SCF Done:  E(RB3LYP) =  -1947.80839567     A.U. after   16 cycles

 Excitation energies and oscillator strengths:

 Excited State   1:      Singlet-A      2.2077 eV  561.59 nm  f=0.5423  <S**2>=0.000
     155 ->156         0.70451
     155 <-156        -0.11539
 This state for optimization and/or second-order correction.
 Total Energy, E(TD-HF/TD-KS) =  -1947.72726247
 Copying the excited state density for this state as the 1-particle RhoCI density.

 The electronic state is 1-A.
 Alpha  occ. eigenvalues --  -19.20619 -19.15881 -19.12724 -19.11332 -19.10528
 Alpha  occ. eigenvalues --  -19.10255 -14.38143 -14.36692 -14.35251 -14.28556
 Alpha  occ. eigenvalues --  -10.33912 -10.30644 -10.28706 -10.26969 -10.25918
 Alpha  occ. eigenvalues --  -10.24878 -10.24305 -10.24021 -10.23378 -10.23270
 Alpha  occ. eigenvalues --  -10.23177 -10.23040 -10.22817 -10.22738 -10.22576
 Alpha  occ. eigenvalues --  -10.22466 -10.21593 -10.21394 -10.21327 -10.21015
 Alpha  occ. eigenvalues --  -10.20935 -10.20858 -10.20741 -10.20269 -10.20245
 Alpha  occ. eigenvalues --  -10.20184 -10.19830 -10.19556 -10.19461 -10.18648
 Alpha  occ. eigenvalues --  -10.18573 -10.18455 -10.18226  -1.10495  -1.08355
 Alpha  occ. eigenvalues --   -1.03912  -1.01887  -0.98134  -0.98098  -0.97630
 Alpha  occ. eigenvalues --   -0.96242  -0.93755  -0.93587  -0.83952  -0.83090
 Alpha  occ. eigenvalues --   -0.82754  -0.81737  -0.79962  -0.78460  -0.78093
 Alpha  occ. eigenvalues --   -0.77407  -0.76388  -0.75025  -0.73732  -0.72224
 Alpha  occ. eigenvalues --   -0.71549  -0.70882  -0.69368  -0.68741  -0.68438
 Alpha  occ. eigenvalues --   -0.67527  -0.66225  -0.63965  -0.62469  -0.61056
 Alpha  occ. eigenvalues --   -0.59601  -0.57824  -0.57473  -0.57313  -0.56482
 Alpha  occ. eigenvalues --   -0.55905  -0.55420  -0.54621  -0.53995  -0.52421
 Alpha  occ. eigenvalues --   -0.51777  -0.51444  -0.51009  -0.50499  -0.49854
 Alpha  occ. eigenvalues --   -0.49738  -0.48484  -0.48431  -0.47620  -0.47041
 Alpha  occ. eigenvalues --   -0.46823  -0.46747  -0.46236  -0.45758  -0.45517
 Alpha  occ. eigenvalues --   -0.44831  -0.44749  -0.44120  -0.44100  -0.43532
 Alpha  occ. eigenvalues --   -0.43419  -0.43363  -0.42859  -0.42654  -0.42553
 Alpha  occ. eigenvalues --   -0.42376  -0.42282  -0.41933  -0.41702  -0.41169
 Alpha  occ. eigenvalues --   -0.41133  -0.40626  -0.40381  -0.40181  -0.39693
 Alpha  occ. eigenvalues --   -0.39534  -0.39413  -0.39170  -0.38740  -0.38691
 Alpha  occ. eigenvalues --   -0.38335  -0.37882  -0.37719  -0.37197  -0.37029
 Alpha  occ. eigenvalues --   -0.36833  -0.35996  -0.35651  -0.34755  -0.34532
 Alpha  occ. eigenvalues --   -0.34150  -0.33915  -0.32775  -0.31946  -0.30847
 Alpha  occ. eigenvalues --   -0.30482  -0.30148  -0.28676  -0.28196  -0.27105
 Alpha  occ. eigenvalues --   -0.27033  -0.26487  -0.25988  -0.25627  -0.24340
 Alpha  occ. eigenvalues --   -0.23824  -0.23619  -0.23439  -0.22027  -0.18517
 Alpha virt. eigenvalues --   -0.09995  -0.07530  -0.05442  -0.01733  -0.00914
 Alpha virt. eigenvalues --   -0.00178   0.00367   0.00699   0.01683   0.02225
 Alpha virt. eigenvalues --    0.02989   0.03639   0.04082   0.04201   0.05172

 Mulliken charges:
               1
     1  O   -0.239618
     2  O   -0.213842
     3  O   -0.231762
     4  O   -0.172111
     5  O   -0.298268
     6  O   -0.161708
     7  N   -0.118528
     8  N   -0.176098
     9  N   -0.172688
    10  N   -0.196180
    11  C    0.021304
    12  C    0.209385
    13  C   -0.046103
    14  C   -0.232450
    15  C   -0.123031
    16  C    0.117518
    17  C   -0.154970
    18  C    0.099798
    19  C   -0.002502
    20  C   -0.140453
    21  C    0.097907
    22  C    0.128830
    23  C   -0.142785
    24  C    0.230630
    25  C   -0.001290
    26  C   -0.099186
    27  C   -0.085597
    28  C    0.114039
    29  C    0.279675
    30  C    0.001766
    31  C   -0.068571
    32  C    0.022640
    33  C   -0.134278
    34  C    0.171657
    35  C    0.084355
    36  C   -0.111016
    37  C    0.178886
    38  C    0.028182
    39  C   -0.264714
    40  C    0.100867
    41  C   -0.062155
    42  C    0.147034
    43  C   -0.052919
    44  H    0.057565
    45  H   -0.018544
    46  H    0.022296
    47  H    0.134214
    48  H    0.104259
    49  H    0.056234
    50  H    0.027745
    51  H   -0.019023
    52  H   -0.038342
    53  H   -0.040569
    54  H    0.040317
    55  H    0.038802
    56  H    0.040134
    57  H    0.061091
    58  H    0.104527
    59  H    0.021871
    60  H    0.208000
    61  H   -0.036080
    62  H    0.010363
    63  H    0.018657
    64  H    0.068667
    65  H    0.054597
    66  H    0.020756
    67  H    0.031128
    68  H    0.048796
    69  H   -0.020035
    70  H    0.047610
    71  H    0.067945
    72  H    0.190273
    73  H    0.023385
    74  H    0.031623
    75  H   -0.025369
    76  H    0.049317
    77  H    0.225537
    78  H    0.030278
    79  H    0.030331
 Sum of Mulliken charges =   0.00000

 Dipole moment (field-independent basis, Debye):
    X=              1.7387    Y=              3.8499    Z=              3.6589  Tot=              5.5886
 Quadrupole moment (field-independent basis, Debye-Ang):
   XX=           -225.6891   YY=           -244.6728   ZZ=           -266.0567
   XY=            -15.5599   XZ=             31.8209   YZ=              8.7139

 Normal termination of Gaussian 09 at Sun Jul  7 21:03:54 2019.
