 Gaussian 09, Revision D.01,
 Gaussian 09:  ES64L-G09RevD.01 24-Apr-2013

 --------------------------
 # td=(NStates=1) B3LYP/SVP
 --------------------------

 --
 TD
 --
 Symbolic Z-matrix:
 Charge =  0 Multiplicity = 1

                         Standard orientation:
 ---------------------------------------------------------------------
 Center     Atomic      Atomic             Coordinates (Angstroms)
 Number     Number       Type             X           Y           Z
 ---------------------------------------------------------------------
      1          8           0        5.214043   -0.204947   -3.309355
      2          8           0       -3.000391   -3.031983    3.278524
      3          8           0       -3.180409   -0.866917    3.442574
      4          8           0       -1.531028    7.121898    1.485854
      5          8           0       -0.449925    7.014839   -0.491571
      6          8           0       -2.057582   -4.039664   -0.210659
      7          7           0        2.378843    1.006019    0.694186
      8          7           0        4.284922   -0.586841   -1.216940
      9          7           0       -1.837774    0.650203   -0.252975
     10          7           0       -2.756633   -1.813795   -0.537228
     11          6           0        4.831729   -1.260849    0.040857
     12          6           0        4.475822   -0.293241    1.287939
     13          6           0        3.079930   -0.000520    1.478433
     14          6           0        2.044933   -0.706159    2.194056
     15          6           0        0.786079   -0.202449    1.812648
     16          6           0        0.999642    0.802363    0.921224
     17          6           0        6.292312   -1.458317   -0.241363
     18          6           0       -0.511445   -0.254647    2.601649
     19          6           0        6.615105   -1.012800   -1.453175
     20          6           0        0.235376    1.889701    0.273459
     21          6           0       -1.001663    1.803157   -0.229253
     22          6           0        5.288963   -0.526475   -2.168156
     23          6           0       -1.759692    2.885884   -0.865677
     24          6           0        2.232329   -1.838047    3.251510
     25          6           0        7.153241   -1.903892    0.871549
     26          6           0       -3.032791    2.399871   -1.179682
     27          6           0       -1.024583   -1.801000    2.595683
     28          6           0       -3.048549    0.997190   -0.796612
     29          6           0       -1.218157    4.380913   -0.951435
     30          6           0        7.819824   -0.980059   -2.273064
     31          6           0       -1.544206    5.080429    0.322499
     32          6           0       -4.140982    3.089693   -1.914572
     33          6           0       -4.038665    0.027948   -1.234682
     34          6           0       -2.438492   -1.842503    3.198515
     35          6           0       -3.841797   -1.322097   -1.115830
     36          6           0        9.184814   -0.940637   -1.849728
     37          6           0       -1.098948    6.505823    0.341756
     38          6           0       -4.760522   -2.442824   -1.664833
     39          6           0       -4.206963   -3.509691   -1.197217
     40          6           0       -2.772902   -3.214613   -0.571546
     41          6           0       -6.122172   -2.244753   -2.102462
     42          6           0       -4.648068   -4.984080   -1.419646
     43          6           0       -6.913577   -2.915237   -2.647044
     44          1           0        4.509318   -2.255467    0.188433
     45          1           0        4.939461    0.656671    1.023001
     46          1           0        4.776134   -0.497759    2.194034
     47          1           0        2.977223    1.526069   -0.003915
     48          1           0        3.265228   -0.328717   -1.541522
     49          1           0       -0.401999   -0.106443    3.773878
     50          1           0       -1.310266    0.499207    2.424700
     51          1           0        0.851894    2.837160   -0.019858
     52          1           0        3.272283   -1.713015    3.646548
     53          1           0        1.581874   -1.812324    4.040011
     54          1           0        2.224144   -3.043952    2.630216
     55          1           0        6.577691   -2.511679    1.628579
     56          1           0        7.548179   -1.151782    1.480938
     57          1           0        7.878596   -2.572741    0.529138
     58          1           0       -1.146031   -2.122311    1.621256
     59          1           0       -0.303641   -2.374398    3.085751
     60          1           0       -1.582969   -0.329367    0.096310
     61          1           0       -1.511851    5.012819   -1.782663
     62          1           0       -0.170720    4.173368   -1.008601
     63          1           0        7.523843   -1.150566   -3.372288
     64          1           0       -1.247735    4.523901    1.390521
     65          1           0       -2.596616    4.939903    0.516434
     66          1           0       -3.749014    4.069043   -2.305275
     67          1           0       -4.973166    3.317324   -1.162506
     68          1           0       -4.549313    2.530361   -2.759371
     69          1           0       -5.039022    0.428325   -1.853538
     70          1           0        9.528698   -0.794419   -0.804077
     71          1           0        9.834039   -0.916586   -2.646867
     72          1           0       -3.765545   -2.940847    3.653239
     73          1           0       -6.348734   -0.944991   -2.373889
     74          1           0       -5.145349   -5.338567   -2.593169
     75          1           0       -3.771647   -5.567230   -1.083657
     76          1           0       -5.595371   -5.289715   -0.722064
     77          1           0       -1.281528    8.089553    1.328060
     78          1           0       -7.984971   -2.753222   -2.953170
     79          1           0       -6.751840   -4.071010   -2.531652
 ---------------------------------------------------------------------

 SCF Done:  E(RB3LYP) =  -1947.76894048     A.U. after   16 cycles

 Excitation energies and oscillator strengths:

 Excited State   1:      Singlet-A      2.3396 eV  529.95 nm  f=0.5503  <S**2>=0.000
     155 ->156         0.70320
     155 <-156        -0.10320
 This state for optimization and/or second-order correction.
 Total Energy, E(TD-HF/TD-KS) =  -1947.68296343
 Copying the excited state density for this state as the 1-particle RhoCI density.

 The electronic state is 1-A.
 Alpha  occ. eigenvalues --  -19.18850 -19.16735 -19.14306 -19.11226 -19.10991
 Alpha  occ. eigenvalues --  -19.10691 -14.38874 -14.37375 -14.36598 -14.28515
 Alpha  occ. eigenvalues --  -10.32702 -10.31394 -10.28675 -10.26621 -10.26002
 Alpha  occ. eigenvalues --  -10.25648 -10.24472 -10.24004 -10.23763 -10.22837
 Alpha  occ. eigenvalues --  -10.22818 -10.22359 -10.22113 -10.21959 -10.21636
 Alpha  occ. eigenvalues --  -10.21510 -10.21483 -10.21466 -10.21243 -10.21067
 Alpha  occ. eigenvalues --  -10.21053 -10.20721 -10.20626 -10.20286 -10.20149
 Alpha  occ. eigenvalues --  -10.20141 -10.19822 -10.19788 -10.19414 -10.19294
 Alpha  occ. eigenvalues --  -10.18499 -10.18158 -10.17512  -1.11480  -1.11009
 Alpha  occ. eigenvalues --   -1.05363  -1.04026  -1.02548  -0.97973  -0.97553
 Alpha  occ. eigenvalues --   -0.96689  -0.92913  -0.91926  -0.82935  -0.82393
 Alpha  occ. eigenvalues --   -0.82069  -0.81616  -0.81265  -0.79966  -0.78470
 Alpha  occ. eigenvalues --   -0.76670  -0.76238  -0.75654  -0.74560  -0.72713
 Alpha  occ. eigenvalues --   -0.71448  -0.71227  -0.69135  -0.68414  -0.67963
 Alpha  occ. eigenvalues --   -0.67860  -0.66317  -0.63515  -0.61655  -0.61026
 Alpha  occ. eigenvalues --   -0.58943  -0.58595  -0.57837  -0.57652  -0.56868
 Alpha  occ. eigenvalues --   -0.56373  -0.55855  -0.55284  -0.53690  -0.52794
 Alpha  occ. eigenvalues --   -0.51911  -0.51567  -0.50674  -0.50375  -0.50039
 Alpha  occ. eigenvalues --   -0.49595  -0.49328  -0.48325  -0.48105  -0.47607
 Alpha  occ. eigenvalues --   -0.47399  -0.47055  -0.46907  -0.46207  -0.46013
 Alpha  occ. eigenvalues --   -0.45290  -0.45084  -0.44772  -0.44133  -0.43644
 Alpha  occ. eigenvalues --   -0.43489  -0.43434  -0.43156  -0.42947  -0.42890
 Alpha  occ. eigenvalues --   -0.42604  -0.42316  -0.42145  -0.42123  -0.41357
 Alpha  occ. eigenvalues --   -0.41165  -0.41015  -0.40782  -0.40316  -0.39942
 Alpha  occ. eigenvalues --   -0.39511  -0.39279  -0.38837  -0.38713  -0.38275
 Alpha  occ. eigenvalues --   -0.37745  -0.37600  -0.37162  -0.37061  -0.36823
 Alpha  occ. eigenvalues --   -0.36473  -0.35589  -0.35411  -0.35357  -0.34638
 Alpha  occ. eigenvalues --   -0.34335  -0.34178  -0.33845  -0.32499  -0.30890
 Alpha  occ. eigenvalues --   -0.30660  -0.30233  -0.29833  -0.29291  -0.28005
 Alpha  occ. eigenvalues --   -0.27366  -0.26652  -0.26363  -0.25984  -0.25362
 Alpha  occ. eigenvalues --   -0.24424  -0.23933  -0.23099  -0.22769  -0.19581
 Alpha virt. eigenvalues --   -0.10444  -0.05775  -0.04718  -0.00953  -0.00628
 Alpha virt. eigenvalues --    0.00285   0.01075   0.01148   0.01799   0.02441
 Alpha virt. eigenvalues --    0.02982   0.03655   0.03965   0.04570   0.05119

 Mulliken charges:
               1
     1  O   -0.186451
     2  O   -0.063801
     3  O   -0.282518
     4  O   -0.217649
     5  O   -0.180211
     6  O   -0.130025
     7  N   -0.190622
     8  N   -0.290731
     9  N   -0.120176
    10  N   -0.302584
    11  C    0.183967
    12  C    0.295512
    13  C   -0.117482
    14  C   -0.136671
    15  C   -0.010403
    16  C    0.090177
    17  C   -0.202137
    18  C   -0.046770
    19  C   -0.066461
    20  C   -0.141471
    21  C    0.148203
    22  C    0.135794
    23  C   -0.125220
    24  C    0.055110
    25  C    0.144040
    26  C   -0.157372
    27  C    0.056121
    28  C    0.138169
    29  C    0.184664
    30  C   -0.068049
    31  C   -0.074781
    32  C    0.093514
    33  C   -0.176111
    34  C    0.112331
    35  C    0.088715
    36  C    0.000774
    37  C    0.152486
    38  C    0.051162
    39  C   -0.208164
    40  C    0.156966
    41  C    0.052292
    42  C   -0.036742
    43  C   -0.114342
    44  H    0.018476
    45  H   -0.021385
    46  H   -0.053378
    47  H    0.145687
    48  H    0.168924
    49  H    0.026421
    50  H    0.044334
    51  H    0.027711
    52  H    0.009229
    53  H    0.016450
    54  H    0.053762
    55  H   -0.004462
    56  H    0.023352
    57  H    0.017039
    58  H    0.036755
    59  H    0.009578
    60  H    0.184938
    61  H    0.023567
    62  H   -0.009238
    63  H    0.047827
    64  H    0.064891
    65  H    0.025195
    66  H    0.017421
    67  H    0.041322
    68  H    0.039568
    69  H    0.029920
    70  H    0.034317
    71  H    0.014445
    72  H    0.109444
    73  H   -0.005639
    74  H    0.057561
    75  H    0.037022
    76  H    0.041486
    77  H    0.193067
    78  H    0.032301
    79  H    0.009035
 Sum of Mulliken charges =   0.00000

 Dipole moment (field-independent basis, Debye):
    X=              2.0920    Y=              3.2611    Z=              3.6692  Tot=              5.3361
 Quadrupole moment (field-independent basis, Debye-Ang):
   XX=           -228.1194   YY=           -246.8407   ZZ=           -262.7568
   XY=            -14.7015   XZ=             30.7789   YZ=             -3.6292

 Normal termination of Gaussian 09 at Wed Jul 10 07:26:55 2019.
