 Gaussian 09, Revision D.01,
 Gaussian 09:  ES64L-G09RevD.01 24-Apr-2013

 --------------------------
 # td=(NStates=1) B3LYP/SVP
 --------------------------

 --
 TD
 --
 Symbolic Z-matrix:
 Charge =  0 Multiplicity = 1

                         Standard orientation:
 ---------------------------------------------------------------------
 Center     Atomic      Atomic             Coordinates (Angstroms)
 Number     Number       Type             X           Y           Z
 ---------------------------------------------------------------------
      1          8           0        5.291117   -0.232718   -3.390423
      2          8           0       -2.812965   -3.108117    3.236741
      3          8           0       -3.185458   -0.868031    3.263428
      4          8           0       -1.720200    7.267500    1.400266
      5          8           0       -0.131095    6.902054   -0.230782
      6          8           0       -1.832311   -3.918401   -0.051721
      7          7           0        2.372509    0.923691    0.637790
      8          7           0        4.410680   -0.515372   -1.236278
      9          7           0       -1.890679    0.753253   -0.352579
     10          7           0       -2.730322   -1.791022   -0.553048
     11          6           0        4.850333   -1.207069    0.029785
     12          6           0        4.459182   -0.221844    1.241370
     13          6           0        2.981994   -0.041325    1.318178
     14          6           0        1.964749   -0.597211    2.189054
     15          6           0        0.783840    0.008960    1.828213
     16          6           0        0.984132    1.009854    0.846141
     17          6           0        6.318308   -1.375503   -0.224094
     18          6           0       -0.607179   -0.310037    2.489473
     19          6           0        6.671685   -0.966986   -1.523974
     20          6           0        0.219510    1.924419    0.217942
     21          6           0       -1.095063    1.852620   -0.317131
     22          6           0        5.429140   -0.486229   -2.196952
     23          6           0       -1.889651    2.907876   -0.897198
     24          6           0        2.341843   -1.758485    3.177271
     25          6           0        7.192911   -1.920355    0.957724
     26          6           0       -3.129284    2.343204   -1.295070
     27          6           0       -1.031273   -1.747587    2.527333
     28          6           0       -3.028022    0.894764   -1.044748
     29          6           0       -1.493073    4.406304   -0.904143
     30          6           0        7.957288   -0.984364   -2.176173
     31          6           0       -1.770612    5.121356    0.310227
     32          6           0       -4.251503    3.069385   -1.882031
     33          6           0       -4.124914   -0.029940   -1.305427
     34          6           0       -2.495635   -1.869558    3.120840
     35          6           0       -3.867597   -1.426116   -1.098037
     36          6           0        9.145383   -0.914797   -1.565096
     37          6           0       -1.122347    6.424540    0.471768
     38          6           0       -4.818192   -2.554615   -1.463854
     39          6           0       -4.106219   -3.623679   -1.036009
     40          6           0       -2.689477   -3.230052   -0.448354
     41          6           0       -6.160002   -2.270784   -2.059442
     42          6           0       -4.561836   -5.066341   -1.172654
     43          6           0       -6.916145   -3.193576   -2.597073
     44          1           0        4.015571   -1.987977    0.284038
     45          1           0        4.855875    0.894778    1.104601
     46          1           0        4.951638   -0.753537    2.046871
     47          1           0        2.804966    1.541003   -0.058696
     48          1           0        3.526922   -0.579427   -1.501892
     49          1           0       -0.739726    0.024517    3.416220
     50          1           0       -1.348170    0.005802    2.006091
     51          1           0        0.815237    2.693271   -0.116580
     52          1           0        3.348527   -1.687313    3.417185
     53          1           0        1.399931   -1.651933    3.951433
     54          1           0        2.386261   -2.882950    2.540466
     55          1           0        6.887725   -2.881685    1.462274
     56          1           0        7.369987   -1.125739    1.703554
     57          1           0        8.190679   -2.288659    0.566962
     58          1           0       -0.952654   -2.270998    1.446810
     59          1           0       -0.369891   -2.474002    3.170496
     60          1           0       -1.783381   -0.203397   -0.145785
     61          1           0       -1.723743    5.002071   -1.733840
     62          1           0       -0.448885    4.529460   -0.992350
     63          1           0        7.857967   -1.068421   -3.320825
     64          1           0       -1.556431    4.427112    1.116812
     65          1           0       -2.861996    5.258571    0.578762
     66          1           0       -3.912733    4.135659   -2.057079
     67          1           0       -5.078214    3.105046   -1.073467
     68          1           0       -4.849036    2.744775   -2.881307
     69          1           0       -5.028082    0.417168   -1.745485
     70          1           0        9.617352   -0.844865   -0.487342
     71          1           0        9.938750   -0.885553   -2.252513
     72          1           0       -3.980574   -3.456407    3.212610
     73          1           0       -6.654787   -1.408292   -1.994934
     74          1           0       -4.388783   -5.241714   -2.173386
     75          1           0       -3.786202   -5.693557   -0.592888
     76          1           0       -5.514393   -5.278365   -0.812627
     77          1           0       -1.202518    8.134426    1.370007
     78          1           0       -7.902931   -2.933677   -2.997913
     79          1           0       -6.745924   -4.248314   -2.854714
 ---------------------------------------------------------------------

 SCF Done:  E(RB3LYP) =  -1947.79971879     A.U. after   17 cycles

 Excitation energies and oscillator strengths:

 Excited State   1:      Singlet-A      2.0803 eV  596.00 nm  f=0.5813  <S**2>=0.000
     155 ->156         0.70228
     155 <-156        -0.13828
 This state for optimization and/or second-order correction.
 Total Energy, E(TD-HF/TD-KS) =  -1947.72327055
 Copying the excited state density for this state as the 1-particle RhoCI density.

 The electronic state is 1-A.
 Alpha  occ. eigenvalues --  -19.19056 -19.18893 -19.13123 -19.11746 -19.10642
 Alpha  occ. eigenvalues --  -19.10556 -14.39520 -14.36029 -14.34747 -14.28096
 Alpha  occ. eigenvalues --  -10.33485 -10.30605 -10.29100 -10.27289 -10.26646
 Alpha  occ. eigenvalues --  -10.24492 -10.24211 -10.24007 -10.23964 -10.23479
 Alpha  occ. eigenvalues --  -10.22986 -10.22516 -10.22491 -10.22248 -10.21710
 Alpha  occ. eigenvalues --  -10.21519 -10.21489 -10.21219 -10.21151 -10.21078
 Alpha  occ. eigenvalues --  -10.20623 -10.20371 -10.20006 -10.19962 -10.19617
 Alpha  occ. eigenvalues --  -10.19557 -10.19502 -10.19424 -10.19419 -10.19033
 Alpha  occ. eigenvalues --  -10.18857 -10.17492 -10.16085  -1.07817  -1.07389
 Alpha  occ. eigenvalues --   -1.04576  -1.02262  -1.00223  -0.99272  -0.98464
 Alpha  occ. eigenvalues --   -0.96907  -0.93772  -0.91196  -0.83729  -0.82628
 Alpha  occ. eigenvalues --   -0.82433  -0.81196  -0.80212  -0.79458  -0.79024
 Alpha  occ. eigenvalues --   -0.77233  -0.76415  -0.75947  -0.74849  -0.72200
 Alpha  occ. eigenvalues --   -0.71729  -0.70600  -0.69495  -0.68743  -0.68574
 Alpha  occ. eigenvalues --   -0.66543  -0.65413  -0.63457  -0.62281  -0.60784
 Alpha  occ. eigenvalues --   -0.59573  -0.58904  -0.58494  -0.58338  -0.57495
 Alpha  occ. eigenvalues --   -0.57343  -0.55473  -0.55396  -0.54193  -0.53647
 Alpha  occ. eigenvalues --   -0.52569  -0.51601  -0.51052  -0.50773  -0.49852
 Alpha  occ. eigenvalues --   -0.49064  -0.48771  -0.48065  -0.47602  -0.47394
 Alpha  occ. eigenvalues --   -0.47294  -0.46761  -0.46018  -0.45601  -0.45574
 Alpha  occ. eigenvalues --   -0.45147  -0.44795  -0.44677  -0.44552  -0.44018
 Alpha  occ. eigenvalues --   -0.43834  -0.43628  -0.43446  -0.43061  -0.42987
 Alpha  occ. eigenvalues --   -0.42403  -0.42135  -0.42006  -0.41584  -0.41090
 Alpha  occ. eigenvalues --   -0.40940  -0.40482  -0.40455  -0.40127  -0.39803
 Alpha  occ. eigenvalues --   -0.39777  -0.38976  -0.38536  -0.38421  -0.38352
 Alpha  occ. eigenvalues --   -0.38293  -0.38142  -0.37549  -0.36131  -0.35911
 Alpha  occ. eigenvalues --   -0.35392  -0.35347  -0.34999  -0.34746  -0.33921
 Alpha  occ. eigenvalues --   -0.33674  -0.33390  -0.32294  -0.32131  -0.31337
 Alpha  occ. eigenvalues --   -0.31109  -0.30764  -0.29468  -0.28225  -0.28108
 Alpha  occ. eigenvalues --   -0.26804  -0.26403  -0.25818  -0.25559  -0.25117
 Alpha  occ. eigenvalues --   -0.24887  -0.24065  -0.23518  -0.22313  -0.18143
 Alpha virt. eigenvalues --   -0.10434  -0.07260  -0.05776  -0.03454  -0.03045
 Alpha virt. eigenvalues --   -0.00346   0.00126   0.00523   0.02581   0.02847
 Alpha virt. eigenvalues --    0.03900   0.04106   0.04560   0.04606   0.05200

 Mulliken charges:
               1
     1  O   -0.225034
     2  O   -0.238793
     3  O   -0.251821
     4  O   -0.220198
     5  O   -0.311947
     6  O   -0.140585
     7  N   -0.045001
     8  N   -0.184627
     9  N    0.027352
    10  N   -0.321611
    11  C    0.016211
    12  C    0.140689
    13  C   -0.103581
    14  C   -0.120649
    15  C   -0.109632
    16  C    0.105075
    17  C   -0.088770
    18  C    0.336804
    19  C   -0.046466
    20  C   -0.068885
    21  C    0.088270
    22  C    0.162426
    23  C   -0.092080
    24  C    0.038136
    25  C    0.031944
    26  C   -0.113336
    27  C   -0.198836
    28  C    0.042948
    29  C    0.157116
    30  C   -0.032508
    31  C    0.034894
    32  C    0.003502
    33  C   -0.107589
    34  C    0.173928
    35  C    0.077781
    36  C   -0.039773
    37  C    0.179903
    38  C    0.108079
    39  C   -0.317250
    40  C    0.189159
    41  C    0.063040
    42  C    0.132187
    43  C   -0.057490
    44  H    0.056166
    45  H    0.030190
    46  H    0.003425
    47  H    0.119952
    48  H    0.081309
    49  H   -0.038583
    50  H   -0.100033
    51  H   -0.044685
    52  H   -0.006689
    53  H    0.078601
    54  H    0.047903
    55  H    0.036125
    56  H    0.051224
    57  H    0.030373
    58  H    0.093773
    59  H    0.023356
    60  H    0.108111
    61  H   -0.010394
    62  H   -0.020376
    63  H    0.050624
    64  H    0.036169
    65  H    0.031980
    66  H    0.022779
    67  H    0.038938
    68  H    0.053833
    69  H   -0.017928
    70  H    0.052663
    71  H    0.011878
    72  H    0.277006
    73  H   -0.050199
    74  H    0.013679
    75  H    0.017219
    76  H    0.014318
    77  H    0.208380
    78  H    0.009223
    79  H    0.016711
 Sum of Mulliken charges =   0.00000

 Dipole moment (field-independent basis, Debye):
    X=              1.4362    Y=              0.3122    Z=              3.2095  Tot=              3.5301
 Quadrupole moment (field-independent basis, Debye-Ang):
   XX=           -205.2489   YY=           -247.1864   ZZ=           -266.8225
   XY=             -7.7798   XZ=             31.0187   YZ=              0.1095

 Normal termination of Gaussian 09 at Mon Jul  8 09:19:50 2019.
