 Gaussian 09, Revision D.01,
 Gaussian 09:  ES64L-G09RevD.01 24-Apr-2013

 --------------------------
 # td=(NStates=1) B3LYP/SVP
 --------------------------

 --
 TD
 --
 Symbolic Z-matrix:
 Charge =  0 Multiplicity = 1

                         Standard orientation:
 ---------------------------------------------------------------------
 Center     Atomic      Atomic             Coordinates (Angstroms)
 Number     Number       Type             X           Y           Z
 ---------------------------------------------------------------------
      1          8           0        5.220755   -0.463151   -3.413043
      2          8           0       -2.686742   -3.129731    3.524380
      3          8           0       -3.253928   -0.898316    3.313418
      4          8           0       -1.176528    7.135949    1.610972
      5          8           0       -0.497224    7.090516   -0.593811
      6          8           0       -1.968361   -3.906894   -0.008226
      7          7           0        2.345206    0.843498    0.442746
      8          7           0        4.397435   -0.656233   -1.309827
      9          7           0       -1.937525    0.675040   -0.365006
     10          7           0       -2.779946   -1.846520   -0.437235
     11          6           0        4.847017   -1.288358   -0.032193
     12          6           0        4.498605   -0.309381    1.173029
     13          6           0        3.034901    0.054703    1.322583
     14          6           0        2.010902   -0.510641    2.084028
     15          6           0        0.730159    0.036022    1.814545
     16          6           0        0.970741    0.925841    0.711755
     17          6           0        6.336318   -1.410072   -0.199785
     18          6           0       -0.614162   -0.236672    2.471493
     19          6           0        6.645377   -1.074851   -1.474297
     20          6           0        0.168426    1.901740    0.040005
     21          6           0       -1.125913    1.775223   -0.300452
     22          6           0        5.437204   -0.736302   -2.211568
     23          6           0       -1.943493    2.886384   -0.761866
     24          6           0        2.294910   -1.482017    3.290689
     25          6           0        7.160562   -2.049579    0.886984
     26          6           0       -3.178112    2.397091   -1.244811
     27          6           0       -1.007497   -1.713465    2.620958
     28          6           0       -3.147588    0.935466   -0.926174
     29          6           0       -1.534532    4.407054   -0.965117
     30          6           0        7.960942   -0.900707   -2.147137
     31          6           0       -1.551180    5.198338    0.404481
     32          6           0       -4.407280    3.114894   -1.931450
     33          6           0       -4.144276    0.034668   -1.307780
     34          6           0       -2.366000   -1.842515    3.146472
     35          6           0       -3.947437   -1.361985   -0.972207
     36          6           0        9.178134   -0.800960   -1.609267
     37          6           0       -0.954377    6.497309    0.447883
     38          6           0       -4.790313   -2.464138   -1.486854
     39          6           0       -4.174725   -3.634122   -1.001948
     40          6           0       -2.902651   -3.188532   -0.340176
     41          6           0       -6.008197   -2.272499   -2.189193
     42          6           0       -4.503216   -5.037688   -1.251462
     43          6           0       -6.927149   -3.200377   -2.704334
     44          1           0        4.462063   -2.277536    0.288103
     45          1           0        5.113190    0.473988    0.949262
     46          1           0        4.851644   -0.838994    2.214915
     47          1           0        2.708316    1.506031   -0.105921
     48          1           0        3.428172   -0.498883   -1.758230
     49          1           0       -0.766677    0.165466    3.471000
     50          1           0       -1.530979    0.301026    2.005447
     51          1           0        0.914996    2.759273   -0.381210
     52          1           0        3.367795   -1.477949    3.581332
     53          1           0        1.742577   -1.136918    4.248871
     54          1           0        2.078796   -2.534482    2.894806
     55          1           0        6.574390   -2.885190    1.337067
     56          1           0        7.136825   -1.166751    1.701056
     57          1           0        8.154174   -2.215281    0.557734
     58          1           0       -0.955074   -2.183873    1.612962
     59          1           0       -0.164438   -2.269847    3.241434
     60          1           0       -1.729916   -0.181118   -0.027877
     61          1           0       -2.041292    4.903520   -1.942861
     62          1           0       -0.440648    4.229198   -1.353272
     63          1           0        7.945319   -1.045142   -3.257961
     64          1           0       -1.070070    4.475854    1.166752
     65          1           0       -2.613216    5.172910    0.882343
     66          1           0       -4.046111    4.084815   -1.915824
     67          1           0       -5.381689    3.266885   -1.277876
     68          1           0       -4.173575    2.646755   -2.931666
     69          1           0       -5.182836    0.306623   -1.711598
     70          1           0        9.184202   -0.427465   -0.427345
     71          1           0       10.087529   -0.868634   -2.283922
     72          1           0       -3.525447   -3.096565    3.806521
     73          1           0       -6.175685   -1.327948   -2.419632
     74          1           0       -4.790559   -5.291648   -2.269321
     75          1           0       -3.894036   -5.664563   -0.732469
     76          1           0       -5.503681   -5.180990   -0.788804
     77          1           0       -0.658961    7.889108    1.735963
     78          1           0       -7.866075   -2.971025   -3.411733
     79          1           0       -6.795575   -4.277363   -2.623305
 ---------------------------------------------------------------------

 SCF Done:  E(RB3LYP) =  -1947.85641020     A.U. after   19 cycles

 Excitation energies and oscillator strengths:

 Excited State   1:      Singlet-A      2.0097 eV  616.93 nm  f=0.2344  <S**2>=0.000
     154 ->156         0.43384
     155 ->156         0.54640
 This state for optimization and/or second-order correction.
 Total Energy, E(TD-HF/TD-KS) =  -1947.78255504
 Copying the excited state density for this state as the 1-particle RhoCI density.

 The electronic state is 1-A.
 Alpha  occ. eigenvalues --  -19.19234 -19.16922 -19.12794 -19.11770 -19.09733
 Alpha  occ. eigenvalues --  -19.09516 -14.38244 -14.37039 -14.35873 -14.28353
 Alpha  occ. eigenvalues --  -10.33293 -10.32090 -10.28123 -10.26011 -10.25550
 Alpha  occ. eigenvalues --  -10.25335 -10.24855 -10.23900 -10.23610 -10.23579
 Alpha  occ. eigenvalues --  -10.23555 -10.23190 -10.23158 -10.22971 -10.22969
 Alpha  occ. eigenvalues --  -10.22578 -10.21948 -10.21675 -10.21500 -10.21327
 Alpha  occ. eigenvalues --  -10.21076 -10.21026 -10.20797 -10.20652 -10.20460
 Alpha  occ. eigenvalues --  -10.20296 -10.20189 -10.19967 -10.19930 -10.19914
 Alpha  occ. eigenvalues --  -10.19744 -10.19612 -10.17937  -1.10314  -1.08266
 Alpha  occ. eigenvalues --   -1.01171  -1.00949  -0.99760  -0.99293  -0.98532
 Alpha  occ. eigenvalues --   -0.96133  -0.92976  -0.91318  -0.82581  -0.82554
 Alpha  occ. eigenvalues --   -0.81780  -0.81368  -0.80178  -0.79778  -0.78531
 Alpha  occ. eigenvalues --   -0.77801  -0.77182  -0.76106  -0.74874  -0.72872
 Alpha  occ. eigenvalues --   -0.72328  -0.71179  -0.69794  -0.69616  -0.69273
 Alpha  occ. eigenvalues --   -0.68044  -0.66418  -0.64137  -0.62044  -0.61322
 Alpha  occ. eigenvalues --   -0.59908  -0.59522  -0.58793  -0.58183  -0.57807
 Alpha  occ. eigenvalues --   -0.56927  -0.56121  -0.55464  -0.54358  -0.53170
 Alpha  occ. eigenvalues --   -0.52653  -0.51992  -0.51681  -0.50944  -0.49908
 Alpha  occ. eigenvalues --   -0.49366  -0.48686  -0.48031  -0.47777  -0.47283
 Alpha  occ. eigenvalues --   -0.47013  -0.46872  -0.46580  -0.46106  -0.45846
 Alpha  occ. eigenvalues --   -0.45478  -0.45274  -0.44715  -0.44177  -0.43606
 Alpha  occ. eigenvalues --   -0.43365  -0.43260  -0.42852  -0.42414  -0.42281
 Alpha  occ. eigenvalues --   -0.42159  -0.41745  -0.41589  -0.41323  -0.41149
 Alpha  occ. eigenvalues --   -0.40639  -0.40149  -0.40108  -0.39767  -0.39529
 Alpha  occ. eigenvalues --   -0.39167  -0.39042  -0.38735  -0.38571  -0.38433
 Alpha  occ. eigenvalues --   -0.38241  -0.38078  -0.37701  -0.37313  -0.37022
 Alpha  occ. eigenvalues --   -0.36148  -0.35650  -0.35436  -0.35063  -0.34813
 Alpha  occ. eigenvalues --   -0.34294  -0.33555  -0.32541  -0.31959  -0.31661
 Alpha  occ. eigenvalues --   -0.31344  -0.30138  -0.28516  -0.28024  -0.26864
 Alpha  occ. eigenvalues --   -0.26744  -0.26382  -0.26231  -0.25686  -0.25249
 Alpha  occ. eigenvalues --   -0.24642  -0.24074  -0.23964  -0.21262  -0.19415
 Alpha virt. eigenvalues --   -0.11267  -0.07078  -0.06371  -0.03087  -0.01783
 Alpha virt. eigenvalues --   -0.01298   0.00378   0.00513   0.02187   0.02839
 Alpha virt. eigenvalues --    0.03288   0.04370   0.04663   0.05051   0.05406

 Mulliken charges:
               1
     1  O   -0.257967
     2  O   -0.131769
     3  O   -0.320532
     4  O   -0.148318
     5  O   -0.284922
     6  O   -0.214509
     7  N   -0.026041
     8  N   -0.233842
     9  N    0.023179
    10  N   -0.266528
    11  C    0.095812
    12  C    0.172739
    13  C   -0.041332
    14  C   -0.164067
    15  C   -0.000603
    16  C   -0.021826
    17  C   -0.199105
    18  C    0.015128
    19  C   -0.029024
    20  C   -0.148985
    21  C    0.163196
    22  C    0.140067
    23  C   -0.123434
    24  C    0.029683
    25  C    0.109637
    26  C   -0.198599
    27  C   -0.032960
    28  C    0.134899
    29  C    0.029249
    30  C   -0.012662
    31  C   -0.027757
    32  C    0.131568
    33  C   -0.148824
    34  C    0.180042
    35  C    0.082007
    36  C   -0.080714
    37  C    0.175772
    38  C    0.040516
    39  C   -0.217754
    40  C    0.128255
    41  C    0.044687
    42  C    0.178958
    43  C   -0.080973
    44  H    0.026529
    45  H   -0.042987
    46  H    0.029011
    47  H    0.066348
    48  H    0.161444
    49  H    0.001706
    50  H    0.032402
    51  H    0.039171
    52  H   -0.001154
    53  H    0.049216
    54  H    0.053941
    55  H    0.040549
    56  H    0.045152
    57  H    0.027279
    58  H    0.083009
    59  H    0.051683
    60  H    0.089341
    61  H    0.063881
    62  H    0.032308
    63  H    0.028151
    64  H    0.056457
    65  H    0.065112
    66  H   -0.023756
    67  H    0.069017
    68  H    0.062616
    69  H    0.030772
    70  H    0.044276
    71  H    0.049179
    72  H    0.130947
    73  H   -0.078741
    74  H    0.028079
    75  H   -0.007714
    76  H    0.008706
    77  H    0.166090
    78  H    0.049876
    79  H    0.009753
 Sum of Mulliken charges =   0.00000

 Dipole moment (field-independent basis, Debye):
    X=              1.6249    Y=              2.2219    Z=              4.0345  Tot=              4.8841
 Quadrupole moment (field-independent basis, Debye-Ang):
   XX=           -219.8735   YY=           -251.7917   ZZ=           -264.5656
   XY=             -6.9256   XZ=             34.3729   YZ=              8.1010

 Normal termination of Gaussian 09 at Mon Jul  8 19:57:41 2019.
