 Gaussian 09, Revision D.01,
 Gaussian 09:  ES64L-G09RevD.01 24-Apr-2013

 --------------------------
 # td=(NStates=1) B3LYP/SVP
 --------------------------

 --
 TD
 --
 Symbolic Z-matrix:
 Charge =  0 Multiplicity = 1

                         Standard orientation:
 ---------------------------------------------------------------------
 Center     Atomic      Atomic             Coordinates (Angstroms)
 Number     Number       Type             X           Y           Z
 ---------------------------------------------------------------------
      1          8           0        5.367756   -0.250826   -3.255246
      2          8           0       -3.028510   -2.994342    3.079223
      3          8           0       -3.313002   -0.708812    3.535122
      4          8           0       -1.545106    7.187802    1.487527
      5          8           0       -0.228010    6.920670   -0.267555
      6          8           0       -2.089316   -3.986823    0.008753
      7          7           0        2.389155    0.930299    0.646889
      8          7           0        4.443301   -0.580055   -1.211689
      9          7           0       -1.771181    0.657936   -0.440730
     10          7           0       -2.755764   -1.744133   -0.606567
     11          6           0        4.882014   -1.170736    0.012442
     12          6           0        4.416593   -0.261076    1.165094
     13          6           0        3.034837   -0.103951    1.357802
     14          6           0        1.979758   -0.647800    2.101750
     15          6           0        0.805897   -0.107009    1.735065
     16          6           0        1.034616    0.823926    0.832525
     17          6           0        6.337809   -1.435836   -0.106182
     18          6           0       -0.514730   -0.363910    2.469731
     19          6           0        6.672667   -1.008147   -1.412543
     20          6           0        0.305554    1.839048    0.081357
     21          6           0       -0.996449    1.804913   -0.326959
     22          6           0        5.473460   -0.531033   -2.115913
     23          6           0       -1.852991    2.983159   -0.874124
     24          6           0        2.083731   -1.887791    3.133982
     25          6           0        7.120208   -1.990174    0.876822
     26          6           0       -3.061676    2.500969   -1.328558
     27          6           0       -1.090563   -1.727917    2.538958
     28          6           0       -2.980022    0.971543   -1.085689
     29          6           0       -1.447201    4.352783   -0.905391
     30          6           0        7.885992   -1.046655   -2.084535
     31          6           0       -1.724784    5.143815    0.331100
     32          6           0       -4.232116    3.106634   -1.994164
     33          6           0       -3.942812    0.033194   -1.334016
     34          6           0       -2.561992   -1.606937    3.015679
     35          6           0       -3.841870   -1.296785   -1.142949
     36          6           0        9.189845   -0.941355   -1.532379
     37          6           0       -1.069743    6.532828    0.420115
     38          6           0       -4.788832   -2.512797   -1.441275
     39          6           0       -4.134277   -3.616892   -1.088456
     40          6           0       -2.761485   -3.167739   -0.544683
     41          6           0       -6.082688   -2.267565   -2.204195
     42          6           0       -4.533396   -4.956798   -1.227146
     43          6           0       -7.125155   -3.232033   -2.343126
     44          1           0        4.604285   -2.043808    0.284256
     45          1           0        5.093770    0.622845    0.944071
     46          1           0        4.700042   -0.863003    2.067362
     47          1           0        3.032005    1.253339   -0.339698
     48          1           0        3.549003   -0.370390   -1.523565
     49          1           0       -0.184209   -0.094376    3.598701
     50          1           0       -1.231506    0.460909    2.261297
     51          1           0        0.840414    2.912230   -0.146709
     52          1           0        3.067518   -2.045614    3.578315
     53          1           0        1.486615   -1.753169    4.001759
     54          1           0        1.726598   -2.852687    2.717206
     55          1           0        6.500614   -2.491645    1.745239
     56          1           0        7.608824   -1.287516    1.702411
     57          1           0        7.941132   -2.664624    0.454660
     58          1           0       -1.163143   -2.060091    1.497201
     59          1           0       -0.635267   -2.427871    3.046674
     60          1           0       -1.550918   -0.227968   -0.296487
     61          1           0       -1.611782    5.064592   -1.810713
     62          1           0       -0.235037    4.283740   -1.125518
     63          1           0        7.860003   -1.271534   -3.238921
     64          1           0       -1.201550    4.636140    1.169324
     65          1           0       -2.752434    4.996540    0.710447
     66          1           0       -4.170837    4.307636   -1.971637
     67          1           0       -5.053721    2.894226   -1.167758
     68          1           0       -4.425528    2.640642   -2.911748
     69          1           0       -4.899505    0.505968   -1.860139
     70          1           0        9.404215   -0.790321   -0.467922
     71          1           0       10.013849   -0.989035   -2.284222
     72          1           0       -3.981797   -2.981315    3.679638
     73          1           0       -6.225401   -1.298782   -2.520204
     74          1           0       -5.257368   -5.256999   -2.209893
     75          1           0       -3.765830   -5.730611   -1.036711
     76          1           0       -5.277568   -5.170635   -0.477940
     77          1           0       -0.898293    7.921523    1.581844
     78          1           0       -7.930789   -2.917950   -3.173846
     79          1           0       -7.306663   -4.371313   -1.775541
 ---------------------------------------------------------------------

 SCF Done:  E(RB3LYP) =  -1947.74822013     A.U. after   16 cycles

 Excitation energies and oscillator strengths:

 Excited State   1:      Singlet-A      2.3044 eV  538.04 nm  f=0.5112  <S**2>=0.000
     155 ->156         0.69691
 This state for optimization and/or second-order correction.
 Total Energy, E(TD-HF/TD-KS) =  -1947.66353605
 Copying the excited state density for this state as the 1-particle RhoCI density.

 The electronic state is 1-A.
 Alpha  occ. eigenvalues --  -19.18882 -19.16181 -19.14031 -19.13110 -19.11496
 Alpha  occ. eigenvalues --  -19.09972 -14.38139 -14.36504 -14.35380 -14.29108
 Alpha  occ. eigenvalues --  -10.32627 -10.32341 -10.27893 -10.27241 -10.25555
 Alpha  occ. eigenvalues --  -10.24906 -10.23397 -10.23070 -10.22652 -10.22625
 Alpha  occ. eigenvalues --  -10.22342 -10.22291 -10.22254 -10.22250 -10.22228
 Alpha  occ. eigenvalues --  -10.22184 -10.22135 -10.21954 -10.21611 -10.21291
 Alpha  occ. eigenvalues --  -10.21075 -10.20980 -10.20701 -10.20275 -10.19969
 Alpha  occ. eigenvalues --  -10.19770 -10.19716 -10.19436 -10.19355 -10.19193
 Alpha  occ. eigenvalues --  -10.18811 -10.18369 -10.18220  -1.12543  -1.04899
 Alpha  occ. eigenvalues --   -1.03629  -1.03230  -1.02699  -0.98436  -0.97649
 Alpha  occ. eigenvalues --   -0.95814  -0.94869  -0.92861  -0.84017  -0.83812
 Alpha  occ. eigenvalues --   -0.82499  -0.81397  -0.80803  -0.79828  -0.78330
 Alpha  occ. eigenvalues --   -0.77435  -0.77240  -0.75749  -0.74132  -0.73060
 Alpha  occ. eigenvalues --   -0.72149  -0.71484  -0.69539  -0.68776  -0.68109
 Alpha  occ. eigenvalues --   -0.66784  -0.65767  -0.64034  -0.62101  -0.60819
 Alpha  occ. eigenvalues --   -0.59466  -0.58655  -0.58157  -0.57501  -0.56892
 Alpha  occ. eigenvalues --   -0.56241  -0.55553  -0.55039  -0.54705  -0.53523
 Alpha  occ. eigenvalues --   -0.52819  -0.51962  -0.51540  -0.50996  -0.50196
 Alpha  occ. eigenvalues --   -0.49784  -0.49230  -0.48541  -0.48344  -0.47718
 Alpha  occ. eigenvalues --   -0.47195  -0.46966  -0.46633  -0.46043  -0.45935
 Alpha  occ. eigenvalues --   -0.45402  -0.45069  -0.44735  -0.44282  -0.44075
 Alpha  occ. eigenvalues --   -0.43743  -0.43291  -0.42766  -0.42520  -0.42308
 Alpha  occ. eigenvalues --   -0.42226  -0.41651  -0.41520  -0.41289  -0.40996
 Alpha  occ. eigenvalues --   -0.40681  -0.40347  -0.40059  -0.39752  -0.39638
 Alpha  occ. eigenvalues --   -0.39393  -0.39237  -0.39144  -0.38987  -0.38604
 Alpha  occ. eigenvalues --   -0.38304  -0.38135  -0.37881  -0.37233  -0.37126
 Alpha  occ. eigenvalues --   -0.36452  -0.36303  -0.35766  -0.35280  -0.34874
 Alpha  occ. eigenvalues --   -0.34506  -0.34256  -0.33190  -0.32085  -0.30427
 Alpha  occ. eigenvalues --   -0.30215  -0.29791  -0.29665  -0.28439  -0.27567
 Alpha  occ. eigenvalues --   -0.27238  -0.27115  -0.26481  -0.26098  -0.25599
 Alpha  occ. eigenvalues --   -0.24196  -0.23718  -0.23139  -0.22106  -0.19263
 Alpha virt. eigenvalues --   -0.10036  -0.07010  -0.05542  -0.01768  -0.01544
 Alpha virt. eigenvalues --   -0.00766   0.00512   0.01003   0.01089   0.02502
 Alpha virt. eigenvalues --    0.02852   0.03328   0.03925   0.04180   0.04441

 Mulliken charges:
               1
     1  O   -0.170696
     2  O   -0.329643
     3  O   -0.273502
     4  O   -0.177426
     5  O   -0.158389
     6  O   -0.174395
     7  N   -0.198125
     8  N   -0.171497
     9  N   -0.012842
    10  N   -0.301129
    11  C    0.230372
    12  C    0.129081
    13  C   -0.056483
    14  C   -0.112683
    15  C   -0.050127
    16  C    0.082767
    17  C   -0.077531
    18  C    0.002950
    19  C   -0.046644
    20  C   -0.137729
    21  C    0.102050
    22  C    0.110404
    23  C   -0.030586
    24  C    0.091536
    25  C   -0.024253
    26  C   -0.102156
    27  C    0.125334
    28  C    0.063804
    29  C   -0.058771
    30  C   -0.109610
    31  C    0.015847
    32  C    0.073705
    33  C   -0.143928
    34  C    0.206201
    35  C    0.089342
    36  C   -0.047349
    37  C    0.104651
    38  C    0.051167
    39  C   -0.176694
    40  C    0.191782
    41  C    0.024608
    42  C    0.037891
    43  C   -0.119695
    44  H   -0.065130
    45  H    0.012066
    46  H   -0.019893
    47  H    0.177849
    48  H    0.102500
    49  H    0.021808
    50  H    0.026596
    51  H    0.038660
    52  H   -0.003394
    53  H   -0.004650
    54  H    0.040871
    55  H    0.018206
    56  H    0.052043
    57  H    0.062434
    58  H    0.054607
    59  H   -0.014361
    60  H    0.068778
    61  H    0.038692
    62  H    0.028393
    63  H    0.046730
    64  H    0.031281
    65  H    0.028019
    66  H    0.045823
    67  H    0.054369
    68  H    0.042730
    69  H   -0.002934
    70  H    0.026493
    71  H    0.038847
    72  H    0.230969
    73  H   -0.027327
    74  H    0.036545
    75  H    0.023641
    76  H    0.016112
    77  H    0.176187
    78  H    0.045051
    79  H    0.079775
 Sum of Mulliken charges =   0.00000

 Dipole moment (field-independent basis, Debye):
    X=              1.0722    Y=              2.0877    Z=              2.5865  Tot=              3.4926
 Quadrupole moment (field-independent basis, Debye-Ang):
   XX=           -225.3876   YY=           -245.6274   ZZ=           -263.3188
   XY=            -12.9010   XZ=             33.5957   YZ=             -2.3860

 Normal termination of Gaussian 09 at Wed Jul 10 12:06:57 2019.
