 Gaussian 09, Revision D.01,
 Gaussian 09:  ES64L-G09RevD.01 24-Apr-2013

 --------------------------
 # td=(NStates=1) B3LYP/SVP
 --------------------------

 --
 TD
 --
 Symbolic Z-matrix:
 Charge =  0 Multiplicity = 1

                         Standard orientation:
 ---------------------------------------------------------------------
 Center     Atomic      Atomic             Coordinates (Angstroms)
 Number     Number       Type             X           Y           Z
 ---------------------------------------------------------------------
      1          8           0        5.394646   -0.101498   -3.351903
      2          8           0       -3.024390   -3.137770    3.223629
      3          8           0       -3.256112   -0.935833    3.503255
      4          8           0       -0.912249    7.127450    1.770097
      5          8           0       -0.102317    6.944791   -0.287965
      6          8           0       -2.240314   -3.927081   -0.129712
      7          7           0        2.359495    0.644282    0.515169
      8          7           0        4.383511   -0.723211   -1.313939
      9          7           0       -1.895359    0.746732   -0.387439
     10          7           0       -2.879416   -1.671731   -0.486622
     11          6           0        4.858712   -1.341701   -0.119044
     12          6           0        4.444109   -0.601058    1.171378
     13          6           0        2.973574   -0.272526    1.278873
     14          6           0        1.975638   -0.815528    2.094571
     15          6           0        0.729565   -0.291334    1.795128
     16          6           0        1.019523    0.689001    0.851876
     17          6           0        6.299225   -1.417353   -0.269331
     18          6           0       -0.654993   -0.330688    2.565331
     19          6           0        6.666329   -0.925439   -1.407448
     20          6           0        0.287767    1.706930    0.186215
     21          6           0       -0.977010    1.805766   -0.338720
     22          6           0        5.413347   -0.484702   -2.170864
     23          6           0       -1.773620    2.992149   -0.738365
     24          6           0        2.196205   -1.943139    3.125582
     25          6           0        7.105809   -2.184432    0.850319
     26          6           0       -3.057360    2.585770   -1.173904
     27          6           0       -1.195894   -1.785406    2.485855
     28          6           0       -3.087477    1.069022   -0.930120
     29          6           0       -1.207247    4.432737   -0.878126
     30          6           0        7.983499   -0.946895   -2.155596
     31          6           0       -1.403765    5.064188    0.483920
     32          6           0       -4.178438    3.361238   -1.766647
     33          6           0       -4.145996    0.191581   -1.304903
     34          6           0       -2.499618   -1.838572    3.080080
     35          6           0       -4.002412   -1.213501   -1.092178
     36          6           0        9.158909   -1.001314   -1.549412
     37          6           0       -0.693199    6.475128    0.554225
     38          6           0       -4.962792   -2.268005   -1.572453
     39          6           0       -4.328420   -3.438007   -1.175375
     40          6           0       -3.009882   -3.101282   -0.542300
     41          6           0       -6.296662   -1.892036   -2.075641
     42          6           0       -4.780443   -4.887714   -1.362996
     43          6           0       -7.019324   -2.691675   -2.887595
     44          1           0        4.479580   -2.368299    0.117926
     45          1           0        4.999055    0.462107    1.252805
     46          1           0        4.869815   -1.234143    1.979488
     47          1           0        2.959501    1.222500   -0.252607
     48          1           0        3.441942   -0.945598   -1.789141
     49          1           0       -0.333269    0.181619    3.666939
     50          1           0       -1.377979    0.363291    2.064163
     51          1           0        0.972020    2.608550   -0.125883
     52          1           0        3.301157   -1.941536    3.386032
     53          1           0        1.673951   -1.691116    3.999572
     54          1           0        1.980643   -2.934465    2.808877
     55          1           0        6.295589   -2.875230    1.433391
     56          1           0        7.801544   -1.667418    1.623458
     57          1           0        7.646865   -2.803243    0.364901
     58          1           0       -1.278208   -2.128888    1.544409
     59          1           0       -0.663481   -2.761682    3.031462
     60          1           0       -1.611641   -0.333712   -0.030964
     61          1           0       -1.659508    4.993155   -1.564096
     62          1           0       -0.284847    4.424554   -1.068049
     63          1           0        7.918894   -0.639088   -3.215397
     64          1           0       -1.073515    4.579542    1.248768
     65          1           0       -2.394254    5.082369    0.579633
     66          1           0       -3.775655    4.377618   -1.907612
     67          1           0       -4.930533    3.137286   -1.231912
     68          1           0       -4.524717    2.945106   -2.709061
     69          1           0       -5.114344    0.438615   -1.864302
     70          1           0        9.381174   -1.005943   -0.462402
     71          1           0        9.860938   -0.942990   -2.221206
     72          1           0       -3.906580   -3.100516    3.904894
     73          1           0       -6.670999   -0.880568   -1.836142
     74          1           0       -4.841626   -4.997128   -2.531299
     75          1           0       -3.961334   -5.366135   -0.849177
     76          1           0       -5.723346   -5.131880   -1.064211
     77          1           0       -0.398947    7.933942    1.712913
     78          1           0       -7.916656   -2.200102   -3.224149
     79          1           0       -6.818917   -3.740767   -2.955431
 ---------------------------------------------------------------------

 SCF Done:  E(RB3LYP) =  -1947.79593500     A.U. after   16 cycles

 Excitation energies and oscillator strengths:

 Excited State   1:      Singlet-A      2.1809 eV  568.51 nm  f=0.4648  <S**2>=0.000
     154 ->156         0.15250
     155 ->156         0.68662
     155 <-156        -0.10289
 This state for optimization and/or second-order correction.
 Total Energy, E(TD-HF/TD-KS) =  -1947.71578930
 Copying the excited state density for this state as the 1-particle RhoCI density.

 The electronic state is 1-A.
 Alpha  occ. eigenvalues --  -19.17170 -19.15373 -19.14302 -19.10960 -19.10598
 Alpha  occ. eigenvalues --  -19.10574 -14.39288 -14.37330 -14.36875 -14.28714
 Alpha  occ. eigenvalues --  -10.32045 -10.30261 -10.29330 -10.26263 -10.25337
 Alpha  occ. eigenvalues --  -10.25282 -10.24178 -10.23102 -10.23028 -10.22836
 Alpha  occ. eigenvalues --  -10.22727 -10.22550 -10.22221 -10.22032 -10.21835
 Alpha  occ. eigenvalues --  -10.21523 -10.21320 -10.20601 -10.20467 -10.20303
 Alpha  occ. eigenvalues --  -10.20217 -10.19834 -10.19629 -10.19409 -10.19340
 Alpha  occ. eigenvalues --  -10.19143 -10.18999 -10.18907 -10.18903 -10.18749
 Alpha  occ. eigenvalues --  -10.18671 -10.18375 -10.18170  -1.12103  -1.04112
 Alpha  occ. eigenvalues --   -1.02580  -1.02395  -1.02178  -0.99525  -0.96786
 Alpha  occ. eigenvalues --   -0.96009  -0.94633  -0.90553  -0.83184  -0.82915
 Alpha  occ. eigenvalues --   -0.81765  -0.80970  -0.79793  -0.79636  -0.78388
 Alpha  occ. eigenvalues --   -0.77773  -0.77088  -0.75813  -0.74507  -0.72694
 Alpha  occ. eigenvalues --   -0.72285  -0.71560  -0.69729  -0.68955  -0.67940
 Alpha  occ. eigenvalues --   -0.66908  -0.66275  -0.63266  -0.61360  -0.60081
 Alpha  occ. eigenvalues --   -0.59781  -0.58593  -0.57979  -0.56909  -0.56706
 Alpha  occ. eigenvalues --   -0.55686  -0.55390  -0.55196  -0.54547  -0.53359
 Alpha  occ. eigenvalues --   -0.52123  -0.51984  -0.51424  -0.50662  -0.50424
 Alpha  occ. eigenvalues --   -0.49061  -0.48973  -0.48893  -0.48330  -0.47649
 Alpha  occ. eigenvalues --   -0.47479  -0.47401  -0.46655  -0.45801  -0.45284
 Alpha  occ. eigenvalues --   -0.45100  -0.44776  -0.44242  -0.44101  -0.43613
 Alpha  occ. eigenvalues --   -0.43242  -0.43051  -0.42951  -0.42779  -0.42633
 Alpha  occ. eigenvalues --   -0.42357  -0.41984  -0.41763  -0.41531  -0.41293
 Alpha  occ. eigenvalues --   -0.41213  -0.40783  -0.40536  -0.39833  -0.39793
 Alpha  occ. eigenvalues --   -0.39723  -0.39134  -0.39006  -0.38693  -0.38609
 Alpha  occ. eigenvalues --   -0.38559  -0.38501  -0.37627  -0.37223  -0.37003
 Alpha  occ. eigenvalues --   -0.36841  -0.36023  -0.35829  -0.35507  -0.34789
 Alpha  occ. eigenvalues --   -0.34233  -0.33515  -0.33430  -0.33410  -0.32635
 Alpha  occ. eigenvalues --   -0.30698  -0.29530  -0.28932  -0.28573  -0.27934
 Alpha  occ. eigenvalues --   -0.27877  -0.26182  -0.25850  -0.25578  -0.25290
 Alpha  occ. eigenvalues --   -0.25008  -0.23861  -0.23604  -0.21898  -0.18776
 Alpha virt. eigenvalues --   -0.10162  -0.06098  -0.05211  -0.00759   0.00112
 Alpha virt. eigenvalues --    0.00231   0.00946   0.01626   0.02026   0.02451
 Alpha virt. eigenvalues --    0.03298   0.03932   0.04276   0.04633   0.04748

 Mulliken charges:
               1
     1  O   -0.242400
     2  O   -0.306976
     3  O   -0.272118
     4  O   -0.219351
     5  O   -0.132695
     6  O   -0.195390
     7  N   -0.105832
     8  N   -0.186172
     9  N   -0.153180
    10  N   -0.342271
    11  C    0.066418
    12  C    0.125275
    13  C   -0.057856
    14  C   -0.184938
    15  C   -0.085822
    16  C    0.081447
    17  C   -0.135686
    18  C    0.029031
    19  C   -0.079742
    20  C   -0.129913
    21  C    0.101205
    22  C    0.135827
    23  C   -0.175524
    24  C    0.133089
    25  C    0.098577
    26  C   -0.191906
    27  C    0.067553
    28  C    0.167508
    29  C    0.321682
    30  C   -0.030401
    31  C    0.083393
    32  C    0.261280
    33  C   -0.142757
    34  C    0.150215
    35  C    0.031152
    36  C    0.051840
    37  C    0.108486
    38  C    0.064420
    39  C   -0.234138
    40  C    0.183656
    41  C   -0.065077
    42  C    0.117234
    43  C    0.016323
    44  H    0.022896
    45  H    0.011621
    46  H   -0.000575
    47  H    0.175729
    48  H    0.166840
    49  H    0.064363
    50  H    0.043330
    51  H    0.011253
    52  H   -0.011013
    53  H    0.001090
    54  H    0.026247
    55  H    0.027403
    56  H    0.063386
    57  H   -0.021474
    58  H    0.011721
    59  H    0.069828
    60  H    0.228272
    61  H   -0.038632
    62  H   -0.083335
    63  H    0.029528
    64  H   -0.023871
    65  H   -0.012183
    66  H    0.024961
    67  H   -0.039544
    68  H    0.006821
    69  H   -0.010637
    70  H    0.026114
    71  H   -0.020233
    72  H    0.238596
    73  H    0.013661
    74  H    0.038969
    75  H    0.032848
    76  H    0.001705
    77  H    0.163454
    78  H    0.018330
    79  H    0.017066
 Sum of Mulliken charges =   0.00000

 Dipole moment (field-independent basis, Debye):
    X=              2.4352    Y=              1.5724    Z=              2.1001  Tot=              3.5795
 Quadrupole moment (field-independent basis, Debye-Ang):
   XX=           -216.8121   YY=           -248.7838   ZZ=           -264.3939
   XY=            -12.5320   XZ=             33.7505   YZ=             -1.2362

 Normal termination of Gaussian 09 at Tue Jul  9 13:04:16 2019.
