 Gaussian 09, Revision D.01,
 Gaussian 09:  ES64L-G09RevD.01 24-Apr-2013

 --------------------------
 # td=(NStates=1) B3LYP/SVP
 --------------------------

 --
 TD
 --
 Symbolic Z-matrix:
 Charge =  0 Multiplicity = 1

                         Standard orientation:
 ---------------------------------------------------------------------
 Center     Atomic      Atomic             Coordinates (Angstroms)
 Number     Number       Type             X           Y           Z
 ---------------------------------------------------------------------
      1          8           0        5.259369   -0.155759   -3.301496
      2          8           0       -2.802381   -3.006929    3.425216
      3          8           0       -3.364886   -0.893197    3.147617
      4          8           0       -1.611151    7.250023    1.377689
      5          8           0       -0.517835    6.838925   -0.557564
      6          8           0       -1.804898   -3.933311   -0.105228
      7          7           0        2.377062    0.884952    0.479539
      8          7           0        4.364186   -0.663828   -1.226336
      9          7           0       -1.906175    0.681716   -0.299140
     10          7           0       -2.616120   -1.863693   -0.437451
     11          6           0        4.798157   -1.188845    0.021701
     12          6           0        4.404711   -0.202033    1.280739
     13          6           0        3.039300    0.014151    1.403498
     14          6           0        2.017148   -0.604709    2.131019
     15          6           0        0.740778   -0.017120    1.831103
     16          6           0        1.047917    0.907451    0.703979
     17          6           0        6.383270   -1.287050   -0.168183
     18          6           0       -0.508300   -0.270281    2.565786
     19          6           0        6.654199   -0.895767   -1.405439
     20          6           0        0.152641    1.885911    0.191436
     21          6           0       -1.190593    1.840274   -0.237319
     22          6           0        5.358029   -0.456940   -2.109812
     23          6           0       -1.983613    2.869553   -0.768506
     24          6           0        2.264779   -1.544166    3.195534
     25          6           0        7.286558   -1.872226    0.906058
     26          6           0       -3.164919    2.353130   -1.249210
     27          6           0       -1.104666   -1.684528    2.535148
     28          6           0       -3.094265    0.942468   -0.984308
     29          6           0       -1.539079    4.332149   -0.862369
     30          6           0        7.969171   -0.895925   -2.070723
     31          6           0       -1.838877    5.139002    0.390937
     32          6           0       -4.332603    3.072130   -1.825031
     33          6           0       -4.029314   -0.030389   -1.263124
     34          6           0       -2.543656   -1.756530    3.118061
     35          6           0       -3.759001   -1.428295   -0.985964
     36          6           0        9.213854   -0.741553   -1.667973
     37          6           0       -1.271271    6.483278    0.277787
     38          6           0       -4.705944   -2.611130   -1.468424
     39          6           0       -4.037685   -3.669205   -1.132302
     40          6           0       -2.626679   -3.227027   -0.523563
     41          6           0       -5.926294   -2.401564   -2.157222
     42          6           0       -4.408934   -5.149696   -1.210059
     43          6           0       -6.660758   -3.405384   -2.673298
     44          1           0        4.513308   -2.156807    0.332256
     45          1           0        4.988304    0.715646    1.194961
     46          1           0        4.784381   -0.772272    2.060927
     47          1           0        2.876415    1.184695   -0.431546
     48          1           0        3.348341   -0.759691   -1.453203
     49          1           0       -0.255757   -0.044747    3.668627
     50          1           0       -1.326639    0.582375    2.519570
     51          1           0        0.616625    2.718616    0.003037
     52          1           0        3.181048   -1.697889    3.247732
     53          1           0        1.853868   -1.311823    4.223895
     54          1           0        1.796938   -2.446010    3.024583
     55          1           0        6.869242   -2.311120    1.738193
     56          1           0        7.737372   -0.934477    1.332742
     57          1           0        8.071749   -2.424827    0.278538
     58          1           0       -1.049145   -2.205944    1.453293
     59          1           0       -0.594006   -2.446202    2.925452
     60          1           0       -1.677943   -0.355148   -0.085656
     61          1           0       -2.258833    4.642264   -1.843967
     62          1           0       -0.453546    4.377875   -1.310897
     63          1           0        7.564450   -0.932588   -3.109166
     64          1           0       -1.338971    4.825504    1.290774
     65          1           0       -2.883634    5.102974    0.797475
     66          1           0       -4.140155    3.970578   -2.095808
     67          1           0       -5.425090    2.907969   -1.268698
     68          1           0       -4.937686    2.637203   -2.902014
     69          1           0       -4.890493    0.256466   -1.753496
     70          1           0        9.373482   -0.758682   -0.557481
     71          1           0        9.979262   -0.648798   -2.363262
     72          1           0       -3.803819   -2.955131    3.535369
     73          1           0       -6.431666   -1.288990   -2.467033
     74          1           0       -4.292345   -5.583756   -2.231650
     75          1           0       -3.623220   -5.686374   -0.524821
     76          1           0       -5.440753   -5.422216   -0.776800
     77          1           0       -1.149043    7.938222    1.132302
     78          1           0       -7.653216   -3.328686   -3.153831
     79          1           0       -6.351618   -4.455041   -2.676290
 ---------------------------------------------------------------------

 SCF Done:  E(RB3LYP) =  -1947.82334566     A.U. after   16 cycles

 Excitation energies and oscillator strengths:

 Excited State   1:      Singlet-A      2.1111 eV  587.31 nm  f=0.5549  <S**2>=0.000
     155 ->156         0.70680
     155 <-156        -0.12596
 This state for optimization and/or second-order correction.
 Total Energy, E(TD-HF/TD-KS) =  -1947.74576537
 Copying the excited state density for this state as the 1-particle RhoCI density.

 The electronic state is 1-A.
 Alpha  occ. eigenvalues --  -19.17802 -19.17688 -19.14187 -19.11576 -19.10779
 Alpha  occ. eigenvalues --  -19.10613 -14.38761 -14.37309 -14.35325 -14.29510
 Alpha  occ. eigenvalues --  -10.32470 -10.30613 -10.29614 -10.26544 -10.25373
 Alpha  occ. eigenvalues --  -10.24090 -10.23654 -10.23577 -10.23506 -10.22977
 Alpha  occ. eigenvalues --  -10.22630 -10.22235 -10.21826 -10.21709 -10.21515
 Alpha  occ. eigenvalues --  -10.21399 -10.21130 -10.20769 -10.20688 -10.20424
 Alpha  occ. eigenvalues --  -10.20381 -10.20073 -10.19913 -10.19828 -10.19728
 Alpha  occ. eigenvalues --  -10.19538 -10.19413 -10.19324 -10.19070 -10.19013
 Alpha  occ. eigenvalues --  -10.18794 -10.18134 -10.17153  -1.12547  -1.10436
 Alpha  occ. eigenvalues --   -1.04888  -1.03765  -1.02767  -1.00246  -0.97941
 Alpha  occ. eigenvalues --   -0.97533  -0.95300  -0.92145  -0.82880  -0.82690
 Alpha  occ. eigenvalues --   -0.82473  -0.81460  -0.81078  -0.80041  -0.78736
 Alpha  occ. eigenvalues --   -0.77248  -0.76382  -0.75593  -0.74209  -0.72572
 Alpha  occ. eigenvalues --   -0.72461  -0.71892  -0.69797  -0.68769  -0.68578
 Alpha  occ. eigenvalues --   -0.67097  -0.66367  -0.63491  -0.62736  -0.60492
 Alpha  occ. eigenvalues --   -0.59616  -0.59105  -0.58889  -0.58389  -0.56848
 Alpha  occ. eigenvalues --   -0.56102  -0.55614  -0.54878  -0.54374  -0.53058
 Alpha  occ. eigenvalues --   -0.52523  -0.51937  -0.51252  -0.50985  -0.50068
 Alpha  occ. eigenvalues --   -0.49747  -0.49442  -0.48949  -0.48534  -0.48118
 Alpha  occ. eigenvalues --   -0.47741  -0.47135  -0.46772  -0.46630  -0.46130
 Alpha  occ. eigenvalues --   -0.45693  -0.45556  -0.44968  -0.44486  -0.44084
 Alpha  occ. eigenvalues --   -0.43832  -0.43630  -0.43208  -0.43130  -0.43006
 Alpha  occ. eigenvalues --   -0.42937  -0.42596  -0.42381  -0.42250  -0.41717
 Alpha  occ. eigenvalues --   -0.41401  -0.41302  -0.40960  -0.40568  -0.40504
 Alpha  occ. eigenvalues --   -0.40187  -0.40095  -0.39693  -0.39527  -0.38886
 Alpha  occ. eigenvalues --   -0.37888  -0.37668  -0.37352  -0.37086  -0.36833
 Alpha  occ. eigenvalues --   -0.35654  -0.35377  -0.35116  -0.34781  -0.34393
 Alpha  occ. eigenvalues --   -0.33863  -0.33648  -0.33321  -0.31877  -0.31413
 Alpha  occ. eigenvalues --   -0.31091  -0.31006  -0.29913  -0.28569  -0.28049
 Alpha  occ. eigenvalues --   -0.27607  -0.27497  -0.26221  -0.25399  -0.25145
 Alpha  occ. eigenvalues --   -0.24672  -0.24404  -0.23544  -0.22772  -0.18382
 Alpha virt. eigenvalues --   -0.10362  -0.05819  -0.04786  -0.01017  -0.00006
 Alpha virt. eigenvalues --    0.00341   0.01111   0.01645   0.02861   0.03040
 Alpha virt. eigenvalues --    0.03639   0.03944   0.04820   0.05040   0.05521

 Mulliken charges:
               1
     1  O   -0.232856
     2  O   -0.158801
     3  O   -0.217118
     4  O   -0.132798
     5  O   -0.190613
     6  O   -0.144802
     7  N   -0.130651
     8  N   -0.164743
     9  N   -0.111637
    10  N   -0.264071
    11  C    0.054847
    12  C    0.225473
    13  C   -0.060076
    14  C   -0.160716
    15  C   -0.052455
    16  C    0.060353
    17  C   -0.197845
    18  C    0.029964
    19  C   -0.115616
    20  C   -0.049150
    21  C    0.114446
    22  C    0.171174
    23  C   -0.089252
    24  C    0.289540
    25  C    0.115762
    26  C   -0.047051
    27  C    0.017926
    28  C    0.115812
    29  C   -0.004824
    30  C   -0.005207
    31  C    0.060494
    32  C    0.052500
    33  C   -0.066985
    34  C    0.105871
    35  C    0.077021
    36  C    0.010997
    37  C    0.107806
    38  C    0.119532
    39  C   -0.238504
    40  C    0.126758
    41  C   -0.075860
    42  C    0.019182
    43  C   -0.060914
    44  H    0.005520
    45  H   -0.005776
    46  H   -0.038277
    47  H    0.152366
    48  H    0.153087
    49  H    0.004231
    50  H    0.043900
    51  H   -0.095058
    52  H   -0.108181
    53  H    0.012124
    54  H   -0.014082
    55  H   -0.001472
    56  H    0.039803
    57  H    0.064836
    58  H    0.083184
    59  H   -0.040528
    60  H    0.185224
    61  H    0.044434
    62  H    0.060382
    63  H    0.012999
    64  H    0.030650
    65  H    0.046316
    66  H   -0.044768
    67  H    0.053410
    68  H    0.024739
    69  H   -0.082644
    70  H    0.016355
    71  H    0.016209
    72  H    0.183140
    73  H    0.042037
    74  H    0.042064
    75  H    0.035535
    76  H    0.041108
    77  H    0.099696
    78  H    0.022618
    79  H    0.011907
 Sum of Mulliken charges =   0.00000

 Dipole moment (field-independent basis, Debye):
    X=              0.8353    Y=              1.0141    Z=              3.1986  Tot=              3.4579
 Quadrupole moment (field-independent basis, Debye-Ang):
   XX=           -222.3207   YY=           -250.2868   ZZ=           -264.2134
   XY=             -9.0589   XZ=             34.2475   YZ=              0.2985

 Normal termination of Gaussian 09 at Sun Jul  7 14:59:46 2019.
