 Gaussian 09, Revision D.01,
 Gaussian 09:  ES64L-G09RevD.01 24-Apr-2013

 --------------------------
 # td=(NStates=1) B3LYP/SVP
 --------------------------

 --
 TD
 --
 Symbolic Z-matrix:
 Charge =  0 Multiplicity = 1

                         Standard orientation:
 ---------------------------------------------------------------------
 Center     Atomic      Atomic             Coordinates (Angstroms)
 Number     Number       Type             X           Y           Z
 ---------------------------------------------------------------------
      1          8           0        5.204686   -0.271240   -3.376760
      2          8           0       -2.691423   -3.150857    3.327451
      3          8           0       -3.230528   -0.996740    3.102378
      4          8           0       -1.844841    7.295697    1.334660
      5          8           0       -0.536643    6.909121   -0.483607
      6          8           0       -1.966202   -4.016681   -0.084441
      7          7           0        2.425862    0.901688    0.533648
      8          7           0        4.442660   -0.665323   -1.221126
      9          7           0       -1.928638    0.622330   -0.251271
     10          7           0       -2.707187   -1.930086   -0.497697
     11          6           0        4.971412   -1.133988    0.109404
     12          6           0        4.540650   -0.256273    1.234781
     13          6           0        3.087141   -0.043275    1.319199
     14          6           0        2.157818   -0.579451    2.155644
     15          6           0        0.871374   -0.007800    1.806712
     16          6           0        1.100667    0.878599    0.815646
     17          6           0        6.440213   -1.183156   -0.155710
     18          6           0       -0.461133   -0.240798    2.505599
     19          6           0        6.677252   -0.774816   -1.476030
     20          6           0        0.214240    1.868685    0.148037
     21          6           0       -1.058072    1.782512   -0.194280
     22          6           0        5.423697   -0.426412   -2.146920
     23          6           0       -1.895035    2.911426   -0.759186
     24          6           0        2.294179   -1.705419    3.194927
     25          6           0        7.245273   -1.809635    0.822948
     26          6           0       -3.094193    2.390338   -1.098311
     27          6           0       -1.006166   -1.689317    2.538097
     28          6           0       -3.147489    0.962664   -0.786798
     29          6           0       -1.438316    4.275173   -0.886693
     30          6           0        7.926196   -0.804870   -2.229473
     31          6           0       -1.796570    5.057761    0.414461
     32          6           0       -4.480631    3.025522   -1.577848
     33          6           0       -4.036559    0.000282   -1.240455
     34          6           0       -2.370116   -1.826751    3.048051
     35          6           0       -3.801842   -1.449432   -1.112823
     36          6           0        9.219425   -0.765283   -1.712138
     37          6           0       -1.347596    6.476636    0.297215
     38          6           0       -4.760839   -2.454220   -1.543927
     39          6           0       -4.169534   -3.601074   -1.119559
     40          6           0       -2.910324   -3.264365   -0.541601
     41          6           0       -6.112786   -2.337133   -2.032459
     42          6           0       -4.615752   -5.018298   -1.148539
     43          6           0       -6.887144   -3.235883   -2.759572
     44          1           0        4.537283   -2.197258    0.378638
     45          1           0        5.111011    0.833001    1.109425
     46          1           0        4.853705   -0.701255    2.233157
     47          1           0        2.915363    1.231574   -0.215597
     48          1           0        3.426951   -0.700891   -1.334746
     49          1           0       -0.302917    0.076688    3.601224
     50          1           0       -1.346387    0.376381    2.129580
     51          1           0        0.758116    2.672068   -0.028346
     52          1           0        3.423048   -1.924792    3.458249
     53          1           0        1.716273   -1.608511    4.111086
     54          1           0        1.941169   -2.786274    2.579916
     55          1           0        6.982633   -2.611603    1.414000
     56          1           0        7.516918   -1.113239    1.533143
     57          1           0        8.153592   -2.050285    0.357607
     58          1           0       -1.029221   -1.982518    1.404457
     59          1           0       -0.158653   -2.384161    3.173712
     60          1           0       -1.635291   -0.206391   -0.166632
     61          1           0       -1.929311    4.754555   -1.788575
     62          1           0       -0.333573    4.462670   -0.984633
     63          1           0        7.922020   -0.972810   -3.147938
     64          1           0       -1.373504    4.488784    1.379767
     65          1           0       -2.808329    4.906515    0.537077
     66          1           0       -4.381170    4.007041   -1.888446
     67          1           0       -5.408267    2.800575   -1.060978
     68          1           0       -4.795355    2.581482   -2.558553
     69          1           0       -5.059287    0.529110   -1.732762
     70          1           0        9.428705   -0.832876   -0.707023
     71          1           0       10.017819   -0.711739   -2.394956
     72          1           0       -3.624018   -3.176724    3.912069
     73          1           0       -6.495854   -1.322882   -2.155233
     74          1           0       -4.499397   -5.418625   -2.227734
     75          1           0       -3.889135   -5.762217   -0.548536
     76          1           0       -5.594838   -5.129977   -0.752237
     77          1           0       -1.554788    8.197019    1.105293
     78          1           0       -7.756101   -2.915159   -3.089440
     79          1           0       -6.515105   -4.193626   -3.468768
 ---------------------------------------------------------------------

 SCF Done:  E(RB3LYP) =  -1947.81281244     A.U. after   19 cycles

 Excitation energies and oscillator strengths:

 Excited State   1:      Singlet-A      2.0939 eV  592.12 nm  f=0.2386  <S**2>=0.000
     152 ->156        -0.28472
     154 ->156         0.24526
     155 ->156         0.58871
 This state for optimization and/or second-order correction.
 Total Energy, E(TD-HF/TD-KS) =  -1947.73586279
 Copying the excited state density for this state as the 1-particle RhoCI density.

 The electronic state is 1-A.
 Alpha  occ. eigenvalues --  -19.18178 -19.15594 -19.14703 -19.11131 -19.09811
 Alpha  occ. eigenvalues --  -19.09347 -14.37346 -14.36208 -14.35511 -14.29230
 Alpha  occ. eigenvalues --  -10.33601 -10.30073 -10.28569 -10.25522 -10.25321
 Alpha  occ. eigenvalues --  -10.25299 -10.25105 -10.24518 -10.23044 -10.22572
 Alpha  occ. eigenvalues --  -10.22472 -10.22407 -10.22379 -10.22318 -10.22297
 Alpha  occ. eigenvalues --  -10.22100 -10.21887 -10.21462 -10.21125 -10.21061
 Alpha  occ. eigenvalues --  -10.20966 -10.20909 -10.20739 -10.20345 -10.20173
 Alpha  occ. eigenvalues --  -10.19839 -10.19728 -10.19243 -10.19242 -10.19192
 Alpha  occ. eigenvalues --  -10.19024 -10.18987 -10.18675  -1.09427  -1.06218
 Alpha  occ. eigenvalues --   -1.01127  -1.00446  -0.99424  -0.99318  -0.98049
 Alpha  occ. eigenvalues --   -0.96898  -0.93051  -0.92185  -0.84588  -0.83092
 Alpha  occ. eigenvalues --   -0.82288  -0.81157  -0.81130  -0.80247  -0.79045
 Alpha  occ. eigenvalues --   -0.77856  -0.76401  -0.76016  -0.75064  -0.72926
 Alpha  occ. eigenvalues --   -0.72853  -0.71731  -0.70355  -0.69707  -0.68865
 Alpha  occ. eigenvalues --   -0.66557  -0.66063  -0.64475  -0.62205  -0.61534
 Alpha  occ. eigenvalues --   -0.60590  -0.59552  -0.58610  -0.58586  -0.57565
 Alpha  occ. eigenvalues --   -0.56363  -0.55591  -0.55333  -0.54670  -0.53410
 Alpha  occ. eigenvalues --   -0.52945  -0.52423  -0.51771  -0.51005  -0.50463
 Alpha  occ. eigenvalues --   -0.49291  -0.48882  -0.48785  -0.48391  -0.47674
 Alpha  occ. eigenvalues --   -0.47472  -0.47014  -0.46787  -0.45719  -0.45489
 Alpha  occ. eigenvalues --   -0.45189  -0.45061  -0.44687  -0.44424  -0.44037
 Alpha  occ. eigenvalues --   -0.43999  -0.43726  -0.43379  -0.42989  -0.42528
 Alpha  occ. eigenvalues --   -0.42260  -0.41637  -0.41385  -0.41248  -0.40878
 Alpha  occ. eigenvalues --   -0.40686  -0.40411  -0.40059  -0.39919  -0.39684
 Alpha  occ. eigenvalues --   -0.39329  -0.39105  -0.38942  -0.38505  -0.38388
 Alpha  occ. eigenvalues --   -0.37775  -0.37485  -0.37434  -0.37035  -0.36877
 Alpha  occ. eigenvalues --   -0.36742  -0.36378  -0.35587  -0.35011  -0.34717
 Alpha  occ. eigenvalues --   -0.33699  -0.33256  -0.33065  -0.31844  -0.31522
 Alpha  occ. eigenvalues --   -0.30586  -0.30091  -0.29934  -0.28506  -0.27833
 Alpha  occ. eigenvalues --   -0.27028  -0.26388  -0.26087  -0.25014  -0.24500
 Alpha  occ. eigenvalues --   -0.24098  -0.23963  -0.23513  -0.22550  -0.20106
 Alpha virt. eigenvalues --   -0.11481  -0.06859  -0.06684  -0.02768  -0.02407
 Alpha virt. eigenvalues --   -0.00305   0.00581   0.01043   0.02247   0.03084
 Alpha virt. eigenvalues --    0.03723   0.04329   0.04397   0.04968   0.05477

 Mulliken charges:
               1
     1  O   -0.265132
     2  O   -0.282261
     3  O   -0.213436
     4  O   -0.229138
     5  O   -0.209515
     6  O   -0.249930
     7  N   -0.027393
     8  N   -0.215249
     9  N   -0.018534
    10  N   -0.199091
    11  C    0.039390
    12  C    0.129880
    13  C   -0.118180
    14  C   -0.093880
    15  C   -0.066346
    16  C    0.028260
    17  C   -0.140630
    18  C    0.006872
    19  C   -0.014388
    20  C   -0.052256
    21  C    0.192354
    22  C    0.184831
    23  C   -0.076661
    24  C   -0.005229
    25  C    0.214208
    26  C   -0.115250
    27  C   -0.092492
    28  C    0.102694
    29  C    0.049221
    30  C    0.038910
    31  C   -0.012528
    32  C    0.127160
    33  C   -0.142804
    34  C    0.162314
    35  C    0.077407
    36  C    0.012513
    37  C    0.181687
    38  C    0.043869
    39  C   -0.162951
    40  C    0.130726
    41  C   -0.039663
    42  C    0.059293
    43  C   -0.029079
    44  H    0.044128
    45  H    0.021030
    46  H    0.011474
    47  H    0.076496
    48  H    0.132182
    49  H    0.011286
    50  H    0.035876
    51  H   -0.073341
    52  H    0.012700
    53  H    0.040560
    54  H    0.068530
    55  H    0.001794
    56  H   -0.003552
    57  H   -0.007446
    58  H    0.110828
    59  H    0.051977
    60  H    0.041700
    61  H    0.035135
    62  H    0.034462
    63  H   -0.079697
    64  H    0.078116
    65  H    0.009140
    66  H   -0.015175
    67  H    0.037791
    68  H    0.011946
    69  H    0.025460
    70  H   -0.013608
    71  H    0.018934
    72  H    0.226917
    73  H    0.002619
    74  H    0.040542
    75  H    0.047753
    76  H    0.023972
    77  H    0.181505
    78  H   -0.012721
    79  H    0.061110
 Sum of Mulliken charges =   0.00000

 Dipole moment (field-independent basis, Debye):
    X=             -0.4580    Y=              3.0073    Z=              2.8488  Tot=              4.1677
 Quadrupole moment (field-independent basis, Debye-Ang):
   XX=           -211.9301   YY=           -248.8869   ZZ=           -260.2490
   XY=            -15.6031   XZ=             39.2692   YZ=             -1.5603

 Normal termination of Gaussian 09 at Tue Jul  9 20:44:03 2019.
