 Gaussian 09, Revision D.01,
 Gaussian 09:  ES64L-G09RevD.01 24-Apr-2013

 --------------------------
 # td=(NStates=1) B3LYP/SVP
 --------------------------

 --
 TD
 --
 Symbolic Z-matrix:
 Charge =  0 Multiplicity = 1

                         Standard orientation:
 ---------------------------------------------------------------------
 Center     Atomic      Atomic             Coordinates (Angstroms)
 Number     Number       Type             X           Y           Z
 ---------------------------------------------------------------------
      1          8           0        5.368412   -0.215098   -3.376917
      2          8           0       -2.891079   -3.041140    3.200519
      3          8           0       -3.248017   -0.852138    3.285094
      4          8           0       -1.585783    7.180087    1.461427
      5          8           0       -0.485927    6.870511   -0.472573
      6          8           0       -1.812558   -3.941493    0.076061
      7          7           0        2.241390    0.916694    0.607171
      8          7           0        4.514099   -0.587582   -1.301090
      9          7           0       -1.952588    0.627186   -0.258126
     10          7           0       -2.728138   -1.953820   -0.211776
     11          6           0        4.907252   -1.094251   -0.003978
     12          6           0        4.513242   -0.179118    1.199005
     13          6           0        2.956708    0.007319    1.382356
     14          6           0        2.010564   -0.661938    2.076160
     15          6           0        0.771217   -0.053244    1.804632
     16          6           0        0.924658    0.952441    0.772024
     17          6           0        6.431888   -1.221213   -0.144669
     18          6           0       -0.609701   -0.255500    2.549330
     19          6           0        6.800109   -0.890118   -1.434769
     20          6           0        0.029451    1.894035    0.170529
     21          6           0       -1.249391    1.849246   -0.226156
     22          6           0        5.472792   -0.524673   -2.265455
     23          6           0       -2.001860    2.855411   -0.774303
     24          6           0        2.244790   -1.678886    3.196024
     25          6           0        7.134010   -1.781337    1.003641
     26          6           0       -3.266324    2.319062   -1.290605
     27          6           0       -1.149791   -1.669140    2.506169
     28          6           0       -3.148556    0.893983   -0.922323
     29          6           0       -1.627602    4.322183   -0.845225
     30          6           0        8.113715   -0.663540   -2.095075
     31          6           0       -2.044792    5.221936    0.301027
     32          6           0       -4.372195    2.926985   -2.036041
     33          6           0       -4.065879   -0.046867   -1.248608
     34          6           0       -2.524847   -1.794787    3.091273
     35          6           0       -3.688678   -1.397237   -0.987494
     36          6           0        9.302272   -0.804713   -1.453193
     37          6           0       -1.245990    6.556317    0.367823
     38          6           0       -4.544871   -2.577191   -1.488535
     39          6           0       -4.011185   -3.712439   -1.175612
     40          6           0       -2.755246   -3.264307   -0.444773
     41          6           0       -5.868482   -2.390975   -2.177090
     42          6           0       -4.269229   -5.245169   -1.212193
     43          6           0       -6.657914   -3.384615   -2.771206
     44          1           0        4.738795   -2.218197   -0.031162
     45          1           0        5.088309    0.778756    1.119747
     46          1           0        4.729340   -0.908917    2.040475
     47          1           0        2.474111    1.521765   -0.318391
     48          1           0        3.587813   -0.790986   -1.571089
     49          1           0       -0.413023    0.200375    3.693981
     50          1           0       -1.361066    0.326899    2.194515
     51          1           0        0.457690    2.971798    0.027296
     52          1           0        3.243804   -1.997520    3.282551
     53          1           0        1.899297   -1.140855    4.181088
     54          1           0        1.600796   -2.780347    3.122261
     55          1           0        6.455517   -2.441546    1.523732
     56          1           0        7.620256   -1.059875    1.894649
     57          1           0        7.964510   -2.291998    0.519708
     58          1           0       -1.321872   -1.827811    1.548164
     59          1           0       -0.575631   -2.487853    3.077455
     60          1           0       -1.856434   -0.479516   -0.130206
     61          1           0       -1.985439    4.909472   -1.822001
     62          1           0       -0.489394    4.358339   -1.080738
     63          1           0        7.965488   -0.441840   -3.184643
     64          1           0       -1.895560    4.737600    1.295503
     65          1           0       -2.999539    5.226417    0.304785
     66          1           0       -4.135912    4.060345   -2.243307
     67          1           0       -5.352215    2.850134   -1.720305
     68          1           0       -4.356661    2.487982   -3.127546
     69          1           0       -5.143105    0.199906   -1.899750
     70          1           0        9.554540   -1.126776   -0.472787
     71          1           0       10.098164   -0.550570   -2.140253
     72          1           0       -3.890396   -2.854741    3.538681
     73          1           0       -6.260417   -1.480553   -2.335302
     74          1           0       -4.115000   -5.461560   -2.287894
     75          1           0       -3.392550   -5.654210   -0.743178
     76          1           0       -5.092606   -5.299629   -0.890121
     77          1           0       -0.995920    7.988511    1.135234
     78          1           0       -7.666312   -2.819290   -3.312146
     79          1           0       -6.523906   -4.572807   -2.967291
 ---------------------------------------------------------------------

 SCF Done:  E(RB3LYP) =  -1947.72879286     A.U. after   22 cycles

 Excitation energies and oscillator strengths:

 Excited State   1:      Singlet-A      2.1759 eV  569.81 nm  f=0.4413  <S**2>=0.000
     152 ->156        -0.12094
     155 ->156         0.69551
     155 <-156        -0.10927
 This state for optimization and/or second-order correction.
 Total Energy, E(TD-HF/TD-KS) =  -1947.64883055
 Copying the excited state density for this state as the 1-particle RhoCI density.

 The electronic state is 1-A.
 Alpha  occ. eigenvalues --  -19.21315 -19.17522 -19.14900 -19.10936 -19.10056
 Alpha  occ. eigenvalues --  -19.09218 -14.38632 -14.35791 -14.34592 -14.30133
 Alpha  occ. eigenvalues --  -10.33487 -10.28950 -10.28472 -10.25883 -10.24741
 Alpha  occ. eigenvalues --  -10.24387 -10.24322 -10.24116 -10.23580 -10.23571
 Alpha  occ. eigenvalues --  -10.22661 -10.22530 -10.22484 -10.22077 -10.22034
 Alpha  occ. eigenvalues --  -10.21972 -10.21585 -10.21559 -10.21545 -10.21063
 Alpha  occ. eigenvalues --  -10.20765 -10.20586 -10.20446 -10.20039 -10.19905
 Alpha  occ. eigenvalues --  -10.19856 -10.19211 -10.19182 -10.19126 -10.19032
 Alpha  occ. eigenvalues --  -10.18647 -10.17464 -10.16460  -1.14118  -1.09139
 Alpha  occ. eigenvalues --   -1.05824  -1.04642  -0.99663  -0.99079  -0.98648
 Alpha  occ. eigenvalues --   -0.97016  -0.94746  -0.91920  -0.83165  -0.82015
 Alpha  occ. eigenvalues --   -0.81581  -0.80662  -0.80385  -0.78900  -0.78289
 Alpha  occ. eigenvalues --   -0.77342  -0.76142  -0.75329  -0.74696  -0.72935
 Alpha  occ. eigenvalues --   -0.70730  -0.70615  -0.70374  -0.69056  -0.67588
 Alpha  occ. eigenvalues --   -0.65961  -0.65310  -0.63872  -0.60900  -0.60234
 Alpha  occ. eigenvalues --   -0.59816  -0.58233  -0.57299  -0.56786  -0.56380
 Alpha  occ. eigenvalues --   -0.55675  -0.55199  -0.54599  -0.53808  -0.53523
 Alpha  occ. eigenvalues --   -0.52966  -0.52410  -0.51023  -0.50675  -0.50622
 Alpha  occ. eigenvalues --   -0.50073  -0.48449  -0.47856  -0.47489  -0.47388
 Alpha  occ. eigenvalues --   -0.47319  -0.46999  -0.46798  -0.46195  -0.45821
 Alpha  occ. eigenvalues --   -0.45277  -0.45045  -0.44699  -0.44392  -0.44129
 Alpha  occ. eigenvalues --   -0.43776  -0.43525  -0.43230  -0.42860  -0.42351
 Alpha  occ. eigenvalues --   -0.42306  -0.41890  -0.41604  -0.41320  -0.41031
 Alpha  occ. eigenvalues --   -0.40780  -0.40465  -0.40062  -0.39786  -0.39775
 Alpha  occ. eigenvalues --   -0.39424  -0.39172  -0.38793  -0.38697  -0.38428
 Alpha  occ. eigenvalues --   -0.38057  -0.37813  -0.37274  -0.37209  -0.36882
 Alpha  occ. eigenvalues --   -0.35766  -0.35477  -0.35152  -0.34112  -0.33767
 Alpha  occ. eigenvalues --   -0.33366  -0.33134  -0.33077  -0.32422  -0.31724
 Alpha  occ. eigenvalues --   -0.31428  -0.30524  -0.30477  -0.28397  -0.27432
 Alpha  occ. eigenvalues --   -0.27320  -0.25882  -0.25700  -0.25408  -0.24983
 Alpha  occ. eigenvalues --   -0.23759  -0.23722  -0.23343  -0.22979  -0.19424
 Alpha virt. eigenvalues --   -0.10912  -0.06418  -0.05591  -0.01548   0.00345
 Alpha virt. eigenvalues --    0.01565   0.01754   0.02198   0.02391   0.02926
 Alpha virt. eigenvalues --    0.03116   0.03801   0.04191   0.04383   0.04969

 Mulliken charges:
               1
     1  O   -0.149545
     2  O   -0.177130
     3  O   -0.252415
     4  O   -0.155668
     5  O   -0.195414
     6  O   -0.257822
     7  N   -0.096427
     8  N   -0.164336
     9  N   -0.183119
    10  N   -0.244691
    11  C    0.033366
    12  C    0.222245
    13  C   -0.076494
    14  C   -0.085280
    15  C   -0.112020
    16  C    0.058360
    17  C   -0.198367
    18  C    0.095181
    19  C   -0.113966
    20  C   -0.150216
    21  C    0.169247
    22  C    0.117591
    23  C   -0.060162
    24  C    0.015903
    25  C    0.045396
    26  C   -0.109655
    27  C    0.107331
    28  C    0.134391
    29  C   -0.022417
    30  C   -0.010928
    31  C    0.093474
    32  C    0.075095
    33  C   -0.210437
    34  C    0.084052
    35  C    0.108723
    36  C   -0.001203
    37  C    0.135079
    38  C   -0.005839
    39  C   -0.241336
    40  C    0.114563
    41  C    0.037270
    42  C    0.299655
    43  C   -0.128755
    44  H    0.038528
    45  H    0.023869
    46  H    0.007011
    47  H    0.155612
    48  H    0.108142
    49  H    0.011527
    50  H   -0.032961
    51  H    0.014150
    52  H   -0.009677
    53  H    0.047076
    54  H    0.060960
    55  H    0.016904
    56  H    0.058951
    57  H    0.036614
    58  H    0.002869
    59  H    0.030063
    60  H    0.208543
    61  H    0.030853
    62  H    0.027855
    63  H    0.026722
    64  H    0.026062
    65  H   -0.038827
    66  H    0.025608
    67  H    0.022032
    68  H    0.039934
    69  H    0.058543
    70  H    0.014768
    71  H    0.021306
    72  H    0.201636
    73  H   -0.059788
    74  H    0.021505
    75  H    0.022751
    76  H   -0.057169
    77  H    0.187935
    78  H    0.040655
    79  H    0.066156
 Sum of Mulliken charges =   0.00000

 Dipole moment (field-independent basis, Debye):
    X=             -0.0736    Y=              3.3935    Z=              1.2767  Tot=              3.6264
 Quadrupole moment (field-independent basis, Debye-Ang):
   XX=           -225.0390   YY=           -238.8870   ZZ=           -263.7876
   XY=            -12.5451   XZ=             34.9581   YZ=              1.4582

 Normal termination of Gaussian 09 at Wed Jul 10 11:52:29 2019.
