 Gaussian 09, Revision D.01,
 Gaussian 09:  ES64L-G09RevD.01 24-Apr-2013

 --------------------------
 # td=(NStates=1) B3LYP/SVP
 --------------------------

 --
 TD
 --
 Symbolic Z-matrix:
 Charge =  0 Multiplicity = 1

                         Standard orientation:
 ---------------------------------------------------------------------
 Center     Atomic      Atomic             Coordinates (Angstroms)
 Number     Number       Type             X           Y           Z
 ---------------------------------------------------------------------
      1          8           0        5.480173   -0.097807   -3.476797
      2          8           0       -2.605861   -3.372129    3.181345
      3          8           0       -2.938826   -1.185172    3.526398
      4          8           0       -1.545194    7.104461    1.803921
      5          8           0       -0.810866    7.072303   -0.353107
      6          8           0       -2.144450   -4.074883   -0.172203
      7          7           0        2.369869    0.888825    0.574946
      8          7           0        4.567508   -0.622435   -1.431574
      9          7           0       -1.983372    0.711220   -0.296772
     10          7           0       -2.797783   -1.791365   -0.540066
     11          6           0        4.961403   -1.191932   -0.081210
     12          6           0        4.499901   -0.301777    1.105461
     13          6           0        3.076446   -0.167725    1.248361
     14          6           0        2.037395   -0.835455    1.976409
     15          6           0        0.833278   -0.176030    1.657648
     16          6           0        1.019563    0.880854    0.794161
     17          6           0        6.394274   -1.296652   -0.172282
     18          6           0       -0.471427   -0.445757    2.649526
     19          6           0        6.832347   -0.795063   -1.396712
     20          6           0        0.203156    2.016990    0.220234
     21          6           0       -1.158869    1.853724   -0.226028
     22          6           0        5.561925   -0.389374   -2.327302
     23          6           0       -1.963541    2.930462   -0.696700
     24          6           0        2.245992   -1.928149    2.980792
     25          6           0        7.275119   -1.912388    0.891109
     26          6           0       -3.144654    2.506856   -1.185217
     27          6           0       -0.947631   -2.002373    2.514396
     28          6           0       -3.163237    1.014449   -0.861683
     29          6           0       -1.546525    4.412102   -0.803870
     30          6           0        8.126430   -0.683795   -2.107933
     31          6           0       -1.679152    5.077096    0.549586
     32          6           0       -4.330222    3.207784   -1.876729
     33          6           0       -4.144223    0.113240   -1.242792
     34          6           0       -2.200437   -2.118571    3.183912
     35          6           0       -3.980875   -1.273483   -1.024600
     36          6           0        9.262285   -0.630757   -1.553892
     37          6           0       -1.342803    6.467636    0.549396
     38          6           0       -4.932839   -2.454650   -1.505829
     39          6           0       -4.256288   -3.566426   -1.213432
     40          6           0       -2.963777   -3.209500   -0.537384
     41          6           0       -6.191849   -2.153308   -2.124725
     42          6           0       -4.820387   -4.989270   -1.278107
     43          6           0       -6.924436   -3.005662   -2.920863
     44          1           0        4.668805   -2.133057   -0.051512
     45          1           0        4.987883    0.749077    0.988469
     46          1           0        5.051690   -0.663837    2.074073
     47          1           0        2.746683    1.444104   -0.203991
     48          1           0        3.572031   -0.444428   -1.528776
     49          1           0       -0.403172   -0.341862    3.650978
     50          1           0       -1.338762    0.231988    2.508387
     51          1           0        0.590538    2.981225    0.152878
     52          1           0        3.424870   -1.938347    3.206691
     53          1           0        1.638573   -1.753193    3.953753
     54          1           0        2.059222   -2.931838    2.536420
     55          1           0        6.541763   -2.680601    1.463470
     56          1           0        7.626572   -1.210258    1.473628
     57          1           0        8.343652   -2.314069    0.417689
     58          1           0       -0.902915   -2.242367    1.410773
     59          1           0       -0.047467   -2.694196    2.803318
     60          1           0       -1.593717   -0.408664    0.039786
     61          1           0       -2.177522    4.830652   -1.538219
     62          1           0       -0.430644    4.391320   -1.090428
     63          1           0        8.147483   -0.584427   -3.212769
     64          1           0       -1.114748    4.686865    1.540566
     65          1           0       -2.729735    5.156653    0.915607
     66          1           0       -4.116292    4.275556   -2.128546
     67          1           0       -5.313653    3.591955   -1.252620
     68          1           0       -4.548501    2.764867   -2.816541
     69          1           0       -5.151428    0.280366   -1.764113
     70          1           0        9.500590   -0.556635   -0.474779
     71          1           0       10.143353   -0.451327   -2.118461
     72          1           0       -3.476875   -3.402436    3.722358
     73          1           0       -6.678388   -1.193368   -1.696986
     74          1           0       -4.367412   -5.511192   -2.350050
     75          1           0       -4.529484   -5.669313   -0.289499
     76          1           0       -5.845439   -4.997380   -0.975510
     77          1           0       -1.297097    8.091405    1.796844
     78          1           0       -8.086561   -2.847650   -3.202915
     79          1           0       -6.465328   -4.102055   -3.284378
 ---------------------------------------------------------------------

 SCF Done:  E(RB3LYP) =  -1947.80616592     A.U. after   16 cycles

 Excitation energies and oscillator strengths:

 Excited State   1:      Singlet-A      2.1974 eV  564.22 nm  f=0.4541  <S**2>=0.000
     153 ->156        -0.10793
     155 ->156         0.69003
 This state for optimization and/or second-order correction.
 Total Energy, E(TD-HF/TD-KS) =  -1947.72541174
 Copying the excited state density for this state as the 1-particle RhoCI density.

 The electronic state is 1-A.
 Alpha  occ. eigenvalues --  -19.17568 -19.17277 -19.13106 -19.11011 -19.10443
 Alpha  occ. eigenvalues --  -19.10418 -14.38574 -14.37836 -14.35263 -14.30236
 Alpha  occ. eigenvalues --  -10.32222 -10.30507 -10.28663 -10.26844 -10.25770
 Alpha  occ. eigenvalues --  -10.25296 -10.24166 -10.24092 -10.23708 -10.23607
 Alpha  occ. eigenvalues --  -10.23411 -10.23258 -10.22609 -10.22570 -10.22100
 Alpha  occ. eigenvalues --  -10.21982 -10.21906 -10.21861 -10.21669 -10.21570
 Alpha  occ. eigenvalues --  -10.21475 -10.21168 -10.21028 -10.20603 -10.20402
 Alpha  occ. eigenvalues --  -10.19943 -10.19906 -10.19746 -10.19718 -10.19295
 Alpha  occ. eigenvalues --  -10.19067 -10.19006 -10.17975  -1.08790  -1.07604
 Alpha  occ. eigenvalues --   -1.03545  -0.99730  -0.99263  -0.98170  -0.98129
 Alpha  occ. eigenvalues --   -0.97812  -0.93723  -0.90472  -0.83539  -0.82194
 Alpha  occ. eigenvalues --   -0.81051  -0.80473  -0.80225  -0.79547  -0.78869
 Alpha  occ. eigenvalues --   -0.77815  -0.76154  -0.75649  -0.73962  -0.72551
 Alpha  occ. eigenvalues --   -0.71278  -0.70632  -0.69712  -0.68811  -0.68130
 Alpha  occ. eigenvalues --   -0.66747  -0.66341  -0.63963  -0.60703  -0.60631
 Alpha  occ. eigenvalues --   -0.58597  -0.58043  -0.57788  -0.57457  -0.57039
 Alpha  occ. eigenvalues --   -0.56347  -0.55259  -0.54203  -0.53974  -0.53220
 Alpha  occ. eigenvalues --   -0.52525  -0.50970  -0.50655  -0.50369  -0.50062
 Alpha  occ. eigenvalues --   -0.49519  -0.48243  -0.47969  -0.47627  -0.47311
 Alpha  occ. eigenvalues --   -0.47154  -0.46769  -0.46368  -0.46235  -0.45408
 Alpha  occ. eigenvalues --   -0.45225  -0.44953  -0.44464  -0.44090  -0.43800
 Alpha  occ. eigenvalues --   -0.43190  -0.43127  -0.42934  -0.42539  -0.42198
 Alpha  occ. eigenvalues --   -0.41908  -0.41698  -0.41543  -0.40951  -0.40850
 Alpha  occ. eigenvalues --   -0.40516  -0.40061  -0.39853  -0.39764  -0.39434
 Alpha  occ. eigenvalues --   -0.39386  -0.39066  -0.38626  -0.38457  -0.38188
 Alpha  occ. eigenvalues --   -0.37815  -0.37509  -0.37373  -0.36631  -0.36046
 Alpha  occ. eigenvalues --   -0.35972  -0.35119  -0.34399  -0.34075  -0.33853
 Alpha  occ. eigenvalues --   -0.33655  -0.33077  -0.32243  -0.32208  -0.31990
 Alpha  occ. eigenvalues --   -0.31293  -0.30592  -0.28570  -0.28291  -0.27699
 Alpha  occ. eigenvalues --   -0.26955  -0.26888  -0.26768  -0.25514  -0.25149
 Alpha  occ. eigenvalues --   -0.24404  -0.24000  -0.23757  -0.22848  -0.19797
 Alpha virt. eigenvalues --   -0.11068  -0.06705  -0.04493  -0.01596  -0.00767
 Alpha virt. eigenvalues --   -0.00025   0.00352   0.02111   0.02900   0.03416
 Alpha virt. eigenvalues --    0.03883   0.03976   0.04194   0.04274   0.04712

 Mulliken charges:
               1
     1  O   -0.185071
     2  O   -0.167017
     3  O   -0.271200
     4  O   -0.284275
     5  O   -0.216294
     6  O   -0.227820
     7  N   -0.127133
     8  N   -0.230476
     9  N   -0.170046
    10  N   -0.332172
    11  C    0.244454
    12  C    0.061707
    13  C   -0.012982
    14  C   -0.107947
    15  C   -0.092429
    16  C    0.070835
    17  C   -0.223638
    18  C    0.070929
    19  C   -0.112086
    20  C   -0.056974
    21  C    0.111531
    22  C    0.171651
    23  C   -0.129022
    24  C    0.038708
    25  C    0.096046
    26  C   -0.096563
    27  C   -0.095313
    28  C    0.173444
    29  C    0.173163
    30  C    0.026903
    31  C   -0.029361
    32  C    0.062269
    33  C   -0.137535
    34  C    0.169983
    35  C    0.032003
    36  C   -0.039518
    37  C    0.131286
    38  C    0.084629
    39  C   -0.188400
    40  C    0.196469
    41  C   -0.044142
    42  C   -0.002577
    43  C   -0.117739
    44  H   -0.029335
    45  H    0.017510
    46  H    0.029307
    47  H    0.116640
    48  H    0.109503
    49  H   -0.027212
    50  H    0.020866
    51  H   -0.022229
    52  H    0.010290
    53  H    0.055116
    54  H    0.052266
    55  H    0.040246
    56  H   -0.004828
    57  H    0.055528
    58  H    0.078586
    59  H    0.034369
    60  H    0.270190
    61  H    0.002266
    62  H    0.033667
    63  H    0.019213
    64  H    0.083275
    65  H    0.038809
    66  H   -0.003684
    67  H    0.052786
    68  H    0.035088
    69  H    0.001870
    70  H    0.004887
    71  H    0.004957
    72  H    0.198366
    73  H    0.036281
    74  H    0.073299
    75  H    0.035809
    76  H    0.021662
    77  H    0.208848
    78  H    0.058484
    79  H    0.069023
 Sum of Mulliken charges =   0.00000

 Dipole moment (field-independent basis, Debye):
    X=             -0.7847    Y=              2.3712    Z=              3.5194  Tot=              4.3156
 Quadrupole moment (field-independent basis, Debye-Ang):
   XX=           -217.8386   YY=           -250.3169   ZZ=           -265.6366
   XY=             -7.5183   XZ=             33.3535   YZ=             -0.1703

 Normal termination of Gaussian 09 at Mon Jul  8 17:36:26 2019.
