 Gaussian 09, Revision D.01,
 Gaussian 09:  ES64L-G09RevD.01 24-Apr-2013

 --------------------------
 # td=(NStates=1) B3LYP/SVP
 --------------------------

 --
 TD
 --
 Symbolic Z-matrix:
 Charge =  0 Multiplicity = 1

                         Standard orientation:
 ---------------------------------------------------------------------
 Center     Atomic      Atomic             Coordinates (Angstroms)
 Number     Number       Type             X           Y           Z
 ---------------------------------------------------------------------
      1          8           0        5.319896   -0.123713   -3.329803
      2          8           0       -2.834923   -3.134989    3.479053
      3          8           0       -3.072485   -0.940649    3.644714
      4          8           0       -1.890163    7.100617    1.508657
      5          8           0       -0.446809    6.988954   -0.256073
      6          8           0       -2.054082   -4.181504   -0.400531
      7          7           0        2.453550    0.852967    0.560786
      8          7           0        4.497531   -0.616789   -1.280648
      9          7           0       -1.764580    0.640856   -0.456986
     10          7           0       -2.653871   -1.916598   -0.744813
     11          6           0        4.897312   -1.190407   -0.004861
     12          6           0        4.539967   -0.288360    1.111994
     13          6           0        3.049088   -0.230013    1.317377
     14          6           0        2.039101   -0.712143    2.069561
     15          6           0        0.864096   -0.048363    1.732892
     16          6           0        1.084866    0.920517    0.782372
     17          6           0        6.493223   -1.353787   -0.235861
     18          6           0       -0.493045   -0.347708    2.565351
     19          6           0        6.672838   -0.871791   -1.444000
     20          6           0        0.252862    1.857425    0.115587
     21          6           0       -1.041278    1.752879   -0.362199
     22          6           0        5.437859   -0.462867   -2.177022
     23          6           0       -1.888733    2.875609   -0.753623
     24          6           0        2.349812   -1.694513    3.250611
     25          6           0        7.347996   -1.921521    0.843312
     26          6           0       -3.110062    2.429323   -1.201379
     27          6           0       -1.030740   -1.786157    2.592322
     28          6           0       -3.034846    1.009492   -0.921330
     29          6           0       -1.435969    4.384687   -0.956712
     30          6           0        7.975580   -0.616535   -2.121243
     31          6           0       -1.949256    5.144462    0.322388
     32          6           0       -4.255477    3.056475   -1.779915
     33          6           0       -4.057715   -0.041416   -1.196078
     34          6           0       -2.381720   -1.872648    3.233036
     35          6           0       -3.875025   -1.398283   -1.070094
     36          6           0        9.172701   -0.626695   -1.553540
     37          6           0       -1.379198    6.551874    0.481943
     38          6           0       -4.949104   -2.479814   -1.409704
     39          6           0       -4.270307   -3.682385   -1.218142
     40          6           0       -2.865417   -3.319270   -0.667918
     41          6           0       -6.178524   -2.137947   -2.047485
     42          6           0       -4.564711   -5.158114   -1.359581
     43          6           0       -7.108406   -2.931136   -2.546736
     44          1           0        4.507581   -2.087776    0.051663
     45          1           0        4.895648    0.708702    1.061411
     46          1           0        4.828303   -0.759201    2.196997
     47          1           0        2.955398    1.431956   -0.180646
     48          1           0        3.571989   -0.753695   -1.449429
     49          1           0       -0.459092    0.000079    3.630245
     50          1           0       -1.145830    0.274309    2.034103
     51          1           0        0.796331    2.899113    0.078832
     52          1           0        3.439178   -1.823895    3.464864
     53          1           0        1.704472   -1.596912    4.141395
     54          1           0        1.772898   -2.703047    3.019347
     55          1           0        6.873290   -2.730840    1.549635
     56          1           0        7.618283   -1.215068    1.659520
     57          1           0        8.386046   -2.258192    0.357801
     58          1           0       -1.185441   -2.036623    1.439983
     59          1           0       -0.317767   -2.616426    2.947740
     60          1           0       -1.686604   -0.427155   -0.586762
     61          1           0       -1.902982    4.696701   -1.937555
     62          1           0       -0.408718    4.558499   -0.999486
     63          1           0        8.041469   -0.427676   -3.103247
     64          1           0       -1.600087    4.694713    1.339267
     65          1           0       -3.117129    5.326548    0.523987
     66          1           0       -4.308262    4.205721   -1.640144
     67          1           0       -5.264316    2.551557   -1.343838
     68          1           0       -4.127940    3.006416   -3.098248
     69          1           0       -4.952300    0.368764   -1.628541
     70          1           0        9.448874   -0.959588   -0.535889
     71          1           0       10.123997   -0.506253   -2.229269
     72          1           0       -3.592594   -3.012815    3.980396
     73          1           0       -6.248462   -1.029757   -2.016904
     74          1           0       -4.591720   -5.248812   -2.571903
     75          1           0       -3.832614   -5.685197   -0.901471
     76          1           0       -5.512777   -5.337801   -1.109546
     77          1           0       -1.486035    7.920528    1.499874
     78          1           0       -8.055143   -2.613832   -3.070736
     79          1           0       -6.914443   -4.071030   -2.637901
 ---------------------------------------------------------------------

 SCF Done:  E(RB3LYP) =  -1947.85599110     A.U. after   16 cycles

 Excitation energies and oscillator strengths:

 Excited State   1:      Singlet-A      2.1571 eV  574.76 nm  f=0.3857  <S**2>=0.000
     154 ->156         0.26270
     155 ->156         0.65272
     155 <-156        -0.10571
 This state for optimization and/or second-order correction.
 Total Energy, E(TD-HF/TD-KS) =  -1947.77671760
 Copying the excited state density for this state as the 1-particle RhoCI density.

 The electronic state is 1-A.
 Alpha  occ. eigenvalues --  -19.21594 -19.16194 -19.13069 -19.11289 -19.09972
 Alpha  occ. eigenvalues --  -19.09681 -14.37996 -14.36853 -14.35131 -14.29733
 Alpha  occ. eigenvalues --  -10.33203 -10.31139 -10.28140 -10.26316 -10.25724
 Alpha  occ. eigenvalues --  -10.25183 -10.24082 -10.24009 -10.23517 -10.23229
 Alpha  occ. eigenvalues --  -10.23186 -10.23172 -10.23125 -10.22913 -10.22841
 Alpha  occ. eigenvalues --  -10.22395 -10.22266 -10.22204 -10.21399 -10.21331
 Alpha  occ. eigenvalues --  -10.20757 -10.20027 -10.20013 -10.19970 -10.19806
 Alpha  occ. eigenvalues --  -10.19715 -10.19692 -10.19557 -10.19500 -10.19486
 Alpha  occ. eigenvalues --  -10.19311 -10.18893 -10.18063  -1.15777  -1.08780
 Alpha  occ. eigenvalues --   -1.03654  -1.01089  -0.99921  -0.99379  -0.98323
 Alpha  occ. eigenvalues --   -0.97531  -0.95900  -0.90534  -0.83142  -0.82834
 Alpha  occ. eigenvalues --   -0.82185  -0.80576  -0.80389  -0.80033  -0.78231
 Alpha  occ. eigenvalues --   -0.77207  -0.76366  -0.75876  -0.74761  -0.72959
 Alpha  occ. eigenvalues --   -0.72215  -0.71442  -0.69987  -0.69431  -0.69058
 Alpha  occ. eigenvalues --   -0.67160  -0.66747  -0.63920  -0.62003  -0.61732
 Alpha  occ. eigenvalues --   -0.60885  -0.59623  -0.59138  -0.58296  -0.57064
 Alpha  occ. eigenvalues --   -0.56143  -0.55492  -0.55270  -0.54275  -0.53061
 Alpha  occ. eigenvalues --   -0.52659  -0.51855  -0.51571  -0.50707  -0.50182
 Alpha  occ. eigenvalues --   -0.49390  -0.49331  -0.49138  -0.48506  -0.47917
 Alpha  occ. eigenvalues --   -0.46990  -0.46824  -0.46584  -0.46336  -0.45643
 Alpha  occ. eigenvalues --   -0.45481  -0.45223  -0.45069  -0.44491  -0.44057
 Alpha  occ. eigenvalues --   -0.43815  -0.42895  -0.42650  -0.42547  -0.42363
 Alpha  occ. eigenvalues --   -0.42098  -0.42056  -0.41543  -0.41270  -0.41066
 Alpha  occ. eigenvalues --   -0.40944  -0.40897  -0.40697  -0.40284  -0.39949
 Alpha  occ. eigenvalues --   -0.39637  -0.39299  -0.39226  -0.38811  -0.38684
 Alpha  occ. eigenvalues --   -0.38385  -0.38332  -0.37817  -0.36898  -0.36575
 Alpha  occ. eigenvalues --   -0.36218  -0.35889  -0.34883  -0.34432  -0.34250
 Alpha  occ. eigenvalues --   -0.34043  -0.33238  -0.33025  -0.32689  -0.31875
 Alpha  occ. eigenvalues --   -0.31217  -0.30669  -0.28799  -0.28514  -0.28485
 Alpha  occ. eigenvalues --   -0.27428  -0.26860  -0.26466  -0.25829  -0.25140
 Alpha  occ. eigenvalues --   -0.24938  -0.23948  -0.23767  -0.21881  -0.19625
 Alpha virt. eigenvalues --   -0.11175  -0.06172  -0.05119  -0.01036  -0.00620
 Alpha virt. eigenvalues --    0.00336   0.00763   0.01489   0.02050   0.02661
 Alpha virt. eigenvalues --    0.03510   0.04192   0.04470   0.04706   0.05568

 Mulliken charges:
               1
     1  O   -0.206351
     2  O   -0.151870
     3  O   -0.258581
     4  O   -0.047096
     5  O   -0.292805
     6  O   -0.206286
     7  N   -0.177503
     8  N   -0.114403
     9  N   -0.074029
    10  N   -0.332720
    11  C    0.141745
    12  C    0.187245
    13  C   -0.087645
    14  C   -0.090245
    15  C   -0.139719
    16  C    0.087523
    17  C   -0.115684
    18  C    0.144572
    19  C   -0.063788
    20  C   -0.141173
    21  C    0.131779
    22  C    0.130233
    23  C   -0.131635
    24  C    0.069214
    25  C    0.011134
    26  C   -0.033214
    27  C   -0.074846
    28  C    0.017533
    29  C    0.180663
    30  C    0.063127
    31  C   -0.102671
    32  C   -0.054468
    33  C   -0.088927
    34  C    0.142066
    35  C    0.116188
    36  C   -0.082621
    37  C    0.111668
    38  C    0.050863
    39  C   -0.272185
    40  C    0.172209
    41  C    0.015483
    42  C    0.200283
    43  C   -0.070660
    44  H   -0.033891
    45  H   -0.002729
    46  H    0.020212
    47  H    0.135529
    48  H    0.091537
    49  H    0.021702
    50  H   -0.017549
    51  H    0.029936
    52  H    0.029155
    53  H    0.009977
    54  H    0.026205
    55  H    0.035460
    56  H    0.037520
    57  H    0.063654
    58  H    0.096210
    59  H    0.043770
    60  H    0.180523
    61  H    0.037056
    62  H    0.000455
    63  H   -0.039432
    64  H    0.062990
    65  H    0.056763
    66  H    0.039038
    67  H    0.074991
    68  H    0.063976
    69  H   -0.040037
    70  H    0.006763
    71  H    0.035674
    72  H    0.144682
    73  H   -0.014639
    74  H    0.039078
    75  H    0.009019
    76  H   -0.010944
    77  H    0.144012
    78  H    0.034197
    79  H    0.026726
 Sum of Mulliken charges =   0.00000

 Dipole moment (field-independent basis, Debye):
    X=              0.4116    Y=              3.6702    Z=              3.7142  Tot=              5.2379
 Quadrupole moment (field-independent basis, Debye-Ang):
   XX=           -225.3578   YY=           -243.8877   ZZ=           -263.6774
   XY=            -21.1527   XZ=             35.1739   YZ=              2.5540

 Normal termination of Gaussian 09 at Mon Jul  8 19:37:42 2019.
