 Gaussian 09, Revision D.01,
 Gaussian 09:  ES64L-G09RevD.01 24-Apr-2013

 --------------------------
 # td=(NStates=1) B3LYP/SVP
 --------------------------

 --
 TD
 --
 Symbolic Z-matrix:
 Charge =  0 Multiplicity = 1

                         Standard orientation:
 ---------------------------------------------------------------------
 Center     Atomic      Atomic             Coordinates (Angstroms)
 Number     Number       Type             X           Y           Z
 ---------------------------------------------------------------------
      1          8           0        5.187302   -0.295134   -3.347911
      2          8           0       -2.858678   -3.069582    3.119361
      3          8           0       -3.247649   -0.851896    3.142530
      4          8           0       -0.902615    7.237209    1.568621
      5          8           0       -0.462990    7.050760   -0.678625
      6          8           0       -2.102318   -4.063106   -0.105281
      7          7           0        2.421767    0.926871    0.730284
      8          7           0        4.346997   -0.812718   -1.289346
      9          7           0       -1.893829    0.746170   -0.317618
     10          7           0       -2.682342   -1.801566   -0.463175
     11          6           0        4.795576   -1.390977   -0.080996
     12          6           0        4.540622   -0.517589    1.174253
     13          6           0        3.017714   -0.156643    1.366003
     14          6           0        2.026931   -0.796044    2.104396
     15          6           0        0.735730   -0.209584    1.892933
     16          6           0        0.967563    0.836484    0.921622
     17          6           0        6.297183   -1.534660   -0.296452
     18          6           0       -0.508727   -0.401695    2.585953
     19          6           0        6.619233   -0.989042   -1.490139
     20          6           0        0.198135    1.906617    0.269624
     21          6           0       -1.076672    1.923139   -0.180542
     22          6           0        5.385702   -0.636201   -2.219098
     23          6           0       -1.937296    2.982379   -0.673431
     24          6           0        2.227595   -1.802993    3.163589
     25          6           0        7.269350   -2.130373    0.693622
     26          6           0       -3.123085    2.421108   -1.135666
     27          6           0       -1.118775   -1.761498    2.374673
     28          6           0       -3.092357    1.012076   -0.860937
     29          6           0       -1.437904    4.337494   -0.848727
     30          6           0        7.918284   -0.706104   -2.111222
     31          6           0       -1.484376    5.233522    0.486510
     32          6           0       -4.213806    3.191428   -1.659698
     33          6           0       -4.073945    0.106085   -1.242734
     34          6           0       -2.498923   -1.797066    2.937728
     35          6           0       -3.823421   -1.282134   -0.984243
     36          6           0        9.124925   -0.786208   -1.550266
     37          6           0       -0.878213    6.556600    0.344301
     38          6           0       -4.852355   -2.333330   -1.505805
     39          6           0       -4.302037   -3.540722   -1.081710
     40          6           0       -2.926629   -3.282819   -0.489446
     41          6           0       -6.128944   -2.016498   -2.165022
     42          6           0       -4.744925   -5.019226   -1.240037
     43          6           0       -6.934175   -2.967395   -2.707964
     44          1           0        4.242041   -2.516045   -0.027605
     45          1           0        5.102588    0.377775    1.139435
     46          1           0        4.972436   -1.090543    2.165490
     47          1           0        2.758498    1.625777    0.143075
     48          1           0        3.415724   -0.775987   -1.497788
     49          1           0       -0.394469   -0.344139    3.595950
     50          1           0       -1.409082    0.357548    2.445632
     51          1           0        0.710853    2.702875   -0.016184
     52          1           0        3.322879   -1.918940    3.491594
     53          1           0        1.672930   -1.557932    4.045288
     54          1           0        1.951382   -2.893877    2.947343
     55          1           0        6.678690   -2.827211    1.274062
     56          1           0        7.557788   -1.306108    1.371849
     57          1           0        8.287769   -2.657046    0.307875
     58          1           0       -1.293333   -2.111600    1.370206
     59          1           0       -0.544802   -2.604829    2.884553
     60          1           0       -1.786157   -0.388204   -0.068515
     61          1           0       -2.027748    4.699287   -1.735321
     62          1           0       -0.384661    4.495193   -1.092995
     63          1           0        7.816107   -0.250842   -3.240545
     64          1           0       -0.829014    4.707063    1.253915
     65          1           0       -2.388591    5.377105    1.041612
     66          1           0       -3.925909    4.282965   -1.771446
     67          1           0       -5.187307    3.126450   -0.985285
     68          1           0       -4.483779    2.960158   -2.580793
     69          1           0       -5.025786    0.447945   -1.406031
     70          1           0        9.350633   -1.213189   -0.447305
     71          1           0       10.030122   -0.359770   -2.188280
     72          1           0       -3.783902   -3.072437    3.177190
     73          1           0       -6.287734   -0.916792   -2.238788
     74          1           0       -4.570272   -5.359823   -2.269871
     75          1           0       -4.279952   -5.621828   -0.657638
     76          1           0       -5.987347   -4.954478   -1.034670
     77          1           0       -0.775309    8.190914    1.315396
     78          1           0       -7.915320   -2.858729   -3.366871
     79          1           0       -6.650408   -3.916811   -2.301540
 ---------------------------------------------------------------------

 SCF Done:  E(RB3LYP) =  -1947.89994417     A.U. after   16 cycles

 Excitation energies and oscillator strengths:

 Excited State   1:      Singlet-A      2.1418 eV  578.88 nm  f=0.4749  <S**2>=0.000
     155 ->156         0.69832
     155 <-156        -0.10105
 This state for optimization and/or second-order correction.
 Total Energy, E(TD-HF/TD-KS) =  -1947.82123534
 Copying the excited state density for this state as the 1-particle RhoCI density.

 The electronic state is 1-A.
 Alpha  occ. eigenvalues --  -19.18219 -19.16916 -19.13869 -19.11573 -19.11456
 Alpha  occ. eigenvalues --  -19.10180 -14.38455 -14.35383 -14.34149 -14.30283
 Alpha  occ. eigenvalues --  -10.32640 -10.30440 -10.28343 -10.27676 -10.26238
 Alpha  occ. eigenvalues --  -10.24385 -10.23946 -10.23857 -10.23754 -10.23574
 Alpha  occ. eigenvalues --  -10.23458 -10.22385 -10.22083 -10.21757 -10.21411
 Alpha  occ. eigenvalues --  -10.21353 -10.21327 -10.21295 -10.21190 -10.21100
 Alpha  occ. eigenvalues --  -10.20772 -10.20635 -10.20574 -10.20160 -10.20079
 Alpha  occ. eigenvalues --  -10.19966 -10.19844 -10.19745 -10.19557 -10.19443
 Alpha  occ. eigenvalues --  -10.18469 -10.18222 -10.18022  -1.09571  -1.08843
 Alpha  occ. eigenvalues --   -1.03652  -1.03010  -1.00802  -0.99381  -0.96950
 Alpha  occ. eigenvalues --   -0.96558  -0.94871  -0.89965  -0.82869  -0.82573
 Alpha  occ. eigenvalues --   -0.82437  -0.81505  -0.80228  -0.79180  -0.78182
 Alpha  occ. eigenvalues --   -0.77506  -0.76510  -0.75365  -0.74532  -0.72910
 Alpha  occ. eigenvalues --   -0.72202  -0.71731  -0.69728  -0.69318  -0.68274
 Alpha  occ. eigenvalues --   -0.67805  -0.65518  -0.63693  -0.61076  -0.60928
 Alpha  occ. eigenvalues --   -0.59421  -0.58770  -0.58189  -0.57912  -0.57423
 Alpha  occ. eigenvalues --   -0.55908  -0.55308  -0.55031  -0.53703  -0.53037
 Alpha  occ. eigenvalues --   -0.51576  -0.51446  -0.50591  -0.50147  -0.49586
 Alpha  occ. eigenvalues --   -0.49192  -0.48440  -0.48020  -0.47832  -0.47501
 Alpha  occ. eigenvalues --   -0.47232  -0.47014  -0.46806  -0.45875  -0.45505
 Alpha  occ. eigenvalues --   -0.45201  -0.44729  -0.44525  -0.43942  -0.43544
 Alpha  occ. eigenvalues --   -0.43285  -0.43057  -0.43027  -0.42977  -0.42565
 Alpha  occ. eigenvalues --   -0.42192  -0.42089  -0.41922  -0.41443  -0.41197
 Alpha  occ. eigenvalues --   -0.40903  -0.40782  -0.40318  -0.40084  -0.39882
 Alpha  occ. eigenvalues --   -0.39828  -0.39618  -0.39306  -0.39151  -0.39057
 Alpha  occ. eigenvalues --   -0.38567  -0.38302  -0.37597  -0.37511  -0.37248
 Alpha  occ. eigenvalues --   -0.36736  -0.36345  -0.35628  -0.35237  -0.34631
 Alpha  occ. eigenvalues --   -0.34538  -0.33367  -0.33009  -0.32307  -0.32174
 Alpha  occ. eigenvalues --   -0.31321  -0.31244  -0.29238  -0.29103  -0.28775
 Alpha  occ. eigenvalues --   -0.27031  -0.26071  -0.25936  -0.25067  -0.24712
 Alpha  occ. eigenvalues --   -0.24593  -0.24466  -0.23799  -0.22576  -0.19030
 Alpha virt. eigenvalues --   -0.10510  -0.06793  -0.05864  -0.01101  -0.00872
 Alpha virt. eigenvalues --    0.00673   0.01304   0.01749   0.02781   0.03510
 Alpha virt. eigenvalues --    0.04134   0.04453   0.04720   0.04828   0.05678

 Mulliken charges:
               1
     1  O   -0.188714
     2  O   -0.135076
     3  O   -0.247985
     4  O   -0.241196
     5  O   -0.215902
     6  O   -0.171992
     7  N   -0.117358
     8  N   -0.160175
     9  N   -0.188359
    10  N   -0.378711
    11  C    0.034200
    12  C    0.182822
    13  C   -0.029524
    14  C   -0.119298
    15  C    0.002375
    16  C    0.057344
    17  C   -0.191780
    18  C    0.091219
    19  C   -0.042792
    20  C   -0.014919
    21  C    0.121782
    22  C    0.140957
    23  C   -0.021899
    24  C    0.055735
    25  C    0.051835
    26  C   -0.140716
    27  C   -0.033923
    28  C    0.128031
    29  C    0.060880
    30  C   -0.021201
    31  C   -0.000224
    32  C    0.124144
    33  C   -0.103383
    34  C    0.103101
    35  C    0.115225
    36  C   -0.105182
    37  C    0.137854
    38  C    0.008254
    39  C   -0.226088
    40  C    0.178100
    41  C   -0.007962
    42  C    0.138139
    43  C   -0.014337
    44  H    0.048491
    45  H   -0.022145
    46  H    0.029871
    47  H    0.098185
    48  H    0.094822
    49  H   -0.037253
    50  H    0.052512
    51  H   -0.087959
    52  H   -0.000466
    53  H    0.010421
    54  H    0.035072
    55  H    0.017044
    56  H    0.039839
    57  H    0.073828
    58  H    0.064160
    59  H    0.029171
    60  H    0.228494
    61  H    0.030142
    62  H    0.017366
    63  H    0.052902
    64  H    0.047379
    65  H    0.033850
    66  H    0.009116
    67  H    0.043938
    68  H   -0.019280
    69  H   -0.044361
    70  H    0.044193
    71  H    0.049094
    72  H    0.149337
    73  H   -0.005996
    74  H    0.042863
    75  H   -0.034625
    76  H    0.050271
    77  H    0.191503
    78  H    0.061158
    79  H   -0.006237
 Sum of Mulliken charges =   0.00000

 Dipole moment (field-independent basis, Debye):
    X=              0.4426    Y=              1.7609    Z=              3.1967  Tot=              3.6763
 Quadrupole moment (field-independent basis, Debye-Ang):
   XX=           -214.8399   YY=           -244.4450   ZZ=           -268.3582
   XY=             -6.6967   XZ=             33.4744   YZ=              1.6076

 Normal termination of Gaussian 09 at Sun Jul  7 12:44:57 2019.
