 Gaussian 09, Revision D.01,
 Gaussian 09:  ES64L-G09RevD.01 24-Apr-2013

 --------------------------
 # td=(NStates=1) B3LYP/SVP
 --------------------------

 --
 TD
 --
 Symbolic Z-matrix:
 Charge =  0 Multiplicity = 1

                         Standard orientation:
 ---------------------------------------------------------------------
 Center     Atomic      Atomic             Coordinates (Angstroms)
 Number     Number       Type             X           Y           Z
 ---------------------------------------------------------------------
      1          8           0        5.344694   -0.157315   -3.339240
      2          8           0       -2.644117   -3.397165    3.155554
      3          8           0       -3.157895   -1.175077    3.503751
      4          8           0       -1.683326    7.317272    1.412743
      5          8           0       -0.494596    6.971439   -0.437693
      6          8           0       -1.665960   -3.957309   -0.245166
      7          7           0        2.285576    0.908136    0.656478
      8          7           0        4.394821   -0.633432   -1.206477
      9          7           0       -2.018099    0.685386   -0.362815
     10          7           0       -2.669913   -1.824068   -0.627081
     11          6           0        4.866291   -1.143430    0.043058
     12          6           0        4.417408   -0.277656    1.225126
     13          6           0        2.931322   -0.092582    1.264563
     14          6           0        2.003650   -0.700256    2.117358
     15          6           0        0.704460   -0.002943    1.918947
     16          6           0        0.913988    0.921107    0.876090
     17          6           0        6.371161   -1.202619   -0.191900
     18          6           0       -0.614200   -0.307878    2.534712
     19          6           0        6.675987   -0.830929   -1.433582
     20          6           0        0.080335    1.927345    0.234709
     21          6           0       -1.158994    1.833643   -0.233858
     22          6           0        5.445573   -0.535818   -2.141141
     23          6           0       -2.070272    3.004124   -0.832994
     24          6           0        2.250507   -1.667217    3.227214
     25          6           0        7.320013   -1.842339    0.771729
     26          6           0       -3.229284    2.426122   -1.205484
     27          6           0       -0.954704   -1.733026    2.502566
     28          6           0       -3.199388    1.014099   -0.989301
     29          6           0       -1.639316    4.413483   -0.902964
     30          6           0        7.949752   -0.687730   -2.125055
     31          6           0       -1.879589    5.212331    0.405658
     32          6           0       -4.367426    3.146096   -1.812787
     33          6           0       -4.146438   -0.044984   -1.248517
     34          6           0       -2.363725   -2.051283    3.057511
     35          6           0       -3.802480   -1.453060   -0.978954
     36          6           0        9.159798   -0.640740   -1.497481
     37          6           0       -1.263052    6.497119    0.405467
     38          6           0       -4.705290   -2.578763   -1.408498
     39          6           0       -3.945191   -3.706822   -1.161801
     40          6           0       -2.543701   -3.214899   -0.713080
     41          6           0       -6.022440   -2.437782   -1.943273
     42          6           0       -4.272387   -5.163559   -1.608808
     43          6           0       -6.886124   -3.368021   -2.405927
     44          1           0        4.454543   -2.250301    0.219380
     45          1           0        4.874307    0.749738    1.111127
     46          1           0        4.827684   -0.711635    2.103176
     47          1           0        2.718996    1.289239   -0.203072
     48          1           0        3.421918   -0.553621   -1.383685
     49          1           0       -0.629833   -0.079723    3.699928
     50          1           0       -1.345948    0.241978    2.061621
     51          1           0        0.778676    2.819942   -0.218873
     52          1           0        3.431857   -1.709377    3.338714
     53          1           0        2.023938   -1.291514    4.248026
     54          1           0        1.644193   -2.650261    2.996001
     55          1           0        6.870752   -2.794709    1.292270
     56          1           0        7.564378   -0.949137    1.495379
     57          1           0        8.150658   -2.141999    0.167181
     58          1           0       -1.097617   -2.113871    1.474569
     59          1           0       -0.360423   -2.543910    2.894727
     60          1           0       -1.941406   -0.239465   -0.053740
     61          1           0       -2.251485    4.854456   -1.675037
     62          1           0       -0.534691    4.813765   -1.252918
     63          1           0        7.912736   -0.595945   -3.272265
     64          1           0       -1.275604    4.589174    1.197842
     65          1           0       -2.954951    5.117276    0.749492
     66          1           0       -3.830518    4.076685   -2.334596
     67          1           0       -5.294085    3.512469   -1.253940
     68          1           0       -4.722422    2.548446   -2.479382
     69          1           0       -5.263219    0.283749   -1.477661
     70          1           0        9.325716   -0.712775   -0.467788
     71          1           0       10.011974   -0.312129   -2.118228
     72          1           0       -3.532355   -3.309859    3.565073
     73          1           0       -6.357850   -1.398822   -1.533295
     74          1           0       -4.023481   -4.981751   -2.756357
     75          1           0       -3.619875   -5.857284   -1.014598
     76          1           0       -5.286921   -5.443379   -1.456327
     77          1           0       -1.008313    8.129013    1.408299
     78          1           0       -7.861744   -3.064506   -2.678149
     79          1           0       -6.514144   -4.353664   -2.509033
 ---------------------------------------------------------------------

 SCF Done:  E(RB3LYP) =  -1947.89920998     A.U. after   16 cycles

 Excitation energies and oscillator strengths:

 Excited State   1:      Singlet-A      2.1614 eV  573.64 nm  f=0.4209  <S**2>=0.000
     155 ->156         0.69893
 This state for optimization and/or second-order correction.
 Total Energy, E(TD-HF/TD-KS) =  -1947.81978178
 Copying the excited state density for this state as the 1-particle RhoCI density.

 The electronic state is 1-A.
 Alpha  occ. eigenvalues --  -19.18880 -19.17929 -19.13445 -19.11970 -19.11877
 Alpha  occ. eigenvalues --  -19.09797 -14.38516 -14.36686 -14.35488 -14.29751
 Alpha  occ. eigenvalues --  -10.33005 -10.31548 -10.28698 -10.28267 -10.25739
 Alpha  occ. eigenvalues --  -10.25561 -10.25470 -10.24039 -10.23225 -10.22974
 Alpha  occ. eigenvalues --  -10.22973 -10.22926 -10.22846 -10.22264 -10.22130
 Alpha  occ. eigenvalues --  -10.21956 -10.21930 -10.21493 -10.21020 -10.20926
 Alpha  occ. eigenvalues --  -10.20854 -10.20494 -10.20338 -10.20253 -10.20242
 Alpha  occ. eigenvalues --  -10.19913 -10.19620 -10.19565 -10.19469 -10.19448
 Alpha  occ. eigenvalues --  -10.19239 -10.19225 -10.19136  -1.09180  -1.07693
 Alpha  occ. eigenvalues --   -1.01558  -1.00623  -0.99450  -0.99335  -0.97670
 Alpha  occ. eigenvalues --   -0.97559  -0.94730  -0.94181  -0.84146  -0.83251
 Alpha  occ. eigenvalues --   -0.82389  -0.81357  -0.80731  -0.80326  -0.79134
 Alpha  occ. eigenvalues --   -0.77083  -0.76392  -0.75491  -0.74392  -0.72847
 Alpha  occ. eigenvalues --   -0.72440  -0.71664  -0.69969  -0.69733  -0.68821
 Alpha  occ. eigenvalues --   -0.67264  -0.65925  -0.64507  -0.61870  -0.60555
 Alpha  occ. eigenvalues --   -0.60019  -0.59181  -0.58219  -0.57646  -0.57201
 Alpha  occ. eigenvalues --   -0.56143  -0.55309  -0.55118  -0.54345  -0.53338
 Alpha  occ. eigenvalues --   -0.52472  -0.52070  -0.51642  -0.51144  -0.50439
 Alpha  occ. eigenvalues --   -0.49065  -0.48897  -0.48429  -0.47902  -0.47718
 Alpha  occ. eigenvalues --   -0.47458  -0.47355  -0.47113  -0.46592  -0.45674
 Alpha  occ. eigenvalues --   -0.45339  -0.45297  -0.44424  -0.44109  -0.43965
 Alpha  occ. eigenvalues --   -0.43675  -0.43584  -0.43157  -0.42745  -0.42628
 Alpha  occ. eigenvalues --   -0.42402  -0.42319  -0.41963  -0.41678  -0.41175
 Alpha  occ. eigenvalues --   -0.40898  -0.40712  -0.40674  -0.40476  -0.40275
 Alpha  occ. eigenvalues --   -0.39859  -0.39807  -0.39374  -0.39194  -0.38965
 Alpha  occ. eigenvalues --   -0.38672  -0.37962  -0.37860  -0.37669  -0.37585
 Alpha  occ. eigenvalues --   -0.36263  -0.36114  -0.35159  -0.35050  -0.34510
 Alpha  occ. eigenvalues --   -0.33989  -0.33626  -0.32937  -0.32461  -0.31735
 Alpha  occ. eigenvalues --   -0.31314  -0.30879  -0.30060  -0.29128  -0.28430
 Alpha  occ. eigenvalues --   -0.26936  -0.26809  -0.26109  -0.25367  -0.24515
 Alpha  occ. eigenvalues --   -0.24419  -0.24238  -0.23765  -0.22644  -0.19790
 Alpha virt. eigenvalues --   -0.11082  -0.06764  -0.06184  -0.02086  -0.01194
 Alpha virt. eigenvalues --    0.00059   0.00133   0.00339   0.02108   0.02890
 Alpha virt. eigenvalues --    0.03293   0.03921   0.04077   0.04416   0.05197

 Mulliken charges:
               1
     1  O   -0.262938
     2  O   -0.187535
     3  O   -0.291322
     4  O   -0.238217
     5  O   -0.254471
     6  O   -0.217229
     7  N   -0.046833
     8  N   -0.201554
     9  N   -0.085788
    10  N   -0.212067
    11  C    0.044274
    12  C    0.220907
    13  C   -0.108245
    14  C   -0.142081
    15  C   -0.093782
    16  C    0.017746
    17  C   -0.210815
    18  C    0.193743
    19  C    0.006863
    20  C   -0.124432
    21  C    0.153154
    22  C    0.174640
    23  C   -0.042579
    24  C    0.019943
    25  C    0.055808
    26  C   -0.110870
    27  C   -0.011790
    28  C    0.084396
    29  C    0.010759
    30  C   -0.040419
    31  C   -0.021932
    32  C    0.119075
    33  C   -0.134594
    34  C    0.134646
    35  C    0.046172
    36  C   -0.016388
    37  C    0.158465
    38  C    0.013929
    39  C   -0.250302
    40  C    0.191943
    41  C   -0.041031
    42  C    0.050768
    43  C    0.019847
    44  H    0.040420
    45  H   -0.000002
    46  H   -0.012686
    47  H    0.117267
    48  H    0.116507
    49  H    0.022304
    50  H   -0.029436
    51  H    0.039480
    52  H    0.003083
    53  H    0.028462
    54  H    0.068226
    55  H    0.048253
    56  H    0.055728
    57  H    0.033341
    58  H    0.048618
    59  H    0.013327
    60  H    0.114474
    61  H   -0.002522
    62  H    0.071666
    63  H    0.041865
    64  H    0.069920
    65  H    0.061588
    66  H    0.029129
    67  H    0.048737
    68  H   -0.029177
    69  H    0.024438
    70  H    0.001719
    71  H    0.031908
    72  H    0.176685
    73  H    0.013446
    74  H    0.066385
    75  H    0.044900
    76  H    0.028973
    77  H    0.223488
    78  H    0.017660
    79  H    0.001959
 Sum of Mulliken charges =   0.00000

 Dipole moment (field-independent basis, Debye):
    X=              0.1935    Y=              2.0909    Z=              3.1767  Tot=              3.8080
 Quadrupole moment (field-independent basis, Debye-Ang):
   XX=           -220.8546   YY=           -248.4604   ZZ=           -269.5828
   XY=             -6.3453   XZ=             33.9090   YZ=              3.3953

 Normal termination of Gaussian 09 at Wed Jul 10 10:46:12 2019.
