 Gaussian 09, Revision D.01,
 Gaussian 09:  ES64L-G09RevD.01 24-Apr-2013

 --------------------------
 # td=(NStates=1) B3LYP/SVP
 --------------------------

 --
 TD
 --
 Symbolic Z-matrix:
 Charge =  0 Multiplicity = 1

                         Standard orientation:
 ---------------------------------------------------------------------
 Center     Atomic      Atomic             Coordinates (Angstroms)
 Number     Number       Type             X           Y           Z
 ---------------------------------------------------------------------
      1          8           0        5.412912   -0.189214   -3.337914
      2          8           0       -2.895838   -3.066697    3.281314
      3          8           0       -3.187461   -0.804692    3.488835
      4          8           0       -1.538631    7.104082    1.568076
      5          8           0       -0.462294    7.044027   -0.416388
      6          8           0       -1.981363   -3.976251   -0.111348
      7          7           0        2.404781    0.839161    0.398348
      8          7           0        4.480127   -0.729522   -1.281927
      9          7           0       -1.866144    0.679151   -0.454283
     10          7           0       -2.717705   -1.850702   -0.495610
     11          6           0        4.799110   -1.237838   -0.054558
     12          6           0        4.446595   -0.371813    1.157629
     13          6           0        2.999701   -0.036660    1.298950
     14          6           0        1.999800   -0.409811    2.177956
     15          6           0        0.762967    0.054208    1.844260
     16          6           0        1.030017    0.916862    0.710381
     17          6           0        6.313312   -1.488758   -0.191223
     18          6           0       -0.537125   -0.251076    2.457759
     19          6           0        6.733734   -1.000875   -1.365688
     20          6           0        0.174103    1.810358    0.028486
     21          6           0       -1.138792    1.773011   -0.368182
     22          6           0        5.467044   -0.538148   -2.157503
     23          6           0       -1.908420    2.946083   -0.862196
     24          6           0        2.276903   -1.541381    3.282187
     25          6           0        7.156234   -2.016278    0.899760
     26          6           0       -3.055906    2.399926   -1.318491
     27          6           0       -1.032824   -1.667680    2.585777
     28          6           0       -3.123188    0.946347   -1.147546
     29          6           0       -1.388488    4.254856   -0.984936
     30          6           0        8.007410   -0.785171   -2.051068
     31          6           0       -1.596554    5.040571    0.335258
     32          6           0       -4.236692    3.205060   -1.827183
     33          6           0       -4.028244   -0.052146   -1.353751
     34          6           0       -2.516991   -1.718191    3.134484
     35          6           0       -3.846168   -1.395026   -1.002803
     36          6           0        9.188853   -0.939163   -1.465540
     37          6           0       -1.133166    6.484464    0.451535
     38          6           0       -4.786601   -2.489912   -1.430928
     39          6           0       -4.092630   -3.631573   -1.202770
     40          6           0       -2.797341   -3.213417   -0.512193
     41          6           0       -6.193992   -2.304524   -2.034452
     42          6           0       -4.590346   -4.983926   -1.227640
     43          6           0       -7.018748   -3.104478   -2.571177
     44          1           0        4.312721   -2.049034    0.144509
     45          1           0        5.014442    0.564609    0.757350
     46          1           0        4.861895   -0.706848    2.158658
     47          1           0        2.690953    1.528059   -0.194781
     48          1           0        3.609263   -0.862676   -1.647488
     49          1           0       -0.468547    0.114816    3.602462
     50          1           0       -1.357299    0.286632    2.102840
     51          1           0        0.566755    2.673349   -0.169092
     52          1           0        3.307506   -1.517480    3.583995
     53          1           0        1.726021   -1.389046    4.241684
     54          1           0        2.120354   -2.567510    2.970647
     55          1           0        6.489598   -2.381778    1.842310
     56          1           0        7.781885   -1.097805    1.155765
     57          1           0        8.068486   -2.755856    0.507556
     58          1           0       -1.035194   -2.127414    1.577536
     59          1           0       -0.374754   -2.439737    3.120441
     60          1           0       -1.723150   -0.342443   -0.203212
     61          1           0       -1.794924    4.914133   -1.766495
     62          1           0       -0.338353    4.063794   -1.157674
     63          1           0        7.906862   -0.569182   -3.089532
     64          1           0       -1.214074    4.561205    1.186010
     65          1           0       -2.704681    4.974208    0.358662
     66          1           0       -4.210297    4.188234   -2.131144
     67          1           0       -5.155460    3.027827   -1.068482
     68          1           0       -4.507047    2.707726   -2.642665
     69          1           0       -5.122867    0.195572   -1.632202
     70          1           0        9.321981   -1.126153   -0.364502
     71          1           0       10.142908   -0.879966   -2.063347
     72          1           0       -3.718066   -3.073387    3.591656
     73          1           0       -6.735466   -1.329990   -1.958887
     74          1           0       -4.545902   -5.553778   -2.358204
     75          1           0       -4.082347   -5.802019   -0.434380
     76          1           0       -5.726325   -5.264832   -0.914208
     77          1           0       -1.043435    7.985350    1.632928
     78          1           0       -8.238915   -2.965387   -2.627333
     79          1           0       -6.711936   -4.363267   -2.465222
 ---------------------------------------------------------------------

 SCF Done:  E(RB3LYP) =  -1947.83187636     A.U. after   16 cycles

 Excitation energies and oscillator strengths:

 Excited State   1:      Singlet-A      2.0505 eV  604.67 nm  f=0.5100  <S**2>=0.000
     155 ->156         0.70883
     155 <-156        -0.12949
 This state for optimization and/or second-order correction.
 Total Energy, E(TD-HF/TD-KS) =  -1947.75652342
 Copying the excited state density for this state as the 1-particle RhoCI density.

 The electronic state is 1-A.
 Alpha  occ. eigenvalues --  -19.19801 -19.15929 -19.13398 -19.13040 -19.10581
 Alpha  occ. eigenvalues --  -19.10286 -14.38444 -14.36256 -14.35511 -14.29743
 Alpha  occ. eigenvalues --  -10.33021 -10.31989 -10.28545 -10.26598 -10.25416
 Alpha  occ. eigenvalues --  -10.24005 -10.23957 -10.23705 -10.23647 -10.23307
 Alpha  occ. eigenvalues --  -10.23284 -10.22739 -10.21837 -10.21736 -10.21430
 Alpha  occ. eigenvalues --  -10.21314 -10.21292 -10.20990 -10.20935 -10.20787
 Alpha  occ. eigenvalues --  -10.20620 -10.20002 -10.19952 -10.19944 -10.19930
 Alpha  occ. eigenvalues --  -10.19899 -10.19833 -10.19761 -10.19693 -10.19672
 Alpha  occ. eigenvalues --  -10.19654 -10.19645 -10.19520  -1.10125  -1.08963
 Alpha  occ. eigenvalues --   -1.03530  -1.03022  -1.01537  -1.00271  -0.98831
 Alpha  occ. eigenvalues --   -0.98003  -0.96745  -0.93802  -0.84367  -0.82908
 Alpha  occ. eigenvalues --   -0.82504  -0.82178  -0.80866  -0.80541  -0.78393
 Alpha  occ. eigenvalues --   -0.77904  -0.76940  -0.76196  -0.75780  -0.73485
 Alpha  occ. eigenvalues --   -0.71760  -0.71087  -0.70208  -0.69427  -0.69298
 Alpha  occ. eigenvalues --   -0.67506  -0.66429  -0.64296  -0.61942  -0.61254
 Alpha  occ. eigenvalues --   -0.61017  -0.59491  -0.58669  -0.58032  -0.57754
 Alpha  occ. eigenvalues --   -0.56598  -0.56425  -0.55930  -0.54962  -0.53500
 Alpha  occ. eigenvalues --   -0.53067  -0.52086  -0.51903  -0.51254  -0.50989
 Alpha  occ. eigenvalues --   -0.49625  -0.49112  -0.48600  -0.48557  -0.48177
 Alpha  occ. eigenvalues --   -0.47623  -0.47317  -0.46759  -0.46470  -0.45930
 Alpha  occ. eigenvalues --   -0.45407  -0.45043  -0.44541  -0.44095  -0.43850
 Alpha  occ. eigenvalues --   -0.43699  -0.43276  -0.43199  -0.42861  -0.42731
 Alpha  occ. eigenvalues --   -0.42573  -0.42324  -0.41932  -0.41462  -0.41156
 Alpha  occ. eigenvalues --   -0.40999  -0.40868  -0.40416  -0.40176  -0.39874
 Alpha  occ. eigenvalues --   -0.39450  -0.39183  -0.39101  -0.38853  -0.38769
 Alpha  occ. eigenvalues --   -0.38306  -0.38227  -0.37667  -0.37301  -0.37088
 Alpha  occ. eigenvalues --   -0.36679  -0.36077  -0.35857  -0.35419  -0.34880
 Alpha  occ. eigenvalues --   -0.34760  -0.32890  -0.32814  -0.32097  -0.31747
 Alpha  occ. eigenvalues --   -0.31448  -0.30727  -0.29310  -0.28726  -0.28424
 Alpha  occ. eigenvalues --   -0.28372  -0.27381  -0.26110  -0.25998  -0.25495
 Alpha  occ. eigenvalues --   -0.24646  -0.24539  -0.24165  -0.23703  -0.18916
 Alpha virt. eigenvalues --   -0.11183  -0.06188  -0.05066  -0.00980  -0.00629
 Alpha virt. eigenvalues --    0.00442   0.00779   0.01443   0.02370   0.03202
 Alpha virt. eigenvalues --    0.03941   0.03980   0.04620   0.05132   0.05337

 Mulliken charges:
               1
     1  O   -0.239585
     2  O   -0.167027
     3  O   -0.189835
     4  O   -0.191786
     5  O   -0.246957
     6  O   -0.156137
     7  N   -0.050101
     8  N   -0.060762
     9  N   -0.111293
    10  N   -0.248381
    11  C    0.190681
    12  C    0.124090
    13  C   -0.027731
    14  C   -0.146264
    15  C   -0.014247
    16  C    0.049666
    17  C   -0.181791
    18  C    0.088160
    19  C   -0.066525
    20  C   -0.038145
    21  C    0.051874
    22  C    0.111712
    23  C   -0.065902
    24  C    0.081536
    25  C   -0.029485
    26  C   -0.132420
    27  C   -0.055904
    28  C    0.155962
    29  C    0.142165
    30  C    0.045273
    31  C   -0.013302
    32  C    0.155330
    33  C   -0.143882
    34  C    0.150935
    35  C    0.046871
    36  C   -0.056839
    37  C    0.144087
    38  C    0.073387
    39  C   -0.121556
    40  C    0.124019
    41  C    0.039145
    42  C   -0.120793
    43  C   -0.168253
    44  H   -0.061726
    45  H   -0.001824
    46  H    0.021715
    47  H    0.088579
    48  H    0.093974
    49  H    0.019013
    50  H   -0.011998
    51  H   -0.104818
    52  H   -0.020734
    53  H    0.020278
    54  H    0.034710
    55  H    0.048577
    56  H    0.057245
    57  H    0.070769
    58  H    0.054031
    59  H    0.039839
    60  H    0.166314
    61  H    0.017244
    62  H    0.010816
    63  H    0.000560
    64  H    0.025387
    65  H    0.042636
    66  H   -0.006160
    67  H    0.038703
    68  H   -0.020205
    69  H    0.006414
    70  H    0.017911
    71  H    0.033559
    72  H    0.120227
    73  H    0.005703
    74  H    0.056509
    75  H    0.054734
    76  H    0.051772
    77  H    0.208773
    78  H    0.060701
    79  H    0.030781
 Sum of Mulliken charges =   0.00000

 Dipole moment (field-independent basis, Debye):
    X=             -0.1061    Y=              2.3419    Z=              3.8987  Tot=              4.5493
 Quadrupole moment (field-independent basis, Debye-Ang):
   XX=           -222.0062   YY=           -249.3780   ZZ=           -267.9876
   XY=            -10.7722   XZ=             29.3871   YZ=              2.0084

 Normal termination of Gaussian 09 at Mon Jul  8 14:46:05 2019.
