 Gaussian 09, Revision D.01,
 Gaussian 09:  ES64L-G09RevD.01 24-Apr-2013

 --------------------------
 # td=(NStates=1) B3LYP/SVP
 --------------------------

 --
 TD
 --
 Symbolic Z-matrix:
 Charge =  0 Multiplicity = 1

                         Standard orientation:
 ---------------------------------------------------------------------
 Center     Atomic      Atomic             Coordinates (Angstroms)
 Number     Number       Type             X           Y           Z
 ---------------------------------------------------------------------
      1          8           0        5.326662   -0.279797   -3.384059
      2          8           0       -2.711437   -3.080779    3.295816
      3          8           0       -3.274529   -0.922785    3.069924
      4          8           0       -1.770624    7.262209    1.400667
      5          8           0       -0.395910    6.960006   -0.432092
      6          8           0       -1.807386   -4.065604   -0.202264
      7          7           0        2.389820    1.139902    0.668118
      8          7           0        4.362936   -0.502088   -1.273183
      9          7           0       -1.893722    0.650061   -0.410929
     10          7           0       -2.680979   -1.946640   -0.460475
     11          6           0        4.803987   -1.190824   -0.065830
     12          6           0        4.426899   -0.184546    1.241007
     13          6           0        3.036102    0.068208    1.396841
     14          6           0        2.046051   -0.612634    2.143063
     15          6           0        0.824957   -0.080988    1.765040
     16          6           0        1.029986    0.943961    0.936802
     17          6           0        6.277206   -1.297671   -0.207768
     18          6           0       -0.517865   -0.390283    2.418132
     19          6           0        6.615096   -0.988946   -1.491282
     20          6           0        0.213733    1.961217    0.274867
     21          6           0       -1.071608    1.779958   -0.378703
     22          6           0        5.361553   -0.530603   -2.196294
     23          6           0       -1.911493    2.900019   -0.871016
     24          6           0        2.259193   -1.625743    3.169378
     25          6           0        7.081068   -1.841901    0.955456
     26          6           0       -3.094099    2.321843   -1.327211
     27          6           0       -0.975644   -1.805767    2.403145
     28          6           0       -3.043878    0.901559   -0.897965
     29          6           0       -1.474511    4.289532   -0.894272
     30          6           0        7.960273   -0.913439   -2.077818
     31          6           0       -1.774285    5.052562    0.388856
     32          6           0       -4.269117    3.130984   -1.821861
     33          6           0       -4.137035   -0.036766   -1.110364
     34          6           0       -2.439585   -1.828515    2.964422
     35          6           0       -3.768306   -1.414227   -0.852868
     36          6           0        9.164684   -0.861366   -1.430133
     37          6           0       -1.266964    6.547416    0.319214
     38          6           0       -4.690015   -2.448133   -1.450721
     39          6           0       -4.130012   -3.645586   -1.082639
     40          6           0       -2.749626   -3.313141   -0.664077
     41          6           0       -5.996263   -2.234560   -2.028289
     42          6           0       -4.446850   -5.066919   -1.172474
     43          6           0       -6.907243   -3.257710   -2.414894
     44          1           0        4.245181   -2.114470   -0.034660
     45          1           0        4.932846    0.768841    0.930193
     46          1           0        4.957862   -0.720240    2.179959
     47          1           0        2.667268    1.648418   -0.174672
     48          1           0        3.374884   -0.720494   -1.443887
     49          1           0       -0.568062    0.126213    3.567340
     50          1           0       -1.372253    0.100182    1.854390
     51          1           0        0.655568    2.981542    0.184551
     52          1           0        3.296194   -1.661072    3.675166
     53          1           0        1.400558   -1.297600    3.899473
     54          1           0        2.033239   -2.777549    2.721818
     55          1           0        6.449400   -2.445643    1.592438
     56          1           0        7.708549   -1.058931    1.509254
     57          1           0        8.035743   -2.560774    0.685095
     58          1           0       -1.033227   -2.068548    1.271394
     59          1           0       -0.509288   -2.754205    2.927565
     60          1           0       -1.443491   -0.155798   -0.044782
     61          1           0       -1.858735    4.780324   -1.889109
     62          1           0       -0.310712    4.308624   -1.148452
     63          1           0        8.022918   -0.831430   -3.099024
     64          1           0       -1.264329    4.538481    1.261697
     65          1           0       -2.861843    4.934080    0.830507
     66          1           0       -3.997235    4.265505   -1.933906
     67          1           0       -5.252066    2.944724   -1.255635
     68          1           0       -4.605421    2.721187   -2.731011
     69          1           0       -5.113606    0.287103   -1.623004
     70          1           0        9.277887   -0.850477   -0.433410
     71          1           0       10.284975   -0.774992   -2.007395
     72          1           0       -3.839697   -3.028587    3.439521
     73          1           0       -6.281108   -1.183944   -1.987284
     74          1           0       -4.656934   -5.248369   -2.448672
     75          1           0       -3.713784   -5.971114   -0.921630
     76          1           0       -5.415001   -5.232936   -0.740916
     77          1           0       -1.318014    8.171725    1.216922
     78          1           0       -8.045007   -3.149797   -2.771229
     79          1           0       -6.682195   -4.306555   -2.345716
 ---------------------------------------------------------------------

 SCF Done:  E(RB3LYP) =  -1947.83002366     A.U. after   19 cycles

 Excitation energies and oscillator strengths:

 Excited State   1:      Singlet-A      2.0769 eV  596.97 nm  f=0.4658  <S**2>=0.000
     154 ->156         0.16324
     155 ->156         0.68020
 This state for optimization and/or second-order correction.
 Total Energy, E(TD-HF/TD-KS) =  -1947.75369893
 Copying the excited state density for this state as the 1-particle RhoCI density.

 The electronic state is 1-A.
 Alpha  occ. eigenvalues --  -19.19901 -19.18161 -19.15048 -19.11452 -19.09973
 Alpha  occ. eigenvalues --  -19.09948 -14.38564 -14.38226 -14.35985 -14.28583
 Alpha  occ. eigenvalues --  -10.34168 -10.30636 -10.28779 -10.26187 -10.26001
 Alpha  occ. eigenvalues --  -10.25380 -10.25027 -10.23585 -10.23519 -10.23388
 Alpha  occ. eigenvalues --  -10.23228 -10.22893 -10.22786 -10.22682 -10.22502
 Alpha  occ. eigenvalues --  -10.22289 -10.21948 -10.21605 -10.21565 -10.21339
 Alpha  occ. eigenvalues --  -10.21309 -10.21219 -10.21172 -10.20803 -10.20726
 Alpha  occ. eigenvalues --  -10.20579 -10.20476 -10.20133 -10.19981 -10.19765
 Alpha  occ. eigenvalues --  -10.19577 -10.19518 -10.19073  -1.09401  -1.07754
 Alpha  occ. eigenvalues --   -1.02838  -1.01665  -1.01310  -0.98615  -0.97674
 Alpha  occ. eigenvalues --   -0.97626  -0.95186  -0.92431  -0.83727  -0.82647
 Alpha  occ. eigenvalues --   -0.82305  -0.81286  -0.80349  -0.79322  -0.77601
 Alpha  occ. eigenvalues --   -0.77022  -0.76225  -0.75327  -0.73658  -0.72371
 Alpha  occ. eigenvalues --   -0.71616  -0.71357  -0.69586  -0.68679  -0.68346
 Alpha  occ. eigenvalues --   -0.66409  -0.65583  -0.62942  -0.62018  -0.60892
 Alpha  occ. eigenvalues --   -0.59563  -0.59390  -0.58723  -0.58034  -0.57307
 Alpha  occ. eigenvalues --   -0.55762  -0.55524  -0.54959  -0.54510  -0.53006
 Alpha  occ. eigenvalues --   -0.52576  -0.52015  -0.50756  -0.50266  -0.49709
 Alpha  occ. eigenvalues --   -0.49568  -0.48889  -0.47995  -0.47655  -0.47224
 Alpha  occ. eigenvalues --   -0.46802  -0.46721  -0.46403  -0.46168  -0.45562
 Alpha  occ. eigenvalues --   -0.45008  -0.44823  -0.44330  -0.43913  -0.43655
 Alpha  occ. eigenvalues --   -0.43305  -0.43240  -0.43046  -0.42838  -0.42307
 Alpha  occ. eigenvalues --   -0.42052  -0.41844  -0.41806  -0.41249  -0.41140
 Alpha  occ. eigenvalues --   -0.40840  -0.40474  -0.40292  -0.40162  -0.39871
 Alpha  occ. eigenvalues --   -0.39600  -0.39212  -0.39091  -0.38789  -0.38572
 Alpha  occ. eigenvalues --   -0.38076  -0.37813  -0.37437  -0.37387  -0.37247
 Alpha  occ. eigenvalues --   -0.36444  -0.36055  -0.35045  -0.34086  -0.33946
 Alpha  occ. eigenvalues --   -0.33736  -0.33540  -0.32848  -0.32521  -0.31701
 Alpha  occ. eigenvalues --   -0.30668  -0.30566  -0.30010  -0.28485  -0.27465
 Alpha  occ. eigenvalues --   -0.26901  -0.26573  -0.25995  -0.25818  -0.25376
 Alpha  occ. eigenvalues --   -0.24573  -0.23827  -0.23156  -0.21777  -0.19357
 Alpha virt. eigenvalues --   -0.11044  -0.07276  -0.06092  -0.02381  -0.01573
 Alpha virt. eigenvalues --   -0.00556   0.00456   0.00759   0.01925   0.02266
 Alpha virt. eigenvalues --    0.02817   0.03517   0.03767   0.04015   0.04554

 Mulliken charges:
               1
     1  O   -0.209946
     2  O   -0.225213
     3  O   -0.271620
     4  O   -0.228115
     5  O   -0.226353
     6  O   -0.271689
     7  N   -0.144265
     8  N   -0.176012
     9  N    0.044541
    10  N   -0.194929
    11  C    0.020646
    12  C    0.104440
    13  C   -0.026894
    14  C   -0.084049
    15  C   -0.036304
    16  C    0.085987
    17  C   -0.117598
    18  C   -0.037372
    19  C   -0.020445
    20  C   -0.102486
    21  C    0.029418
    22  C    0.138622
    23  C   -0.079383
    24  C   -0.022426
    25  C    0.016528
    26  C   -0.131542
    27  C   -0.080858
    28  C    0.078182
    29  C    0.001211
    30  C    0.032727
    31  C   -0.035988
    32  C    0.084941
    33  C   -0.143480
    34  C    0.161945
    35  C    0.084038
    36  C   -0.042536
    37  C    0.186725
    38  C   -0.018226
    39  C   -0.148870
    40  C    0.145459
    41  C    0.010114
    42  C    0.002202
    43  C   -0.067456
    44  H    0.028861
    45  H    0.002266
    46  H    0.032056
    47  H    0.133422
    48  H    0.136354
    49  H    0.044055
    50  H    0.025981
    51  H    0.020617
    52  H    0.031732
    53  H    0.050675
    54  H    0.062724
    55  H    0.028909
    56  H    0.055543
    57  H    0.046990
    58  H    0.100188
    59  H    0.054557
    60  H    0.138632
    61  H    0.040866
    62  H    0.042256
    63  H   -0.021479
    64  H    0.054904
    65  H    0.056072
    66  H    0.045095
    67  H    0.033280
    68  H    0.002841
    69  H    0.019524
    70  H   -0.029893
    71  H    0.055305
    72  H    0.234592
    73  H   -0.015925
    74  H    0.041200
    75  H    0.070993
    76  H    0.026568
    77  H    0.203277
    78  H    0.051400
    79  H    0.011895
 Sum of Mulliken charges =   0.00000

 Dipole moment (field-independent basis, Debye):
    X=             -0.1196    Y=              2.8454    Z=              3.0538  Tot=              4.1756
 Quadrupole moment (field-independent basis, Debye-Ang):
   XX=           -222.8317   YY=           -245.5949   ZZ=           -269.9237
   XY=            -10.3887   XZ=             33.2576   YZ=             -1.1514

 Normal termination of Gaussian 09 at Mon Jul  8 01:37:43 2019.
