 Gaussian 09, Revision D.01,
 Gaussian 09:  ES64L-G09RevD.01 24-Apr-2013

 --------------------------
 # td=(NStates=1) B3LYP/SVP
 --------------------------

 --
 TD
 --
 Symbolic Z-matrix:
 Charge =  0 Multiplicity = 1

                         Standard orientation:
 ---------------------------------------------------------------------
 Center     Atomic      Atomic             Coordinates (Angstroms)
 Number     Number       Type             X           Y           Z
 ---------------------------------------------------------------------
      1          8           0        5.412568   -0.195459   -3.278116
      2          8           0       -2.847643   -3.112920    2.993886
      3          8           0       -3.234634   -0.935814    3.249427
      4          8           0       -1.164722    7.164774    1.789877
      5          8           0       -0.764360    7.132622   -0.504920
      6          8           0       -2.066596   -3.959763   -0.237628
      7          7           0        2.495661    0.834301    0.615944
      8          7           0        4.476754   -0.715158   -1.242961
      9          7           0       -1.865903    0.629016   -0.460590
     10          7           0       -2.755551   -1.777655   -0.716737
     11          6           0        4.864435   -1.269558    0.007148
     12          6           0        4.409936   -0.446170    1.280309
     13          6           0        3.054148   -0.135013    1.368799
     14          6           0        1.992484   -0.720705    2.103277
     15          6           0        0.731131   -0.040133    1.626247
     16          6           0        1.093687    0.899509    0.717745
     17          6           0        6.330652   -1.545030   -0.211538
     18          6           0       -0.555766   -0.373941    2.369200
     19          6           0        6.756191   -0.958491   -1.370228
     20          6           0        0.350784    1.806391    0.005840
     21          6           0       -1.033042    1.784902   -0.375511
     22          6           0        5.487037   -0.643876   -2.073471
     23          6           0       -1.744140    2.978994   -0.913737
     24          6           0        2.115652   -1.778238    3.150891
     25          6           0        7.241710   -2.006083    0.932987
     26          6           0       -3.020354    2.504072   -1.220557
     27          6           0       -1.087160   -1.766947    2.450442
     28          6           0       -3.113621    1.039538   -0.957398
     29          6           0       -1.262423    4.389387   -0.856964
     30          6           0        8.021416   -0.818070   -2.110630
     31          6           0       -1.514802    5.020391    0.534574
     32          6           0       -4.227629    3.276499   -1.663572
     33          6           0       -4.127042    0.088533   -1.186157
     34          6           0       -2.472939   -1.838664    2.989974
     35          6           0       -3.870806   -1.304538   -1.074810
     36          6           0        9.150142   -0.682807   -1.545748
     37          6           0       -1.147729    6.459266    0.437855
     38          6           0       -4.861000   -2.473278   -1.416063
     39          6           0       -4.228614   -3.607773   -1.213162
     40          6           0       -2.836378   -3.204599   -0.731021
     41          6           0       -6.284492   -2.078392   -1.829369
     42          6           0       -4.712539   -5.054619   -1.165356
     43          6           0       -7.212392   -2.966638   -2.280172
     44          1           0        4.288046   -2.360688   -0.061546
     45          1           0        5.008168    0.542180    1.386482
     46          1           0        4.901931   -1.108537    2.122686
     47          1           0        3.050837    1.406653    0.011783
     48          1           0        3.487022   -0.671929   -1.523112
     49          1           0       -0.342331   -0.058889    3.321443
     50          1           0       -1.619687    0.113284    2.087277
     51          1           0        0.893625    2.679695   -0.264104
     52          1           0        3.188512   -1.906707    3.488652
     53          1           0        1.495320   -1.652569    4.161814
     54          1           0        2.017474   -2.865325    2.855024
     55          1           0        6.665164   -2.735792    1.459676
     56          1           0        7.790546   -1.193703    1.616524
     57          1           0        8.100786   -2.727330    0.436635
     58          1           0       -1.184004   -2.370125    1.370183
     59          1           0       -0.792504   -2.370720    3.263770
     60          1           0       -1.632539   -0.320783   -0.298845
     61          1           0       -1.905303    5.074553   -1.580592
     62          1           0       -0.097018    4.522771   -1.144416
     63          1           0        7.921603   -1.065422   -3.347808
     64          1           0       -1.021982    4.496572    1.347614
     65          1           0       -2.724292    5.039811    0.813752
     66          1           0       -3.857189    4.382949   -2.175884
     67          1           0       -5.128252    3.535781   -0.986233
     68          1           0       -4.757476    2.497904   -2.389657
     69          1           0       -5.047145    0.472358   -1.733718
     70          1           0        9.252220   -0.423639   -0.364002
     71          1           0       10.019082   -0.705439   -2.005843
     72          1           0       -3.779098   -3.136104    3.316516
     73          1           0       -6.602187   -0.994099   -1.937997
     74          1           0       -4.750449   -5.366715   -2.227757
     75          1           0       -4.053067   -5.830707   -0.620846
     76          1           0       -5.678202   -5.150359   -0.727144
     77          1           0       -0.970714    8.156499    1.267054
     78          1           0       -8.172544   -2.659486   -2.626793
     79          1           0       -6.817185   -3.990504   -2.459350
 ---------------------------------------------------------------------

 SCF Done:  E(RB3LYP) =  -1947.82611256     A.U. after   16 cycles

 Excitation energies and oscillator strengths:

 Excited State   1:      Singlet-A      2.2050 eV  562.29 nm  f=0.5644  <S**2>=0.000
     155 ->156         0.70428
     155 <-156        -0.11705
 This state for optimization and/or second-order correction.
 Total Energy, E(TD-HF/TD-KS) =  -1947.74508101
 Copying the excited state density for this state as the 1-particle RhoCI density.

 The electronic state is 1-A.
 Alpha  occ. eigenvalues --  -19.17299 -19.17111 -19.15886 -19.11791 -19.11419
 Alpha  occ. eigenvalues --  -19.07949 -14.38551 -14.36585 -14.36286 -14.29382
 Alpha  occ. eigenvalues --  -10.33842 -10.30323 -10.27456 -10.27422 -10.26758
 Alpha  occ. eigenvalues --  -10.25371 -10.25351 -10.24144 -10.23853 -10.23649
 Alpha  occ. eigenvalues --  -10.23505 -10.23420 -10.23095 -10.23050 -10.22741
 Alpha  occ. eigenvalues --  -10.22569 -10.22293 -10.22013 -10.21742 -10.21254
 Alpha  occ. eigenvalues --  -10.20957 -10.20889 -10.20880 -10.20741 -10.20160
 Alpha  occ. eigenvalues --  -10.20060 -10.19673 -10.19660 -10.19614 -10.19507
 Alpha  occ. eigenvalues --  -10.19151 -10.19121 -10.19088  -1.09521  -1.07474
 Alpha  occ. eigenvalues --   -1.04229  -1.01260  -0.99569  -0.99450  -0.96635
 Alpha  occ. eigenvalues --   -0.96187  -0.93598  -0.93316  -0.83356  -0.82877
 Alpha  occ. eigenvalues --   -0.82731  -0.81128  -0.80377  -0.79481  -0.78549
 Alpha  occ. eigenvalues --   -0.77661  -0.77511  -0.76195  -0.74922  -0.72602
 Alpha  occ. eigenvalues --   -0.71531  -0.70941  -0.69378  -0.68964  -0.68387
 Alpha  occ. eigenvalues --   -0.67675  -0.66410  -0.64007  -0.62292  -0.60549
 Alpha  occ. eigenvalues --   -0.59045  -0.58425  -0.57588  -0.57171  -0.56847
 Alpha  occ. eigenvalues --   -0.55737  -0.54801  -0.54755  -0.54090  -0.53360
 Alpha  occ. eigenvalues --   -0.52518  -0.51946  -0.50904  -0.50358  -0.49418
 Alpha  occ. eigenvalues --   -0.49231  -0.48725  -0.48252  -0.48053  -0.47950
 Alpha  occ. eigenvalues --   -0.47440  -0.47229  -0.46934  -0.46165  -0.46021
 Alpha  occ. eigenvalues --   -0.45425  -0.44621  -0.44495  -0.44223  -0.43734
 Alpha  occ. eigenvalues --   -0.43464  -0.43237  -0.42899  -0.42786  -0.42635
 Alpha  occ. eigenvalues --   -0.42503  -0.42060  -0.41769  -0.41220  -0.40909
 Alpha  occ. eigenvalues --   -0.40787  -0.40677  -0.40183  -0.40028  -0.39639
 Alpha  occ. eigenvalues --   -0.39200  -0.38815  -0.38587  -0.38461  -0.37958
 Alpha  occ. eigenvalues --   -0.37729  -0.37691  -0.37446  -0.37246  -0.36460
 Alpha  occ. eigenvalues --   -0.36421  -0.35979  -0.35572  -0.35369  -0.35188
 Alpha  occ. eigenvalues --   -0.34586  -0.33754  -0.31808  -0.31768  -0.31377
 Alpha  occ. eigenvalues --   -0.31200  -0.31074  -0.29930  -0.29565  -0.28062
 Alpha  occ. eigenvalues --   -0.26820  -0.26245  -0.26069  -0.25352  -0.24917
 Alpha  occ. eigenvalues --   -0.24816  -0.23938  -0.23561  -0.23368  -0.18887
 Alpha virt. eigenvalues --   -0.10462  -0.06422  -0.05884  -0.03277  -0.00783
 Alpha virt. eigenvalues --    0.00484   0.01328   0.01773   0.01845   0.02393
 Alpha virt. eigenvalues --    0.02836   0.03280   0.03915   0.04135   0.04459

 Mulliken charges:
               1
     1  O   -0.312172
     2  O   -0.174063
     3  O   -0.235802
     4  O   -0.356918
     5  O   -0.222688
     6  O   -0.156188
     7  N   -0.064060
     8  N   -0.108224
     9  N   -0.095666
    10  N   -0.247827
    11  C    0.037573
    12  C    0.109296
    13  C   -0.015164
    14  C   -0.113435
    15  C   -0.059041
    16  C    0.116686
    17  C   -0.183505
    18  C    0.052121
    19  C   -0.035794
    20  C   -0.067695
    21  C    0.083200
    22  C    0.104005
    23  C   -0.029508
    24  C    0.027039
    25  C    0.011349
    26  C   -0.070366
    27  C   -0.043794
    28  C    0.115843
    29  C   -0.013219
    30  C   -0.023862
    31  C   -0.014966
    32  C   -0.053190
    33  C   -0.118982
    34  C    0.094642
    35  C    0.039191
    36  C    0.006387
    37  C    0.202655
    38  C    0.068432
    39  C   -0.234843
    40  C    0.153979
    41  C   -0.051927
    42  C    0.078254
    43  C   -0.008724
    44  H    0.044326
    45  H    0.018724
    46  H    0.025437
    47  H    0.102094
    48  H    0.139865
    49  H   -0.015824
    50  H    0.053812
    51  H   -0.044351
    52  H   -0.009918
    53  H    0.039683
    54  H    0.031610
    55  H    0.012844
    56  H    0.074906
    57  H    0.049129
    58  H    0.121166
    59  H   -0.004378
    60  H    0.125695
    61  H    0.047316
    62  H    0.060937
    63  H    0.073965
    64  H    0.058412
    65  H    0.088714
    66  H    0.048260
    67  H    0.057802
    68  H    0.044009
    69  H   -0.007653
    70  H    0.035830
    71  H   -0.022707
    72  H    0.181099
    73  H    0.014568
    74  H    0.033044
    75  H    0.040971
    76  H    0.021576
    77  H    0.228906
    78  H    0.018262
    79  H    0.022842
 Sum of Mulliken charges =   0.00000

 Dipole moment (field-independent basis, Debye):
    X=              0.4795    Y=             -0.0029    Z=              3.0226  Tot=              3.0604
 Quadrupole moment (field-independent basis, Debye-Ang):
   XX=           -216.0992   YY=           -253.6762   ZZ=           -270.9648
   XY=             -6.6335   XZ=             34.6261   YZ=             -4.8401

 Normal termination of Gaussian 09 at Tue Jul  9 19:40:28 2019.
