 Gaussian 09, Revision D.01,
 Gaussian 09:  ES64L-G09RevD.01 24-Apr-2013

 --------------------------
 # td=(NStates=1) B3LYP/SVP
 --------------------------

 --
 TD
 --
 Symbolic Z-matrix:
 Charge =  0 Multiplicity = 1

                         Standard orientation:
 ---------------------------------------------------------------------
 Center     Atomic      Atomic             Coordinates (Angstroms)
 Number     Number       Type             X           Y           Z
 ---------------------------------------------------------------------
      1          8           0        5.490005   -0.588177   -3.365056
      2          8           0       -3.058392   -3.050096    3.085822
      3          8           0       -3.184329   -0.848831    3.117814
      4          8           0       -1.042018    7.064538    1.689788
      5          8           0       -0.297980    7.028910   -0.529959
      6          8           0       -2.106894   -3.930310   -0.171961
      7          7           0        2.388892    0.927032    0.627631
      8          7           0        4.481777   -0.816918   -1.349194
      9          7           0       -1.945089    0.745111   -0.388861
     10          7           0       -2.891261   -1.789057   -0.393847
     11          6           0        4.883418   -1.288315    0.035592
     12          6           0        4.431713   -0.362562    1.244746
     13          6           0        3.047179   -0.087352    1.254321
     14          6           0        2.029216   -0.723126    2.098696
     15          6           0        0.773288   -0.226042    1.810981
     16          6           0        1.027392    0.851671    0.954887
     17          6           0        6.353800   -1.374437   -0.167291
     18          6           0       -0.593155   -0.416142    2.485180
     19          6           0        6.760340   -1.086656   -1.422427
     20          6           0        0.257589    1.847103    0.163202
     21          6           0       -1.042124    1.859522   -0.309235
     22          6           0        5.580535   -0.757833   -2.187843
     23          6           0       -1.811946    2.969884   -0.866785
     24          6           0        2.289407   -1.907163    2.977796
     25          6           0        7.288603   -1.883398    1.000130
     26          6           0       -2.980284    2.440240   -1.278384
     27          6           0       -1.279431   -1.817030    2.387802
     28          6           0       -3.030049    1.040507   -0.968829
     29          6           0       -1.294245    4.355952   -0.942915
     30          6           0        8.083104   -1.015608   -2.135503
     31          6           0       -1.459358    5.150032    0.422691
     32          6           0       -4.279463    3.194984   -1.745215
     33          6           0       -4.148501    0.191303   -1.120496
     34          6           0       -2.540876   -1.849301    2.970567
     35          6           0       -3.959520   -1.212282   -1.030698
     36          6           0        9.255948   -0.853400   -1.451964
     37          6           0       -0.839565    6.483608    0.464049
     38          6           0       -4.919044   -2.243373   -1.379611
     39          6           0       -4.410464   -3.459193   -1.059191
     40          6           0       -3.111343   -3.170179   -0.479006
     41          6           0       -6.226887   -2.032893   -1.966601
     42          6           0       -4.919168   -4.868800   -1.274182
     43          6           0       -7.142695   -2.906963   -2.418620
     44          1           0        4.646427   -2.472926    0.341461
     45          1           0        4.892938    0.674855    1.134939
     46          1           0        4.777737   -0.810698    2.115166
     47          1           0        2.709158    1.357045   -0.257993
     48          1           0        3.505297   -0.890639   -1.983108
     49          1           0       -0.427899   -0.154510    3.649965
     50          1           0       -1.352137    0.354548    2.048414
     51          1           0        0.710459    2.977193   -0.022834
     52          1           0        3.174873   -1.919447    3.195219
     53          1           0        1.760060   -1.882794    3.850828
     54          1           0        1.866820   -2.832329    2.498898
     55          1           0        6.675294   -2.575366    1.755003
     56          1           0        7.578478   -1.054475    1.622549
     57          1           0        8.268003   -2.189337    0.674886
     58          1           0       -1.296873   -2.344406    1.344563
     59          1           0       -0.474802   -2.495675    2.757650
     60          1           0       -1.948819   -0.174798    0.065409
     61          1           0       -1.847961    4.780625   -1.541902
     62          1           0       -0.242991    4.513794   -1.425550
     63          1           0        7.947456   -1.209817   -3.177862
     64          1           0       -1.095459    4.377632    1.241804
     65          1           0       -2.602749    5.079724    0.629853
     66          1           0       -4.307465    4.252955   -1.831229
     67          1           0       -4.976793    2.794315   -1.056877
     68          1           0       -4.692899    2.838535   -2.780795
     69          1           0       -4.835393    0.771651   -1.877485
     70          1           0        9.223182   -0.740080   -0.347144
     71          1           0       10.311046   -0.865274   -2.079889
     72          1           0       -3.979687   -2.938126    3.520014
     73          1           0       -6.505084   -0.895892   -2.338066
     74          1           0       -5.185499   -5.155988   -2.387466
     75          1           0       -3.926985   -5.650689   -1.094576
     76          1           0       -5.778250   -5.043576   -0.700348
     77          1           0       -0.652078    8.028836    1.394050
     78          1           0       -8.033185   -2.558067   -2.923570
     79          1           0       -6.968068   -3.874807   -2.490738
 ---------------------------------------------------------------------

 SCF Done:  E(RB3LYP) =  -1947.78341417     A.U. after   19 cycles

 Excitation energies and oscillator strengths:

 Excited State   1:      Singlet-A      2.0233 eV  612.79 nm  f=0.3545  <S**2>=0.000
     153 ->156         0.10963
     154 ->156         0.17363
     155 ->156         0.67069
 This state for optimization and/or second-order correction.
 Total Energy, E(TD-HF/TD-KS) =  -1947.70906067
 Copying the excited state density for this state as the 1-particle RhoCI density.

 The electronic state is 1-A.
 Alpha  occ. eigenvalues --  -19.20729 -19.16842 -19.14633 -19.10014 -19.09866
 Alpha  occ. eigenvalues --  -19.09538 -14.39053 -14.36704 -14.36208 -14.28459
 Alpha  occ. eigenvalues --  -10.34008 -10.29086 -10.27590 -10.27433 -10.25849
 Alpha  occ. eigenvalues --  -10.24598 -10.23859 -10.23824 -10.23576 -10.23369
 Alpha  occ. eigenvalues --  -10.23080 -10.23047 -10.22837 -10.22335 -10.21991
 Alpha  occ. eigenvalues --  -10.21574 -10.21176 -10.21033 -10.20969 -10.20929
 Alpha  occ. eigenvalues --  -10.20799 -10.20647 -10.20434 -10.20115 -10.20055
 Alpha  occ. eigenvalues --  -10.19936 -10.19756 -10.19626 -10.19391 -10.19378
 Alpha  occ. eigenvalues --  -10.18154 -10.18075 -10.17330  -1.09237  -1.09007
 Alpha  occ. eigenvalues --   -1.03933  -1.00681  -1.00287  -0.98977  -0.98867
 Alpha  occ. eigenvalues --   -0.97577  -0.93026  -0.90644  -0.83962  -0.81959
 Alpha  occ. eigenvalues --   -0.81801  -0.81389  -0.80295  -0.79767  -0.78254
 Alpha  occ. eigenvalues --   -0.77177  -0.76388  -0.75530  -0.74288  -0.73364
 Alpha  occ. eigenvalues --   -0.71979  -0.71557  -0.70051  -0.69517  -0.69236
 Alpha  occ. eigenvalues --   -0.67091  -0.66605  -0.64265  -0.60633  -0.59956
 Alpha  occ. eigenvalues --   -0.59216  -0.58737  -0.57837  -0.57632  -0.57142
 Alpha  occ. eigenvalues --   -0.56615  -0.56419  -0.54810  -0.54449  -0.53440
 Alpha  occ. eigenvalues --   -0.51762  -0.51572  -0.50835  -0.50607  -0.50384
 Alpha  occ. eigenvalues --   -0.50065  -0.49882  -0.48318  -0.47708  -0.47475
 Alpha  occ. eigenvalues --   -0.46949  -0.46570  -0.46192  -0.46036  -0.45951
 Alpha  occ. eigenvalues --   -0.45551  -0.44676  -0.44081  -0.43948  -0.43645
 Alpha  occ. eigenvalues --   -0.43557  -0.43397  -0.43086  -0.42561  -0.42278
 Alpha  occ. eigenvalues --   -0.41991  -0.41863  -0.41466  -0.41341  -0.41123
 Alpha  occ. eigenvalues --   -0.40763  -0.40488  -0.40011  -0.39769  -0.39691
 Alpha  occ. eigenvalues --   -0.39493  -0.39108  -0.39072  -0.38840  -0.38742
 Alpha  occ. eigenvalues --   -0.38056  -0.37929  -0.37493  -0.37371  -0.36832
 Alpha  occ. eigenvalues --   -0.36399  -0.36063  -0.35673  -0.35395  -0.34741
 Alpha  occ. eigenvalues --   -0.33358  -0.33089  -0.32643  -0.31533  -0.31242
 Alpha  occ. eigenvalues --   -0.31098  -0.30399  -0.29898  -0.28341  -0.26946
 Alpha  occ. eigenvalues --   -0.26799  -0.26308  -0.26146  -0.25936  -0.25638
 Alpha  occ. eigenvalues --   -0.24835  -0.23597  -0.23406  -0.21894  -0.19217
 Alpha virt. eigenvalues --   -0.10924  -0.06979  -0.05843  -0.03198  -0.00763
 Alpha virt. eigenvalues --    0.00081   0.00138   0.01785   0.02061   0.02233
 Alpha virt. eigenvalues --    0.02869   0.03312   0.03920   0.04595   0.04931

 Mulliken charges:
               1
     1  O   -0.202241
     2  O   -0.173844
     3  O   -0.243035
     4  O   -0.228282
     5  O   -0.267980
     6  O   -0.282314
     7  N   -0.080164
     8  N   -0.293293
     9  N   -0.008116
    10  N   -0.305944
    11  C    0.068341
    12  C    0.222147
    13  C   -0.066433
    14  C   -0.225237
    15  C   -0.017405
    16  C    0.072250
    17  C   -0.195780
    18  C   -0.008973
    19  C   -0.054750
    20  C   -0.106586
    21  C    0.044478
    22  C    0.110635
    23  C   -0.107977
    24  C    0.298712
    25  C    0.077577
    26  C   -0.115848
    27  C   -0.044184
    28  C   -0.019887
    29  C    0.225646
    30  C    0.041452
    31  C   -0.094632
    32  C    0.081771
    33  C   -0.092226
    34  C    0.132944
    35  C    0.098553
    36  C   -0.065245
    37  C    0.221602
    38  C    0.085224
    39  C   -0.160263
    40  C    0.166553
    41  C   -0.083458
    42  C    0.019508
    43  C    0.032552
    44  H    0.061455
    45  H    0.008198
    46  H   -0.024209
    47  H    0.136464
    48  H    0.185162
    49  H    0.038338
    50  H    0.038002
    51  H    0.040694
    52  H   -0.110408
    53  H   -0.026030
    54  H    0.042411
    55  H    0.036867
    56  H    0.019102
    57  H    0.028063
    58  H    0.103034
    59  H   -0.000304
    60  H    0.151172
    61  H   -0.098770
    62  H    0.043300
    63  H    0.010548
    64  H    0.066824
    65  H    0.064411
    66  H    0.012134
    67  H    0.031595
    68  H    0.034519
    69  H    0.013372
    70  H    0.027629
    71  H    0.060729
    72  H    0.198822
    73  H    0.018827
    74  H    0.048004
    75  H    0.064373
    76  H    0.026811
    77  H    0.221838
    78  H    0.018892
    79  H   -0.047717
 Sum of Mulliken charges =   0.00000

 Dipole moment (field-independent basis, Debye):
    X=              1.3971    Y=              2.8889    Z=              3.1418  Tot=              4.4910
 Quadrupole moment (field-independent basis, Debye-Ang):
   XX=           -220.0145   YY=           -248.6662   ZZ=           -260.7651
   XY=             -9.7458   XZ=             33.5709   YZ=             -0.8318

 Normal termination of Gaussian 09 at Sun Jul  7 22:06:34 2019.
