 Gaussian 09, Revision D.01,
 Gaussian 09:  ES64L-G09RevD.01 24-Apr-2013

 --------------------------
 # td=(NStates=1) B3LYP/SVP
 --------------------------

 --
 TD
 --
 Symbolic Z-matrix:
 Charge =  0 Multiplicity = 1

                         Standard orientation:
 ---------------------------------------------------------------------
 Center     Atomic      Atomic             Coordinates (Angstroms)
 Number     Number       Type             X           Y           Z
 ---------------------------------------------------------------------
      1          8           0        5.421724   -0.223781   -3.266017
      2          8           0       -2.837882   -2.968693    3.276234
      3          8           0       -3.320001   -0.830501    3.126451
      4          8           0       -2.268823    7.250984    1.258963
      5          8           0       -1.149659    7.095899   -0.608638
      6          8           0       -1.628154   -4.120336    0.072077
      7          7           0        2.350826    1.069151    0.545428
      8          7           0        4.545886   -0.547790   -1.174751
      9          7           0       -2.003218    0.584833   -0.244513
     10          7           0       -2.496750   -2.012235   -0.377592
     11          6           0        4.906147   -0.953158    0.129027
     12          6           0        4.512946    0.005990    1.256109
     13          6           0        3.015937    0.088704    1.268148
     14          6           0        2.018612   -0.433743    2.104710
     15          6           0        0.772712    0.057774    1.791761
     16          6           0        1.028950    0.921716    0.699674
     17          6           0        6.478695   -1.018280   -0.055934
     18          6           0       -0.515686   -0.177277    2.570820
     19          6           0        6.757042   -0.756069   -1.363331
     20          6           0        0.095645    1.962242    0.184439
     21          6           0       -1.186344    1.812254   -0.257941
     22          6           0        5.534137   -0.477010   -2.117744
     23          6           0       -2.091013    2.793219   -0.993757
     24          6           0        2.350616   -1.543642    3.134091
     25          6           0        7.332362   -1.423729    1.034805
     26          6           0       -3.219792    2.168940   -1.227794
     27          6           0       -1.015249   -1.556802    2.596553
     28          6           0       -3.101106    0.771491   -0.873007
     29          6           0       -1.768115    4.261861   -1.067108
     30          6           0        8.101119   -0.674612   -2.116546
     31          6           0       -2.325253    5.107190    0.237367
     32          6           0       -4.559222    2.709591   -1.928192
     33          6           0       -3.968550   -0.333756   -1.168942
     34          6           0       -2.436455   -1.731474    3.072426
     35          6           0       -3.678217   -1.601810   -1.001474
     36          6           0        9.319169   -0.464545   -1.624471
     37          6           0       -1.849441    6.523503    0.207302
     38          6           0       -4.451372   -2.810792   -1.438275
     39          6           0       -3.788464   -3.908957   -1.121830
     40          6           0       -2.541581   -3.428386   -0.401068
     41          6           0       -5.800403   -2.748487   -2.112724
     42          6           0       -4.010252   -5.355098   -1.075055
     43          6           0       -6.391768   -3.795786   -2.762304
     44          1           0        4.577923   -2.017145    0.383396
     45          1           0        5.022925    1.034465    1.118818
     46          1           0        4.870407   -0.417931    2.306508
     47          1           0        2.778053    1.636979   -0.187357
     48          1           0        3.533413   -0.293393   -1.255357
     49          1           0       -0.456172    0.349287    3.456997
     50          1           0       -1.366485    0.292613    2.014487
     51          1           0        0.570775    2.853105   -0.216629
     52          1           0        3.378473   -1.613736    3.157183
     53          1           0        1.984205   -1.280627    4.270342
     54          1           0        2.024830   -2.478350    2.951933
     55          1           0        6.733860   -1.947723    1.752369
     56          1           0        7.649917   -0.508741    1.371745
     57          1           0        8.293496   -1.996320    0.809042
     58          1           0       -1.204066   -1.984574    1.518035
     59          1           0       -0.330040   -2.067393    3.093971
     60          1           0       -1.627564   -0.344836   -0.244006
     61          1           0       -2.263979    4.608116   -1.951609
     62          1           0       -0.714422    4.447589   -1.224150
     63          1           0        7.661878   -1.068074   -3.199705
     64          1           0       -1.965847    4.607464    1.147512
     65          1           0       -3.470987    4.797983    0.014203
     66          1           0       -4.399421    3.983052   -1.952522
     67          1           0       -5.446524    2.754009   -1.121984
     68          1           0       -4.683656    2.324576   -2.950516
     69          1           0       -5.053930   -0.010727   -1.751020
     70          1           0        9.577758   -0.017678   -0.610292
     71          1           0       10.221854   -0.770802   -2.185954
     72          1           0       -3.751484   -2.943108    3.846788
     73          1           0       -6.221048   -1.843151   -1.835165
     74          1           0       -4.188624   -5.844842   -2.254561
     75          1           0       -3.328342   -5.967722   -0.477078
     76          1           0       -4.924056   -5.416571   -0.550920
     77          1           0       -1.589699    8.144498    1.336295
     78          1           0       -7.382901   -3.467694   -3.172138
     79          1           0       -6.180187   -4.765269   -2.999621
 ---------------------------------------------------------------------

 SCF Done:  E(RB3LYP) =  -1947.81755098     A.U. after   18 cycles

 Excitation energies and oscillator strengths:

 Excited State   1:      Singlet-A      2.2504 eV  550.95 nm  f=0.2897  <S**2>=0.000
     153 ->156        -0.12291
     154 ->156         0.18123
     155 ->156         0.66478
 This state for optimization and/or second-order correction.
 Total Energy, E(TD-HF/TD-KS) =  -1947.73485143
 Copying the excited state density for this state as the 1-particle RhoCI density.

 The electronic state is 1-A.
 Alpha  occ. eigenvalues --  -19.19000 -19.16980 -19.13402 -19.10120 -19.09471
 Alpha  occ. eigenvalues --  -19.08984 -14.39875 -14.37369 -14.35256 -14.28199
 Alpha  occ. eigenvalues --  -10.33263 -10.30111 -10.28117 -10.25648 -10.25414
 Alpha  occ. eigenvalues --  -10.25230 -10.25149 -10.24116 -10.24115 -10.23960
 Alpha  occ. eigenvalues --  -10.23707 -10.23587 -10.23264 -10.22463 -10.22255
 Alpha  occ. eigenvalues --  -10.21902 -10.21872 -10.21746 -10.21431 -10.20138
 Alpha  occ. eigenvalues --  -10.20104 -10.20008 -10.19903 -10.19595 -10.19515
 Alpha  occ. eigenvalues --  -10.19401 -10.19291 -10.19214 -10.19190 -10.19153
 Alpha  occ. eigenvalues --  -10.18629 -10.18153 -10.17847  -1.09582  -1.07179
 Alpha  occ. eigenvalues --   -1.04458  -1.00726  -1.00380  -0.99394  -0.98921
 Alpha  occ. eigenvalues --   -0.95266  -0.95166  -0.89893  -0.84079  -0.82441
 Alpha  occ. eigenvalues --   -0.81905  -0.81757  -0.79999  -0.79398  -0.78062
 Alpha  occ. eigenvalues --   -0.77788  -0.76843  -0.75961  -0.74391  -0.72760
 Alpha  occ. eigenvalues --   -0.72023  -0.71329  -0.69758  -0.69252  -0.68751
 Alpha  occ. eigenvalues --   -0.67139  -0.66161  -0.64138  -0.61105  -0.60640
 Alpha  occ. eigenvalues --   -0.59748  -0.59323  -0.58439  -0.57827  -0.57502
 Alpha  occ. eigenvalues --   -0.56995  -0.55884  -0.55493  -0.54303  -0.53056
 Alpha  occ. eigenvalues --   -0.52500  -0.51427  -0.50782  -0.50619  -0.50208
 Alpha  occ. eigenvalues --   -0.49868  -0.48736  -0.48243  -0.47926  -0.47777
 Alpha  occ. eigenvalues --   -0.47339  -0.47175  -0.46390  -0.46043  -0.45682
 Alpha  occ. eigenvalues --   -0.45410  -0.45137  -0.44826  -0.44189  -0.44002
 Alpha  occ. eigenvalues --   -0.43699  -0.43606  -0.43250  -0.43055  -0.42796
 Alpha  occ. eigenvalues --   -0.42372  -0.42093  -0.41842  -0.41759  -0.41288
 Alpha  occ. eigenvalues --   -0.40371  -0.40248  -0.40076  -0.39913  -0.39611
 Alpha  occ. eigenvalues --   -0.39460  -0.39112  -0.38941  -0.38613  -0.38232
 Alpha  occ. eigenvalues --   -0.38068  -0.37719  -0.37629  -0.37068  -0.36941
 Alpha  occ. eigenvalues --   -0.36723  -0.35841  -0.35546  -0.33825  -0.33233
 Alpha  occ. eigenvalues --   -0.32818  -0.32504  -0.32416  -0.32053  -0.31233
 Alpha  occ. eigenvalues --   -0.30268  -0.29055  -0.28925  -0.28759  -0.28268
 Alpha  occ. eigenvalues --   -0.26813  -0.26538  -0.26404  -0.26049  -0.24950
 Alpha  occ. eigenvalues --   -0.23980  -0.23720  -0.22922  -0.22078  -0.19826
 Alpha virt. eigenvalues --   -0.10556  -0.05596  -0.04832  -0.02629  -0.01135
 Alpha virt. eigenvalues --    0.00300   0.00703   0.01007   0.01400   0.02150
 Alpha virt. eigenvalues --    0.02823   0.02992   0.03768   0.04178   0.05009

 Mulliken charges:
               1
     1  O   -0.176725
     2  O   -0.204346
     3  O   -0.304440
     4  O   -0.259203
     5  O   -0.233693
     6  O   -0.234550
     7  N   -0.057953
     8  N   -0.192702
     9  N   -0.008066
    10  N   -0.355558
    11  C    0.058746
    12  C    0.098148
    13  C   -0.067983
    14  C   -0.143552
    15  C   -0.081827
    16  C   -0.011474
    17  C   -0.214111
    18  C    0.146515
    19  C   -0.133824
    20  C   -0.037021
    21  C    0.081310
    22  C    0.150196
    23  C   -0.079563
    24  C    0.140447
    25  C    0.146751
    26  C   -0.124596
    27  C    0.038595
    28  C    0.032375
    29  C    0.092971
    30  C    0.026330
    31  C   -0.050752
    32  C   -0.000372
    33  C   -0.170797
    34  C    0.125625
    35  C    0.159147
    36  C   -0.076775
    37  C    0.177893
    38  C    0.002939
    39  C   -0.175994
    40  C    0.150229
    41  C    0.035891
    42  C    0.065553
    43  C    0.013042
    44  H    0.037510
    45  H    0.021867
    46  H    0.040361
    47  H    0.123786
    48  H    0.120578
    49  H   -0.009052
    50  H    0.002233
    51  H   -0.015989
    52  H   -0.051039
    53  H    0.027888
    54  H    0.018594
    55  H    0.010368
    56  H    0.010929
    57  H    0.042489
    58  H    0.110747
    59  H   -0.035350
    60  H    0.143434
    61  H    0.017449
    62  H    0.009263
    63  H    0.061656
    64  H    0.057359
    65  H    0.081905
    66  H    0.023366
    67  H    0.068025
    68  H    0.070822
    69  H    0.023994
    70  H    0.036276
    71  H    0.036578
    72  H    0.232184
    73  H   -0.023481
    74  H    0.044793
    75  H    0.034937
    76  H    0.014464
    77  H    0.250681
    78  H    0.020761
    79  H   -0.007208
 Sum of Mulliken charges =   0.00000

 Dipole moment (field-independent basis, Debye):
    X=              0.9015    Y=              3.7629    Z=              3.9041  Tot=              5.4967
 Quadrupole moment (field-independent basis, Debye-Ang):
   XX=           -225.6039   YY=           -251.0155   ZZ=           -260.6728
   XY=             -2.1226   XZ=             35.6068   YZ=              2.9519

 Normal termination of Gaussian 09 at Mon Jul  8 02:46:43 2019.
