 Gaussian 09, Revision D.01,
 Gaussian 09:  ES64L-G09RevD.01 24-Apr-2013

 --------------------------
 # td=(NStates=1) B3LYP/SVP
 --------------------------

 --
 TD
 --
 Symbolic Z-matrix:
 Charge =  0 Multiplicity = 1

                         Standard orientation:
 ---------------------------------------------------------------------
 Center     Atomic      Atomic             Coordinates (Angstroms)
 Number     Number       Type             X           Y           Z
 ---------------------------------------------------------------------
      1          8           0        5.237721   -0.535857   -3.448979
      2          8           0       -3.144851   -2.971630    3.275808
      3          8           0       -3.181043   -0.714159    3.333239
      4          8           0       -1.351269    7.107228    1.596589
      5          8           0       -0.795245    7.110041   -0.700836
      6          8           0       -1.928963   -3.925663   -0.044609
      7          7           0        2.389268    0.951421    0.638604
      8          7           0        4.429562   -0.743107   -1.272316
      9          7           0       -2.000542    0.679805   -0.389536
     10          7           0       -2.662534   -1.810235   -0.546006
     11          6           0        4.975473   -1.129925   -0.009056
     12          6           0        4.500804   -0.167904    1.233165
     13          6           0        2.993495   -0.059066    1.397100
     14          6           0        2.029831   -0.761148    2.064662
     15          6           0        0.729168   -0.180985    1.718986
     16          6           0        0.967309    0.879684    0.846969
     17          6           0        6.456335   -1.201811   -0.172662
     18          6           0       -0.537269   -0.348403    2.543281
     19          6           0        6.735585   -0.966332   -1.422497
     20          6           0        0.137470    1.874486    0.120425
     21          6           0       -1.096786    1.736816   -0.299553
     22          6           0        5.435474   -0.689445   -2.221525
     23          6           0       -1.937213    2.920309   -0.848201
     24          6           0        2.308365   -1.764718    3.171644
     25          6           0        7.380887   -1.775729    1.019154
     26          6           0       -3.119496    2.430246   -1.253197
     27          6           0       -1.078424   -1.775005    2.652149
     28          6           0       -3.111687    0.967551   -0.990186
     29          6           0       -1.485495    4.318435   -0.881404
     30          6           0        7.947607   -0.915626   -2.162504
     31          6           0       -1.519080    5.010151    0.465646
     32          6           0       -4.232348    3.117224   -1.933653
     33          6           0       -4.083731    0.023523   -1.259168
     34          6           0       -2.557816   -1.760916    3.200790
     35          6           0       -3.833692   -1.346192   -1.160714
     36          6           0        9.170914   -0.571825   -1.625041
     37          6           0       -1.193854    6.477146    0.372321
     38          6           0       -4.826861   -2.492533   -1.484407
     39          6           0       -4.081761   -3.635014   -1.127216
     40          6           0       -2.726735   -3.234670   -0.442800
     41          6           0       -6.088159   -2.299055   -2.103592
     42          6           0       -4.464687   -5.114269   -1.305775
     43          6           0       -6.996514   -3.230243   -2.517005
     44          1           0        4.750384   -2.237920    0.282063
     45          1           0        4.910849    0.887339    0.954606
     46          1           0        4.970176   -0.850812    2.019365
     47          1           0        2.727050    1.443881   -0.116924
     48          1           0        3.452865   -1.110778   -1.465938
     49          1           0       -0.343632    0.191952    3.463589
     50          1           0       -1.339679    0.175324    2.070665
     51          1           0        0.561031    2.835987    0.173469
     52          1           0        3.534267   -1.955874    3.197751
     53          1           0        1.849442   -1.481926    4.117583
     54          1           0        1.910055   -2.724670    2.973317
     55          1           0        6.696418   -2.557242    1.549802
     56          1           0        7.535626   -1.123366    2.079672
     57          1           0        8.228161   -2.252228    0.438881
     58          1           0       -0.921778   -2.461415    1.868580
     59          1           0       -0.500488   -2.273455    3.494042
     60          1           0       -1.716401   -0.401476   -0.282153
     61          1           0       -2.096327    5.110976   -1.654903
     62          1           0       -0.298782    4.327155   -1.414786
     63          1           0        7.965734   -0.960348   -3.283351
     64          1           0       -0.831382    4.557638    1.247045
     65          1           0       -2.568760    5.051269    1.096591
     66          1           0       -4.058954    4.149255   -2.292645
     67          1           0       -5.198328    3.214200   -1.207395
     68          1           0       -4.589269    2.556180   -2.861706
     69          1           0       -4.889171    0.310562   -1.859538
     70          1           0        9.430246   -0.379190   -0.471327
     71          1           0        9.899066   -0.522981   -2.290574
     72          1           0       -4.085705   -2.727516    3.629964
     73          1           0       -6.286397   -1.214788   -2.174297
     74          1           0       -4.321407   -5.661562   -2.156332
     75          1           0       -3.843342   -5.639939   -0.559767
     76          1           0       -5.480286   -5.326399   -0.984230
     77          1           0       -0.988580    7.980209    1.544655
     78          1           0       -7.911575   -2.761942   -3.064882
     79          1           0       -6.714873   -4.279511   -2.682636
 ---------------------------------------------------------------------

 SCF Done:  E(RB3LYP) =  -1947.87145840     A.U. after   16 cycles

 Excitation energies and oscillator strengths:

 Excited State   1:      Singlet-A      2.2814 eV  543.46 nm  f=0.3239  <S**2>=0.000
     154 ->156         0.21020
     155 ->156         0.66479
 This state for optimization and/or second-order correction.
 Total Energy, E(TD-HF/TD-KS) =  -1947.78761887
 Copying the excited state density for this state as the 1-particle RhoCI density.

 The electronic state is 1-A.
 Alpha  occ. eigenvalues --  -19.19588 -19.18329 -19.13738 -19.11775 -19.11543
 Alpha  occ. eigenvalues --  -19.10420 -14.36882 -14.36448 -14.35908 -14.29210
 Alpha  occ. eigenvalues --  -10.34114 -10.31371 -10.29155 -10.26924 -10.24982
 Alpha  occ. eigenvalues --  -10.24825 -10.24454 -10.24105 -10.24024 -10.24002
 Alpha  occ. eigenvalues --  -10.23855 -10.23078 -10.22786 -10.22727 -10.22054
 Alpha  occ. eigenvalues --  -10.21541 -10.21488 -10.21300 -10.20976 -10.20643
 Alpha  occ. eigenvalues --  -10.20548 -10.20519 -10.20428 -10.20361 -10.20328
 Alpha  occ. eigenvalues --  -10.20247 -10.19836 -10.19587 -10.19223 -10.19000
 Alpha  occ. eigenvalues --  -10.18543 -10.18315 -10.18036  -1.08725  -1.08380
 Alpha  occ. eigenvalues --   -1.07078  -1.01115  -0.99457  -0.98915  -0.97840
 Alpha  occ. eigenvalues --   -0.96503  -0.94107  -0.89663  -0.83315  -0.82559
 Alpha  occ. eigenvalues --   -0.81804  -0.80713  -0.79785  -0.78845  -0.78329
 Alpha  occ. eigenvalues --   -0.76809  -0.76262  -0.74969  -0.74164  -0.72210
 Alpha  occ. eigenvalues --   -0.71162  -0.70284  -0.69449  -0.68541  -0.68087
 Alpha  occ. eigenvalues --   -0.66441  -0.65748  -0.63562  -0.61510  -0.60958
 Alpha  occ. eigenvalues --   -0.60748  -0.58967  -0.58262  -0.57938  -0.56490
 Alpha  occ. eigenvalues --   -0.56165  -0.55401  -0.54571  -0.53579  -0.52634
 Alpha  occ. eigenvalues --   -0.51631  -0.50948  -0.50590  -0.50338  -0.49504
 Alpha  occ. eigenvalues --   -0.48796  -0.48186  -0.47854  -0.47785  -0.47550
 Alpha  occ. eigenvalues --   -0.47242  -0.46882  -0.46355  -0.45780  -0.45493
 Alpha  occ. eigenvalues --   -0.45217  -0.44645  -0.44163  -0.44113  -0.43725
 Alpha  occ. eigenvalues --   -0.43448  -0.43278  -0.42706  -0.42536  -0.42023
 Alpha  occ. eigenvalues --   -0.41709  -0.41518  -0.41297  -0.41034  -0.40855
 Alpha  occ. eigenvalues --   -0.40542  -0.40520  -0.40360  -0.40163  -0.39775
 Alpha  occ. eigenvalues --   -0.39392  -0.39134  -0.38910  -0.38791  -0.38594
 Alpha  occ. eigenvalues --   -0.38287  -0.37410  -0.37355  -0.37110  -0.36668
 Alpha  occ. eigenvalues --   -0.36290  -0.36109  -0.35567  -0.35250  -0.34660
 Alpha  occ. eigenvalues --   -0.34444  -0.33376  -0.32253  -0.32100  -0.32086
 Alpha  occ. eigenvalues --   -0.31600  -0.31366  -0.29023  -0.28561  -0.28514
 Alpha  occ. eigenvalues --   -0.27219  -0.26697  -0.26423  -0.25529  -0.24474
 Alpha  occ. eigenvalues --   -0.24359  -0.24006  -0.23508  -0.21843  -0.20007
 Alpha virt. eigenvalues --   -0.10372  -0.06259  -0.05728  -0.03287  -0.01060
 Alpha virt. eigenvalues --   -0.00117   0.00615   0.01091   0.01847   0.02863
 Alpha virt. eigenvalues --    0.03902   0.04281   0.04685   0.04777   0.05056

 Mulliken charges:
               1
     1  O   -0.245425
     2  O   -0.200304
     3  O   -0.253384
     4  O   -0.187579
     5  O   -0.302152
     6  O   -0.097053
     7  N   -0.111451
     8  N   -0.177845
     9  N   -0.071941
    10  N   -0.377801
    11  C   -0.012968
    12  C    0.159410
    13  C   -0.028272
    14  C   -0.142158
    15  C   -0.123220
    16  C    0.045251
    17  C   -0.111249
    18  C    0.118520
    19  C   -0.045299
    20  C   -0.111082
    21  C    0.189472
    22  C    0.172659
    23  C   -0.032632
    24  C    0.086604
    25  C   -0.005391
    26  C   -0.072292
    27  C   -0.001962
    28  C    0.070402
    29  C   -0.079068
    30  C   -0.069575
    31  C   -0.036325
    32  C    0.030131
    33  C   -0.061984
    34  C    0.152495
    35  C    0.083396
    36  C   -0.011298
    37  C    0.186189
    38  C    0.068803
    39  C   -0.239213
    40  C    0.164729
    41  C   -0.036586
    42  C    0.106899
    43  C   -0.037454
    44  H    0.033104
    45  H    0.018323
    46  H   -0.000597
    47  H    0.089699
    48  H    0.160921
    49  H    0.016479
    50  H   -0.001020
    51  H   -0.014566
    52  H    0.014858
    53  H    0.025377
    54  H    0.012506
    55  H    0.026397
    56  H    0.068680
    57  H    0.064499
    58  H    0.039193
    59  H    0.013744
    60  H    0.201620
    61  H    0.068983
    62  H    0.063715
    63  H    0.031252
    64  H    0.060709
    65  H    0.077152
    66  H    0.016356
    67  H    0.044285
    68  H    0.040107
    69  H   -0.049403
    70  H    0.050455
    71  H   -0.011464
    72  H    0.204044
    73  H   -0.005934
    74  H    0.013283
    75  H    0.009226
    76  H    0.012013
    77  H    0.178374
    78  H    0.040533
    79  H    0.035096
 Sum of Mulliken charges =   0.00000

 Dipole moment (field-independent basis, Debye):
    X=              0.2765    Y=              1.3926    Z=              3.7362  Tot=              3.9969
 Quadrupole moment (field-independent basis, Debye-Ang):
   XX=           -223.9412   YY=           -247.8039   ZZ=           -262.9815
   XY=             -6.3362   XZ=             29.2944   YZ=              6.5116

 Normal termination of Gaussian 09 at Mon Jul  8 22:21:04 2019.
