 Gaussian 09, Revision D.01,
 Gaussian 09:  ES64L-G09RevD.01 24-Apr-2013

 --------------------------
 # td=(NStates=1) B3LYP/SVP
 --------------------------

 --
 TD
 --
 Symbolic Z-matrix:
 Charge =  0 Multiplicity = 1

                         Standard orientation:
 ---------------------------------------------------------------------
 Center     Atomic      Atomic             Coordinates (Angstroms)
 Number     Number       Type             X           Y           Z
 ---------------------------------------------------------------------
      1          8           0        5.412958   -0.319016   -3.354097
      2          8           0       -2.962375   -2.978377    3.199403
      3          8           0       -2.966337   -0.802667    3.452915
      4          8           0       -1.504157    7.321573    1.423676
      5          8           0       -0.139374    6.856299   -0.416073
      6          8           0       -2.296598   -4.006854   -0.128005
      7          7           0        2.394460    0.685322    0.484551
      8          7           0        4.499239   -0.713219   -1.309618
      9          7           0       -1.868599    0.615044   -0.273871
     10          7           0       -2.823963   -1.774194   -0.663577
     11          6           0        4.918689   -1.266737   -0.070356
     12          6           0        4.520585   -0.404286    1.120113
     13          6           0        3.039166   -0.172960    1.286065
     14          6           0        2.089698   -0.760631    2.112020
     15          6           0        0.807734   -0.195932    1.824925
     16          6           0        1.072338    0.777276    0.895898
     17          6           0        6.421160   -1.383731   -0.213349
     18          6           0       -0.515258   -0.369942    2.523107
     19          6           0        6.822937   -1.020569   -1.461593
     20          6           0        0.252166    1.757712    0.119456
     21          6           0       -1.105486    1.773697   -0.111069
     22          6           0        5.531715   -0.649023   -2.216848
     23          6           0       -1.827408    2.913546   -0.835034
     24          6           0        2.245803   -1.874151    3.148319
     25          6           0        7.282930   -1.790141    1.018851
     26          6           0       -3.113395    2.476189   -1.099801
     27          6           0       -1.044041   -1.815787    2.547343
     28          6           0       -3.100797    0.984750   -0.879036
     29          6           0       -1.268790    4.268746   -0.942144
     30          6           0        8.055969   -0.855967   -2.182126
     31          6           0       -1.632623    5.034296    0.389374
     32          6           0       -4.186456    3.175152   -1.720094
     33          6           0       -4.233174    0.075441   -1.191756
     34          6           0       -2.426304   -1.812831    3.077864
     35          6           0       -3.933409   -1.243335   -1.122427
     36          6           0        9.303804   -0.921060   -1.595033
     37          6           0       -0.954143    6.504909    0.469805
     38          6           0       -4.952728   -2.322957   -1.385510
     39          6           0       -4.435121   -3.548053   -1.176114
     40          6           0       -3.106938   -3.176775   -0.542159
     41          6           0       -6.256661   -2.017795   -2.113750
     42          6           0       -4.958728   -4.905141   -1.285934
     43          6           0       -7.120483   -2.895321   -2.679663
     44          1           0        4.320358   -2.364128    0.154118
     45          1           0        4.903718    0.530962    1.105680
     46          1           0        4.957046   -0.957714    2.054664
     47          1           0        2.790517    1.465846   -0.317988
     48          1           0        3.511838   -0.346734   -1.731291
     49          1           0       -0.367759   -0.036179    3.562193
     50          1           0       -1.397834    0.143124    2.151152
     51          1           0        0.921158    2.719008   -0.047529
     52          1           0        3.326587   -1.849406    3.521855
     53          1           0        1.659153   -1.333742    3.953151
     54          1           0        2.076880   -2.928859    2.793813
     55          1           0        6.607835   -2.465950    1.616771
     56          1           0        7.307673   -0.956715    1.693826
     57          1           0        7.990107   -2.297478    0.499578
     58          1           0       -1.156364   -2.138414    1.573221
     59          1           0       -0.417889   -2.487933    3.038647
     60          1           0       -1.701573   -0.369491   -0.053973
     61          1           0       -1.741919    4.897457   -1.718796
     62          1           0       -0.194398    4.410882   -0.961039
     63          1           0        7.861991   -0.656372   -3.229474
     64          1           0       -1.212446    4.575902    1.184367
     65          1           0       -2.878455    5.289845    0.469025
     66          1           0       -4.192457    4.299991   -1.516534
     67          1           0       -5.138002    2.959085   -1.153858
     68          1           0       -4.303864    2.905691   -2.909571
     69          1           0       -5.068485    0.563070   -1.547677
     70          1           0        9.387841   -1.258756   -0.523721
     71          1           0       10.288353   -0.770939   -2.045325
     72          1           0       -3.845930   -2.776338    3.666323
     73          1           0       -6.635403   -1.073173   -1.883732
     74          1           0       -4.812629   -5.268982   -2.301466
     75          1           0       -4.054912   -5.505827   -0.959360
     76          1           0       -5.933059   -5.156935   -0.741658
     77          1           0       -1.040629    8.208342    1.386509
     78          1           0       -7.872439   -2.467689   -3.244425
     79          1           0       -6.861992   -3.791322   -2.878505
 ---------------------------------------------------------------------

 SCF Done:  E(RB3LYP) =  -1947.84907147     A.U. after   18 cycles

 Excitation energies and oscillator strengths:

 Excited State   1:      Singlet-A      2.2587 eV  548.91 nm  f=0.4899  <S**2>=0.000
     155 ->156         0.69585
 This state for optimization and/or second-order correction.
 Total Energy, E(TD-HF/TD-KS) =  -1947.76606430
 Copying the excited state density for this state as the 1-particle RhoCI density.

 The electronic state is 1-A.
 Alpha  occ. eigenvalues --  -19.20605 -19.18037 -19.14183 -19.10550 -19.10106
 Alpha  occ. eigenvalues --  -19.09795 -14.39377 -14.37437 -14.35650 -14.28640
 Alpha  occ. eigenvalues --  -10.34075 -10.29908 -10.27937 -10.26204 -10.26064
 Alpha  occ. eigenvalues --  -10.25987 -10.25124 -10.23256 -10.23169 -10.22815
 Alpha  occ. eigenvalues --  -10.22424 -10.22421 -10.22199 -10.22142 -10.21990
 Alpha  occ. eigenvalues --  -10.21496 -10.21469 -10.21422 -10.20671 -10.20600
 Alpha  occ. eigenvalues --  -10.20494 -10.20424 -10.20259 -10.19352 -10.19120
 Alpha  occ. eigenvalues --  -10.18879 -10.18851 -10.18751 -10.18674 -10.18669
 Alpha  occ. eigenvalues --  -10.18611 -10.17228 -10.17031  -1.10781  -1.09221
 Alpha  occ. eigenvalues --   -1.03889  -1.00400  -1.00090  -0.99605  -0.99015
 Alpha  occ. eigenvalues --   -0.96739  -0.94250  -0.91622  -0.83378  -0.81889
 Alpha  occ. eigenvalues --   -0.81558  -0.80817  -0.79940  -0.79557  -0.77519
 Alpha  occ. eigenvalues --   -0.77154  -0.76617  -0.75610  -0.74510  -0.72577
 Alpha  occ. eigenvalues --   -0.71339  -0.71008  -0.69543  -0.68721  -0.68192
 Alpha  occ. eigenvalues --   -0.66937  -0.65479  -0.63455  -0.61252  -0.60899
 Alpha  occ. eigenvalues --   -0.60264  -0.59016  -0.58266  -0.56895  -0.56867
 Alpha  occ. eigenvalues --   -0.56064  -0.55422  -0.54740  -0.54017  -0.52964
 Alpha  occ. eigenvalues --   -0.51971  -0.51245  -0.50732  -0.50032  -0.49689
 Alpha  occ. eigenvalues --   -0.49323  -0.48969  -0.48825  -0.48453  -0.47906
 Alpha  occ. eigenvalues --   -0.47500  -0.47265  -0.47097  -0.46422  -0.45963
 Alpha  occ. eigenvalues --   -0.45290  -0.45020  -0.44694  -0.44559  -0.44048
 Alpha  occ. eigenvalues --   -0.43696  -0.43592  -0.43227  -0.43006  -0.42415
 Alpha  occ. eigenvalues --   -0.42202  -0.42030  -0.41834  -0.41498  -0.41221
 Alpha  occ. eigenvalues --   -0.40910  -0.40424  -0.40322  -0.39827  -0.39552
 Alpha  occ. eigenvalues --   -0.39396  -0.39179  -0.38885  -0.38589  -0.38327
 Alpha  occ. eigenvalues --   -0.37825  -0.37735  -0.37463  -0.37381  -0.36794
 Alpha  occ. eigenvalues --   -0.36472  -0.36234  -0.35380  -0.35115  -0.34537
 Alpha  occ. eigenvalues --   -0.33798  -0.33427  -0.33369  -0.33090  -0.32220
 Alpha  occ. eigenvalues --   -0.31137  -0.30111  -0.28768  -0.28301  -0.26995
 Alpha  occ. eigenvalues --   -0.26772  -0.25994  -0.25923  -0.25677  -0.24834
 Alpha  occ. eigenvalues --   -0.23856  -0.23653  -0.23507  -0.22281  -0.19357
 Alpha virt. eigenvalues --   -0.10364  -0.06287  -0.05831  -0.02306  -0.01193
 Alpha virt. eigenvalues --   -0.00275   0.01170   0.01298   0.02470   0.02741
 Alpha virt. eigenvalues --    0.02917   0.03197   0.03709   0.04071   0.04789

 Mulliken charges:
               1
     1  O   -0.198035
     2  O   -0.137686
     3  O   -0.256846
     4  O   -0.202487
     5  O   -0.263329
     6  O   -0.222593
     7  N   -0.152242
     8  N   -0.243405
     9  N   -0.105908
    10  N   -0.293775
    11  C    0.070192
    12  C    0.213735
    13  C   -0.068648
    14  C   -0.170751
    15  C   -0.070575
    16  C    0.026854
    17  C   -0.214807
    18  C    0.060376
    19  C   -0.055358
    20  C   -0.064433
    21  C    0.107793
    22  C    0.110637
    23  C   -0.065978
    24  C    0.068023
    25  C    0.165126
    26  C   -0.102724
    27  C    0.062210
    28  C    0.071696
    29  C    0.116370
    30  C    0.018690
    31  C   -0.052155
    32  C    0.021119
    33  C   -0.081174
    34  C    0.087308
    35  C    0.153749
    36  C   -0.047617
    37  C    0.167982
    38  C   -0.015203
    39  C   -0.205430
    40  C    0.149421
    41  C   -0.026925
    42  C    0.121723
    43  C    0.094364
    44  H    0.043294
    45  H   -0.047648
    46  H   -0.000742
    47  H    0.182377
    48  H    0.172888
    49  H    0.010139
    50  H    0.016815
    51  H    0.021996
    52  H   -0.005762
    53  H    0.035911
    54  H    0.065400
    55  H    0.009722
    56  H    0.035954
    57  H    0.032292
    58  H    0.018579
    59  H    0.007531
    60  H    0.153909
    61  H    0.020050
    62  H    0.019465
    63  H    0.007639
    64  H    0.015126
    65  H    0.072699
    66  H    0.018297
    67  H    0.031832
    68  H    0.073293
    69  H   -0.053835
    70  H    0.022694
    71  H    0.033887
    72  H    0.194173
    73  H   -0.014981
    74  H    0.011306
    75  H    0.008292
    76  H    0.061081
    77  H    0.204253
    78  H    0.002172
    79  H   -0.049382
 Sum of Mulliken charges =   0.00000

 Dipole moment (field-independent basis, Debye):
    X=              0.4357    Y=              4.2255    Z=              3.3560  Tot=              5.4136
 Quadrupole moment (field-independent basis, Debye-Ang):
   XX=           -224.4515   YY=           -240.0428   ZZ=           -263.6896
   XY=            -12.5679   XZ=             29.7388   YZ=              1.1498

 Normal termination of Gaussian 09 at Wed Jul 10 06:15:13 2019.
