 Gaussian 09, Revision D.01,
 Gaussian 09:  ES64L-G09RevD.01 24-Apr-2013

 --------------------------
 # td=(NStates=1) B3LYP/SVP
 --------------------------

 --
 TD
 --
 Symbolic Z-matrix:
 Charge =  0 Multiplicity = 1

                         Standard orientation:
 ---------------------------------------------------------------------
 Center     Atomic      Atomic             Coordinates (Angstroms)
 Number     Number       Type             X           Y           Z
 ---------------------------------------------------------------------
      1          8           0        5.481433   -0.114019   -3.341050
      2          8           0       -2.928085   -3.071459    3.180582
      3          8           0       -3.137119   -0.771286    3.381679
      4          8           0       -1.724930    7.040148    1.602788
      5          8           0       -0.865104    7.050032   -0.488172
      6          8           0       -1.866655   -3.925167   -0.143575
      7          7           0        2.304550    0.866184    0.563511
      8          7           0        4.494769   -0.555092   -1.238733
      9          7           0       -1.933595    0.724246   -0.325197
     10          7           0       -2.707752   -1.815428   -0.557989
     11          6           0        4.839983   -1.129988    0.024440
     12          6           0        4.446271   -0.196473    1.206070
     13          6           0        2.919255   -0.023927    1.330186
     14          6           0        2.002722   -0.579742    2.212605
     15          6           0        0.748323   -0.032275    1.784968
     16          6           0        0.994763    0.876832    0.833155
     17          6           0        6.322325   -1.312149   -0.169158
     18          6           0       -0.542806   -0.351610    2.473404
     19          6           0        6.724540   -0.911802   -1.383564
     20          6           0        0.228732    1.892044    0.103860
     21          6           0       -1.077971    1.814568   -0.293029
     22          6           0        5.545334   -0.457521   -2.161006
     23          6           0       -1.875920    2.962207   -0.939528
     24          6           0        2.314163   -1.748069    3.148754
     25          6           0        7.180365   -1.849284    0.979796
     26          6           0       -3.067649    2.395698   -1.262575
     27          6           0       -1.077400   -1.766808    2.506152
     28          6           0       -3.081411    0.955981   -0.933455
     29          6           0       -1.505459    4.305655   -0.953555
     30          6           0        8.014283   -0.813428   -2.119285
     31          6           0       -1.815365    5.000274    0.381921
     32          6           0       -4.256058    3.126268   -1.889144
     33          6           0       -3.949433   -0.052663   -1.381878
     34          6           0       -2.487281   -1.813237    3.056972
     35          6           0       -3.825959   -1.455605   -1.187120
     36          6           0        9.243041   -0.646138   -1.492586
     37          6           0       -1.369725    6.525719    0.445088
     38          6           0       -4.721644   -2.557647   -1.434698
     39          6           0       -4.118909   -3.694678   -1.049853
     40          6           0       -2.673702   -3.225037   -0.538721
     41          6           0       -6.003888   -2.408825   -2.104623
     42          6           0       -4.436435   -5.144385   -1.214816
     43          6           0       -6.868297   -3.470035   -2.527569
     44          1           0        4.717478   -2.191722    0.034566
     45          1           0        5.017737    0.715880    0.968633
     46          1           0        4.938390   -0.828652    2.052530
     47          1           0        2.781740    1.682170    0.067009
     48          1           0        3.648421   -0.751594   -1.638585
     49          1           0       -0.331401    0.194641    3.420877
     50          1           0       -1.361040    0.299612    1.999837
     51          1           0        0.708874    2.788460   -0.274454
     52          1           0        3.356582   -1.881177    3.315741
     53          1           0        1.684922   -1.598156    4.111951
     54          1           0        1.763689   -2.714438    2.833618
     55          1           0        6.580245   -2.744464    1.454258
     56          1           0        7.488513   -1.177855    1.943876
     57          1           0        8.066169   -2.552448    0.640702
     58          1           0       -1.147733   -2.265810    1.483065
     59          1           0       -0.349788   -2.283210    3.122418
     60          1           0       -1.504786   -0.172113   -0.308656
     61          1           0       -1.930400    4.851203   -1.643007
     62          1           0       -0.554673    4.607312   -1.230664
     63          1           0        8.010830   -0.620352   -3.214500
     64          1           0       -1.121933    4.783231    1.236854
     65          1           0       -2.958946    4.633457    0.776255
     66          1           0       -4.134159    4.127060   -1.974971
     67          1           0       -5.250017    2.848408   -1.373959
     68          1           0       -4.619623    2.548769   -2.721870
     69          1           0       -4.867421    0.293075   -1.958351
     70          1           0        9.405271   -0.865926   -0.401719
     71          1           0       10.081275   -0.687400   -2.156712
     72          1           0       -3.760592   -2.953343    3.801915
     73          1           0       -6.272068   -1.271744   -2.366521
     74          1           0       -4.779292   -5.357586   -2.292115
     75          1           0       -3.492724   -5.771581   -0.751952
     76          1           0       -5.444581   -5.368437   -0.404422
     77          1           0       -1.482347    7.943822    1.489292
     78          1           0       -7.804267   -3.225478   -3.041789
     79          1           0       -6.477201   -4.522483   -2.335537
 ---------------------------------------------------------------------

 SCF Done:  E(RB3LYP) =  -1947.85624053     A.U. after   16 cycles

 Excitation energies and oscillator strengths:

 Excited State   1:      Singlet-A      2.2348 eV  554.79 nm  f=0.4145  <S**2>=0.000
     154 ->156         0.11403
     155 ->156         0.69208
 This state for optimization and/or second-order correction.
 Total Energy, E(TD-HF/TD-KS) =  -1947.77411354
 Copying the excited state density for this state as the 1-particle RhoCI density.

 The electronic state is 1-A.
 Alpha  occ. eigenvalues --  -19.20531 -19.18695 -19.14361 -19.11546 -19.11248
 Alpha  occ. eigenvalues --  -19.10410 -14.37882 -14.36533 -14.34369 -14.28209
 Alpha  occ. eigenvalues --  -10.33408 -10.31223 -10.28319 -10.26431 -10.24931
 Alpha  occ. eigenvalues --  -10.24253 -10.23954 -10.23446 -10.23055 -10.22912
 Alpha  occ. eigenvalues --  -10.22483 -10.22393 -10.22273 -10.22257 -10.21540
 Alpha  occ. eigenvalues --  -10.21509 -10.21477 -10.21025 -10.20783 -10.20706
 Alpha  occ. eigenvalues --  -10.20423 -10.20384 -10.20160 -10.19721 -10.19702
 Alpha  occ. eigenvalues --  -10.19415 -10.19316 -10.19281 -10.19042 -10.18670
 Alpha  occ. eigenvalues --  -10.18476 -10.18271 -10.18042  -1.13555  -1.07811
 Alpha  occ. eigenvalues --   -1.06365  -1.04369  -1.02018  -1.00537  -0.99398
 Alpha  occ. eigenvalues --   -0.97033  -0.94980  -0.92282  -0.84213  -0.81926
 Alpha  occ. eigenvalues --   -0.81460  -0.80832  -0.79833  -0.79166  -0.77634
 Alpha  occ. eigenvalues --   -0.76591  -0.75825  -0.74678  -0.73151  -0.72153
 Alpha  occ. eigenvalues --   -0.71666  -0.70701  -0.69869  -0.69571  -0.68765
 Alpha  occ. eigenvalues --   -0.66772  -0.66103  -0.64037  -0.61189  -0.60402
 Alpha  occ. eigenvalues --   -0.59596  -0.58532  -0.58305  -0.58026  -0.57887
 Alpha  occ. eigenvalues --   -0.56871  -0.56432  -0.54723  -0.53984  -0.52920
 Alpha  occ. eigenvalues --   -0.52479  -0.51738  -0.51215  -0.50976  -0.50406
 Alpha  occ. eigenvalues --   -0.50021  -0.49009  -0.48387  -0.47720  -0.47618
 Alpha  occ. eigenvalues --   -0.47252  -0.46834  -0.46606  -0.46149  -0.45831
 Alpha  occ. eigenvalues --   -0.45594  -0.44873  -0.44293  -0.44123  -0.43747
 Alpha  occ. eigenvalues --   -0.43397  -0.43058  -0.42970  -0.42602  -0.42282
 Alpha  occ. eigenvalues --   -0.41929  -0.41733  -0.41508  -0.41320  -0.40494
 Alpha  occ. eigenvalues --   -0.40410  -0.40236  -0.40033  -0.39645  -0.39607
 Alpha  occ. eigenvalues --   -0.39154  -0.39055  -0.38662  -0.38505  -0.38229
 Alpha  occ. eigenvalues --   -0.38093  -0.37915  -0.37782  -0.37674  -0.37022
 Alpha  occ. eigenvalues --   -0.36874  -0.36784  -0.35801  -0.34998  -0.34579
 Alpha  occ. eigenvalues --   -0.34328  -0.34038  -0.33407  -0.31563  -0.31043
 Alpha  occ. eigenvalues --   -0.30674  -0.30510  -0.29190  -0.28590  -0.28035
 Alpha  occ. eigenvalues --   -0.27034  -0.26467  -0.25796  -0.25544  -0.24373
 Alpha  occ. eigenvalues --   -0.24216  -0.23549  -0.23262  -0.21783  -0.18998
 Alpha virt. eigenvalues --   -0.10011  -0.05980  -0.05605  -0.00887   0.00026
 Alpha virt. eigenvalues --    0.00236   0.00419   0.01290   0.02571   0.03664
 Alpha virt. eigenvalues --    0.04054   0.04380   0.04599   0.04990   0.05383

 Mulliken charges:
               1
     1  O   -0.229468
     2  O   -0.195394
     3  O   -0.290287
     4  O   -0.116819
     5  O   -0.196922
     6  O   -0.114521
     7  N   -0.020910
     8  N   -0.168588
     9  N    0.009962
    10  N   -0.311118
    11  C    0.094465
    12  C    0.178574
    13  C   -0.085618
    14  C   -0.127864
    15  C   -0.133982
    16  C    0.078600
    17  C   -0.210184
    18  C    0.027292
    19  C   -0.009566
    20  C   -0.058380
    21  C    0.023420
    22  C    0.134170
    23  C   -0.068311
    24  C    0.072154
    25  C   -0.028836
    26  C   -0.152100
    27  C    0.029605
    28  C    0.113837
    29  C    0.249395
    30  C   -0.038000
    31  C   -0.130951
    32  C    0.181357
    33  C   -0.126626
    34  C    0.160915
    35  C    0.082548
    36  C   -0.028094
    37  C    0.118027
    38  C    0.100766
    39  C   -0.223380
    40  C    0.135544
    41  C   -0.089864
    42  C   -0.053444
    43  C   -0.037362
    44  H    0.017477
    45  H    0.000693
    46  H    0.014933
    47  H    0.143244
    48  H    0.098127
    49  H    0.022284
    50  H    0.018771
    51  H   -0.026871
    52  H    0.002872
    53  H    0.020411
    54  H    0.045265
    55  H    0.016782
    56  H    0.077472
    57  H    0.050114
    58  H    0.079963
    59  H    0.010357
    60  H    0.133883
    61  H   -0.057954
    62  H   -0.032532
    63  H    0.031630
    64  H    0.036466
    65  H    0.076409
    66  H   -0.000134
    67  H    0.007303
    68  H    0.001042
    69  H   -0.028151
    70  H    0.031221
    71  H    0.022240
    72  H    0.211653
    73  H    0.017460
    74  H    0.070769
    75  H    0.069945
    76  H    0.055895
    77  H    0.156885
    78  H    0.032965
    79  H    0.027067
 Sum of Mulliken charges =   0.00000

 Dipole moment (field-independent basis, Debye):
    X=              0.7228    Y=              2.0829    Z=              3.3171  Tot=              3.9829
 Quadrupole moment (field-independent basis, Debye-Ang):
   XX=           -230.7992   YY=           -234.5582   ZZ=           -263.5681
   XY=            -11.6661   XZ=             30.7987   YZ=              1.8000

 Normal termination of Gaussian 09 at Tue Jul  9 15:57:53 2019.
