 Gaussian 09, Revision D.01,
 Gaussian 09:  ES64L-G09RevD.01 24-Apr-2013

 --------------------------
 # td=(NStates=1) B3LYP/SVP
 --------------------------

 --
 TD
 --
 Symbolic Z-matrix:
 Charge =  0 Multiplicity = 1

                         Standard orientation:
 ---------------------------------------------------------------------
 Center     Atomic      Atomic             Coordinates (Angstroms)
 Number     Number       Type             X           Y           Z
 ---------------------------------------------------------------------
      1          8           0        5.322048   -0.151394   -3.374094
      2          8           0       -2.997874   -2.990923    3.029917
      3          8           0       -3.142059   -0.809687    3.495915
      4          8           0       -1.369956    7.206601    1.621332
      5          8           0       -0.558833    7.019558   -0.496298
      6          8           0       -2.155440   -3.926696    0.026781
      7          7           0        2.346048    0.729917    0.548318
      8          7           0        4.538447   -0.755178   -1.249208
      9          7           0       -1.803196    0.618600   -0.373835
     10          7           0       -2.875202   -1.796438   -0.421736
     11          6           0        4.880631   -1.328461   -0.052180
     12          6           0        4.536325   -0.522552    1.154906
     13          6           0        3.035946   -0.182952    1.422870
     14          6           0        1.959155   -0.809444    2.151211
     15          6           0        0.699050   -0.214336    1.778601
     16          6           0        1.049734    0.796437    0.771819
     17          6           0        6.342386   -1.367287   -0.247577
     18          6           0       -0.554685   -0.319476    2.534801
     19          6           0        6.662204   -0.950768   -1.421065
     20          6           0        0.315342    1.819708    0.130883
     21          6           0       -1.033973    1.810613   -0.271274
     22          6           0        5.437588   -0.567603   -2.213699
     23          6           0       -1.854483    2.955956   -0.771948
     24          6           0        2.224079   -1.789535    3.172654
     25          6           0        7.282445   -1.974001    0.846073
     26          6           0       -3.103993    2.486672   -1.115493
     27          6           0       -1.105331   -1.707593    2.342323
     28          6           0       -3.046837    1.078001   -0.970984
     29          6           0       -1.310273    4.299795   -0.814293
     30          6           0        7.988300   -0.810294   -2.051214
     31          6           0       -1.613266    5.085983    0.425340
     32          6           0       -4.139948    3.311286   -1.871015
     33          6           0       -4.042911    0.123530   -1.262526
     34          6           0       -2.483863   -1.783185    2.953291
     35          6           0       -3.907547   -1.312661   -1.063997
     36          6           0        9.156625   -0.845655   -1.428728
     37          6           0       -1.097602    6.539093    0.401426
     38          6           0       -4.890047   -2.443411   -1.512676
     39          6           0       -4.204064   -3.556355   -1.232355
     40          6           0       -2.997564   -3.211694   -0.483466
     41          6           0       -6.103437   -2.238331   -2.207392
     42          6           0       -4.603277   -5.000016   -1.296996
     43          6           0       -7.039355   -3.175147   -2.522346
     44          1           0        4.348388   -2.241618   -0.089103
     45          1           0        4.742400    0.537660    0.917195
     46          1           0        4.921940   -0.640952    2.190910
     47          1           0        3.043559    1.330563   -0.153974
     48          1           0        3.551657   -0.882483   -1.621219
     49          1           0       -0.001474   -0.163890    3.639783
     50          1           0       -1.246152    0.338403    2.271242
     51          1           0        0.905697    2.844779   -0.258128
     52          1           0        3.284428   -1.849879    3.573868
     53          1           0        1.713494   -1.490774    3.941020
     54          1           0        1.714832   -2.807354    2.827141
     55          1           0        6.705353   -2.617017    1.507723
     56          1           0        7.753235   -1.122323    1.342218
     57          1           0        8.321488   -2.332213    0.297456
     58          1           0       -1.140487   -2.347342    1.414799
     59          1           0       -0.495226   -2.497255    2.939818
     60          1           0       -1.493038   -0.381499   -0.292059
     61          1           0       -1.627149    4.907433   -1.738756
     62          1           0       -0.207578    4.370352   -0.894361
     63          1           0        7.856327   -0.554593   -3.060040
     64          1           0       -1.436868    4.454015    1.267825
     65          1           0       -2.753705    4.957889    0.498529
     66          1           0       -3.625019    4.449734   -2.030061
     67          1           0       -5.033622    3.407049   -1.127866
     68          1           0       -4.359424    2.852290   -2.811498
     69          1           0       -5.023915    0.499879   -1.859230
     70          1           0        9.357202   -0.847223   -0.376355
     71          1           0        9.972724   -0.635887   -2.067805
     72          1           0       -3.960986   -2.799770    3.539646
     73          1           0       -6.423999   -1.083734   -2.123930
     74          1           0       -4.734626   -5.390533   -2.408235
     75          1           0       -3.930142   -5.567340   -0.613575
     76          1           0       -5.478143   -5.334361   -0.596680
     77          1           0       -0.978990    8.135815    1.551539
     78          1           0       -7.934463   -2.735886   -2.919815
     79          1           0       -7.157593   -4.297807   -2.281057
 ---------------------------------------------------------------------

 SCF Done:  E(RB3LYP) =  -1947.80376319     A.U. after   17 cycles

 Excitation energies and oscillator strengths:

 Excited State   1:      Singlet-A      1.9315 eV  641.92 nm  f=0.4561  <S**2>=0.000
     155 ->156         0.70520
     155 <-156        -0.12553
 This state for optimization and/or second-order correction.
 Total Energy, E(TD-HF/TD-KS) =  -1947.73278294
 Copying the excited state density for this state as the 1-particle RhoCI density.

 The electronic state is 1-A.
 Alpha  occ. eigenvalues --  -19.17931 -19.17605 -19.15017 -19.10802 -19.10767
 Alpha  occ. eigenvalues --  -19.09646 -14.39023 -14.36451 -14.36389 -14.28871
 Alpha  occ. eigenvalues --  -10.33278 -10.30108 -10.28903 -10.26299 -10.25005
 Alpha  occ. eigenvalues --  -10.24749 -10.24483 -10.23545 -10.23332 -10.23177
 Alpha  occ. eigenvalues --  -10.22810 -10.22628 -10.22436 -10.22014 -10.21639
 Alpha  occ. eigenvalues --  -10.21410 -10.21317 -10.21167 -10.21135 -10.20888
 Alpha  occ. eigenvalues --  -10.20636 -10.20203 -10.20199 -10.19810 -10.19703
 Alpha  occ. eigenvalues --  -10.19603 -10.19576 -10.19418 -10.19346 -10.19142
 Alpha  occ. eigenvalues --  -10.19127 -10.19046 -10.19012  -1.11008  -1.07071
 Alpha  occ. eigenvalues --   -1.03393  -1.01937  -1.01530  -0.97891  -0.97303
 Alpha  occ. eigenvalues --   -0.95420  -0.94135  -0.92091  -0.83598  -0.82871
 Alpha  occ. eigenvalues --   -0.81982  -0.81689  -0.80999  -0.80050  -0.78133
 Alpha  occ. eigenvalues --   -0.77191  -0.76302  -0.75685  -0.74245  -0.72079
 Alpha  occ. eigenvalues --   -0.71477  -0.71047  -0.69996  -0.69001  -0.68059
 Alpha  occ. eigenvalues --   -0.66780  -0.65867  -0.63932  -0.62440  -0.60671
 Alpha  occ. eigenvalues --   -0.59167  -0.58832  -0.58038  -0.56895  -0.56422
 Alpha  occ. eigenvalues --   -0.55839  -0.55206  -0.54900  -0.54503  -0.53262
 Alpha  occ. eigenvalues --   -0.52693  -0.52239  -0.51526  -0.50666  -0.50415
 Alpha  occ. eigenvalues --   -0.49246  -0.49112  -0.48348  -0.47856  -0.47412
 Alpha  occ. eigenvalues --   -0.46774  -0.46385  -0.46297  -0.45916  -0.45790
 Alpha  occ. eigenvalues --   -0.45112  -0.44730  -0.44590  -0.44219  -0.43970
 Alpha  occ. eigenvalues --   -0.43314  -0.43123  -0.42768  -0.42685  -0.42458
 Alpha  occ. eigenvalues --   -0.42168  -0.41841  -0.41457  -0.41207  -0.40993
 Alpha  occ. eigenvalues --   -0.40949  -0.40510  -0.40228  -0.39931  -0.39740
 Alpha  occ. eigenvalues --   -0.39228  -0.39186  -0.38875  -0.38713  -0.38418
 Alpha  occ. eigenvalues --   -0.38187  -0.37670  -0.37167  -0.36927  -0.36430
 Alpha  occ. eigenvalues --   -0.36059  -0.35995  -0.35181  -0.34322  -0.33926
 Alpha  occ. eigenvalues --   -0.33869  -0.33288  -0.33078  -0.32048  -0.31784
 Alpha  occ. eigenvalues --   -0.31261  -0.30442  -0.28758  -0.28465  -0.27547
 Alpha  occ. eigenvalues --   -0.27460  -0.26181  -0.26108  -0.25363  -0.25281
 Alpha  occ. eigenvalues --   -0.24447  -0.24066  -0.23552  -0.22647  -0.18256
 Alpha virt. eigenvalues --   -0.10809  -0.07011  -0.05016  -0.01335  -0.00455
 Alpha virt. eigenvalues --    0.00476   0.00757   0.00932   0.02016   0.02367
 Alpha virt. eigenvalues --    0.02950   0.03400   0.04121   0.04240   0.04612

 Mulliken charges:
               1
     1  O   -0.239982
     2  O   -0.206931
     3  O   -0.338410
     4  O   -0.260260
     5  O   -0.143692
     6  O   -0.198422
     7  N   -0.146177
     8  N   -0.173759
     9  N   -0.164192
    10  N   -0.265181
    11  C    0.222074
    12  C    0.159362
    13  C   -0.128279
    14  C   -0.174214
    15  C   -0.112404
    16  C    0.093048
    17  C   -0.241699
    18  C    0.195575
    19  C   -0.057481
    20  C   -0.145861
    21  C    0.077378
    22  C    0.134307
    23  C   -0.057020
    24  C    0.159800
    25  C    0.074169
    26  C   -0.117453
    27  C   -0.041412
    28  C    0.136875
    29  C    0.044343
    30  C    0.031643
    31  C   -0.016497
    32  C    0.035403
    33  C   -0.140797
    34  C    0.154615
    35  C    0.040408
    36  C    0.005709
    37  C    0.187166
    38  C    0.068683
    39  C   -0.184359
    40  C    0.155154
    41  C   -0.061816
    42  C    0.020325
    43  C   -0.038975
    44  H    0.002942
    45  H   -0.013166
    46  H    0.025547
    47  H    0.175256
    48  H    0.134515
    49  H    0.051420
    50  H   -0.029401
    51  H    0.030676
    52  H    0.008301
    53  H   -0.051256
    54  H    0.049843
    55  H    0.030512
    56  H    0.028875
    57  H    0.053672
    58  H    0.070047
    59  H    0.026431
    60  H    0.174159
    61  H    0.029137
    62  H    0.002771
    63  H   -0.012593
    64  H    0.018693
    65  H    0.031828
    66  H    0.046929
    67  H    0.053448
    68  H    0.045283
    69  H    0.006844
    70  H    0.010465
    71  H    0.013437
    72  H    0.231944
    73  H    0.035551
    74  H    0.056068
    75  H    0.020696
    76  H    0.027688
    77  H    0.196043
    78  H    0.018260
    79  H    0.058378
 Sum of Mulliken charges =   0.00000

 Dipole moment (field-independent basis, Debye):
    X=              1.2542    Y=              1.7365    Z=              2.1501  Tot=              3.0350
 Quadrupole moment (field-independent basis, Debye-Ang):
   XX=           -218.9953   YY=           -243.0995   ZZ=           -270.0212
   XY=             -2.8057   XZ=             35.9490   YZ=             -0.1066

 Normal termination of Gaussian 09 at Mon Jul  8 14:21:14 2019.
