 Gaussian 09, Revision D.01,
 Gaussian 09:  ES64L-G09RevD.01 24-Apr-2013

 --------------------------
 # td=(NStates=1) B3LYP/SVP
 --------------------------

 --
 TD
 --
 Symbolic Z-matrix:
 Charge =  0 Multiplicity = 1

                         Standard orientation:
 ---------------------------------------------------------------------
 Center     Atomic      Atomic             Coordinates (Angstroms)
 Number     Number       Type             X           Y           Z
 ---------------------------------------------------------------------
      1          8           0        5.280597    0.130343   -3.195102
      2          8           0       -3.055326   -3.093470    3.155608
      3          8           0       -3.305936   -0.880378    3.304022
      4          8           0       -1.686056    7.297584    1.384207
      5          8           0       -0.517719    7.077956   -0.483880
      6          8           0       -1.979989   -4.051947   -0.046837
      7          7           0        2.340716    0.865346    0.631239
      8          7           0        4.346069   -0.574745   -1.229303
      9          7           0       -1.708382    0.664844   -0.401344
     10          7           0       -2.560433   -1.878199   -0.671278
     11          6           0        4.789944   -1.193605    0.039287
     12          6           0        4.438298   -0.541672    1.366297
     13          6           0        2.918383   -0.055657    1.425981
     14          6           0        1.966243   -0.708541    2.185704
     15          6           0        0.713279   -0.054829    1.819302
     16          6           0        0.995490    0.976427    0.806277
     17          6           0        6.258445   -1.432745   -0.194612
     18          6           0       -0.658849   -0.208069    2.548190
     19          6           0        6.597485   -0.859138   -1.475996
     20          6           0        0.261263    1.949372    0.259376
     21          6           0       -1.074403    1.843563   -0.096492
     22          6           0        5.360508   -0.455770   -2.055489
     23          6           0       -1.786802    2.907219   -0.761398
     24          6           0        2.234333   -1.828431    3.338427
     25          6           0        7.205514   -2.008060    0.842441
     26          6           0       -2.979571    2.329202   -1.263364
     27          6           0       -1.252531   -1.741879    2.584532
     28          6           0       -2.963073    0.947987   -0.947043
     29          6           0       -1.406489    4.345567   -0.966329
     30          6           0        7.879522   -0.886231   -2.145667
     31          6           0       -1.711800    5.146407    0.435390
     32          6           0       -4.147563    3.246014   -1.793661
     33          6           0       -3.926007   -0.065645   -1.293284
     34          6           0       -2.628205   -1.790531    3.025701
     35          6           0       -3.734051   -1.436789   -1.169562
     36          6           0        9.137674   -0.874999   -1.681639
     37          6           0       -1.244244    6.654960    0.335947
     38          6           0       -4.591220   -2.511107   -1.568265
     39          6           0       -4.009509   -3.675894   -1.231639
     40          6           0       -2.744421   -3.211728   -0.555927
     41          6           0       -5.962832   -2.429723   -2.019802
     42          6           0       -4.431030   -5.104582   -1.339636
     43          6           0       -6.763063   -3.299567   -2.721374
     44          1           0        4.437161   -2.206852   -0.044983
     45          1           0        5.136810    0.357032    1.502446
     46          1           0        4.633124   -1.013724    2.410875
     47          1           0        2.969609    1.382710   -0.013520
     48          1           0        3.311591   -0.686163   -1.531656
     49          1           0       -0.429961    0.010370    3.756826
     50          1           0       -1.437526    0.447233    2.132320
     51          1           0        0.747873    2.808743    0.104505
     52          1           0        3.408252   -1.599717    3.751768
     53          1           0        1.439702   -1.670357    4.175438
     54          1           0        2.245875   -2.881282    2.684585
     55          1           0        6.651946   -2.904267    1.405971
     56          1           0        7.399147   -1.119972    1.513034
     57          1           0        8.102130   -2.566334    0.508334
     58          1           0       -1.233185   -2.264652    1.471256
     59          1           0       -0.647787   -2.338000    3.372280
     60          1           0       -1.354714   -0.236546   -0.274748
     61          1           0       -1.710558    4.768480   -1.780264
     62          1           0       -0.325585    4.405924   -1.043455
     63          1           0        7.617263   -0.863996   -3.153906
     64          1           0       -1.275815    4.654031    1.140681
     65          1           0       -2.812217    5.211784    0.568361
     66          1           0       -3.994839    4.254285   -1.926871
     67          1           0       -5.121835    2.964915   -1.420937
     68          1           0       -4.365330    3.050072   -2.998165
     69          1           0       -4.932867    0.418027   -1.610980
     70          1           0        9.463190   -0.768133   -0.605502
     71          1           0        9.854999   -0.914523   -2.530228
     72          1           0       -3.988753   -2.979130    3.139082
     73          1           0       -6.446483   -1.429515   -1.771425
     74          1           0       -4.018631   -5.663203   -2.259901
     75          1           0       -3.974489   -5.507876   -0.290014
     76          1           0       -5.612878   -5.126340   -1.345264
     77          1           0       -1.017217    8.102124    1.546334
     78          1           0       -7.621789   -3.034797   -2.979224
     79          1           0       -6.350888   -4.270937   -3.242426
 ---------------------------------------------------------------------

 SCF Done:  E(RB3LYP) =  -1947.80650303     A.U. after   20 cycles

 Excitation energies and oscillator strengths:

 Excited State   1:      Singlet-A      2.0069 eV  617.79 nm  f=0.2782  <S**2>=0.000
     153 ->156        -0.14080
     154 ->156        -0.36799
     155 ->156         0.58744
     155 <-156        -0.11431
 This state for optimization and/or second-order correction.
 Total Energy, E(TD-HF/TD-KS) =  -1947.73275027
 Copying the excited state density for this state as the 1-particle RhoCI density.

 The electronic state is 1-A.
 Alpha  occ. eigenvalues --  -19.20136 -19.15214 -19.13791 -19.11474 -19.08583
 Alpha  occ. eigenvalues --  -19.08344 -14.40008 -14.37444 -14.36786 -14.28068
 Alpha  occ. eigenvalues --  -10.32729 -10.29696 -10.27898 -10.26305 -10.25188
 Alpha  occ. eigenvalues --  -10.24893 -10.24861 -10.24739 -10.24630 -10.24376
 Alpha  occ. eigenvalues --  -10.23917 -10.23865 -10.23259 -10.22531 -10.21786
 Alpha  occ. eigenvalues --  -10.21738 -10.21555 -10.21432 -10.21324 -10.21127
 Alpha  occ. eigenvalues --  -10.21037 -10.20940 -10.20801 -10.20414 -10.20366
 Alpha  occ. eigenvalues --  -10.20191 -10.20037 -10.19926 -10.19732 -10.19710
 Alpha  occ. eigenvalues --  -10.18526 -10.18409 -10.18084  -1.12141  -1.09019
 Alpha  occ. eigenvalues --   -1.03102  -1.01288  -1.00674  -1.00285  -0.99294
 Alpha  occ. eigenvalues --   -0.98563  -0.93370  -0.92173  -0.83578  -0.82581
 Alpha  occ. eigenvalues --   -0.82400  -0.80595  -0.80015  -0.79587  -0.78034
 Alpha  occ. eigenvalues --   -0.76847  -0.75914  -0.75413  -0.73874  -0.72616
 Alpha  occ. eigenvalues --   -0.72147  -0.70760  -0.69890  -0.69250  -0.68545
 Alpha  occ. eigenvalues --   -0.67206  -0.67083  -0.64295  -0.62607  -0.61314
 Alpha  occ. eigenvalues --   -0.60731  -0.59239  -0.58054  -0.57717  -0.57585
 Alpha  occ. eigenvalues --   -0.57305  -0.56040  -0.54875  -0.54347  -0.53241
 Alpha  occ. eigenvalues --   -0.52726  -0.51830  -0.51590  -0.50911  -0.50128
 Alpha  occ. eigenvalues --   -0.50059  -0.49215  -0.49024  -0.48832  -0.48359
 Alpha  occ. eigenvalues --   -0.47566  -0.47046  -0.46779  -0.46373  -0.46040
 Alpha  occ. eigenvalues --   -0.45432  -0.44901  -0.44636  -0.44405  -0.44041
 Alpha  occ. eigenvalues --   -0.43846  -0.43644  -0.43085  -0.42898  -0.42665
 Alpha  occ. eigenvalues --   -0.42356  -0.41749  -0.41392  -0.41355  -0.41166
 Alpha  occ. eigenvalues --   -0.40676  -0.40366  -0.40124  -0.39731  -0.39373
 Alpha  occ. eigenvalues --   -0.39043  -0.38699  -0.38602  -0.38225  -0.38117
 Alpha  occ. eigenvalues --   -0.37802  -0.37357  -0.37227  -0.37067  -0.36857
 Alpha  occ. eigenvalues --   -0.36518  -0.36180  -0.35667  -0.34637  -0.34147
 Alpha  occ. eigenvalues --   -0.34030  -0.33774  -0.33086  -0.32921  -0.31488
 Alpha  occ. eigenvalues --   -0.31215  -0.31017  -0.29337  -0.28499  -0.27348
 Alpha  occ. eigenvalues --   -0.26996  -0.26570  -0.25547  -0.25377  -0.24422
 Alpha  occ. eigenvalues --   -0.24159  -0.23812  -0.22831  -0.21634  -0.18982
 Alpha virt. eigenvalues --   -0.11332  -0.06830  -0.06030  -0.00740  -0.00390
 Alpha virt. eigenvalues --   -0.00149   0.00779   0.01052   0.02015   0.02464
 Alpha virt. eigenvalues --    0.02721   0.03417   0.04026   0.04211   0.04533

 Mulliken charges:
               1
     1  O   -0.307964
     2  O   -0.190466
     3  O   -0.186868
     4  O   -0.192137
     5  O   -0.186301
     6  O   -0.250474
     7  N   -0.041509
     8  N   -0.175115
     9  N   -0.056641
    10  N   -0.251254
    11  C    0.169776
    12  C    0.152453
    13  C   -0.131823
    14  C   -0.106038
    15  C   -0.094727
    16  C    0.127048
    17  C   -0.230972
    18  C    0.015967
    19  C   -0.047198
    20  C   -0.089040
    21  C    0.108437
    22  C    0.120742
    23  C   -0.126082
    24  C   -0.029987
    25  C    0.037730
    26  C   -0.097061
    27  C   -0.083597
    28  C    0.083098
    29  C    0.190336
    30  C    0.016231
    31  C    0.026346
    32  C    0.089183
    33  C   -0.132089
    34  C    0.109829
    35  C    0.124213
    36  C   -0.028745
    37  C    0.113391
    38  C    0.059655
    39  C   -0.160324
    40  C    0.107504
    41  C   -0.082866
    42  C   -0.004237
    43  C    0.032096
    44  H    0.016834
    45  H    0.006137
    46  H    0.022814
    47  H    0.133893
    48  H    0.173840
    49  H    0.034027
    50  H    0.033824
    51  H   -0.058650
    52  H    0.045500
    53  H    0.068866
    54  H    0.083200
    55  H    0.032926
    56  H    0.059513
    57  H    0.050989
    58  H    0.124944
    59  H    0.045065
    60  H    0.116858
    61  H   -0.043154
    62  H   -0.002698
    63  H   -0.008772
    64  H   -0.014636
    65  H    0.042897
    66  H   -0.000027
    67  H    0.029830
    68  H    0.013833
    69  H   -0.003735
    70  H    0.034277
    71  H    0.038249
    72  H    0.151261
    73  H    0.001463
    74  H    0.058969
    75  H    0.064035
    76  H    0.039498
    77  H    0.219983
    78  H   -0.051865
    79  H    0.039490
 Sum of Mulliken charges =   0.00000

 Dipole moment (field-independent basis, Debye):
    X=              3.1573    Y=              3.8370    Z=              4.3286  Tot=              6.5900
 Quadrupole moment (field-independent basis, Debye-Ang):
   XX=           -226.5045   YY=           -247.0704   ZZ=           -267.2374
   XY=            -20.2120   XZ=             38.5518   YZ=             11.2947

 Normal termination of Gaussian 09 at Mon Jul  8 06:17:41 2019.
