 Gaussian 09, Revision D.01,
 Gaussian 09:  ES64L-G09RevD.01 24-Apr-2013

 --------------------------
 # td=(NStates=1) B3LYP/SVP
 --------------------------

 --
 TD
 --
 Symbolic Z-matrix:
 Charge =  0 Multiplicity = 1

                         Standard orientation:
 ---------------------------------------------------------------------
 Center     Atomic      Atomic             Coordinates (Angstroms)
 Number     Number       Type             X           Y           Z
 ---------------------------------------------------------------------
      1          8           0        5.271207   -0.284779   -3.252265
      2          8           0       -2.802269   -3.314858    3.117801
      3          8           0       -3.331288   -1.116572    3.413958
      4          8           0       -1.299888    7.311102    1.474593
      5          8           0       -0.067703    6.865008   -0.334712
      6          8           0       -1.951449   -4.033067   -0.286519
      7          7           0        2.373939    0.841897    0.573927
      8          7           0        4.276538   -0.881665   -1.272218
      9          7           0       -1.902831    0.816053   -0.418794
     10          7           0       -2.701890   -1.895094   -0.722227
     11          6           0        4.890248   -1.403025   -0.014482
     12          6           0        4.426768   -0.448325    1.170215
     13          6           0        2.916417   -0.143114    1.255096
     14          6           0        1.959940   -0.761160    2.053152
     15          6           0        0.727299   -0.163524    1.762755
     16          6           0        0.969504    0.849470    0.837799
     17          6           0        6.421687   -1.326494   -0.151117
     18          6           0       -0.631503   -0.279183    2.428233
     19          6           0        6.686581   -0.987943   -1.399067
     20          6           0        0.182616    1.932593    0.234243
     21          6           0       -1.087207    1.891461   -0.235627
     22          6           0        5.347525   -0.611360   -2.047809
     23          6           0       -1.846231    3.053005   -0.768150
     24          6           0        2.107037   -1.794383    3.156834
     25          6           0        7.200590   -1.891542    0.969539
     26          6           0       -3.122702    2.547385   -1.160081
     27          6           0       -1.111495   -1.727410    2.476483
     28          6           0       -3.116095    1.049053   -0.936959
     29          6           0       -1.359374    4.454667   -0.863025
     30          6           0        7.939828   -0.829183   -2.119191
     31          6           0       -1.578447    5.224526    0.389047
     32          6           0       -4.344818    3.318399   -1.622158
     33          6           0       -4.022295    0.052611   -1.214885
     34          6           0       -2.479983   -1.975671    3.054652
     35          6           0       -3.756394   -1.356697   -1.129925
     36          6           0        9.153196   -0.788709   -1.630077
     37          6           0       -0.893117    6.553095    0.416862
     38          6           0       -4.766451   -2.325861   -1.556091
     39          6           0       -4.203428   -3.585320   -1.293306
     40          6           0       -2.809869   -3.247673   -0.698283
     41          6           0       -6.109292   -2.067502   -1.960453
     42          6           0       -4.633759   -4.982859   -1.248452
     43          6           0       -6.986813   -2.899956   -2.489781
     44          1           0        4.455845   -2.283914    0.314423
     45          1           0        5.061370    0.437436    1.183936
     46          1           0        4.612613   -0.986197    2.081541
     47          1           0        2.757554    1.468743   -0.181337
     48          1           0        3.275460   -1.136213   -1.520241
     49          1           0       -0.568776   -0.082573    3.526577
     50          1           0       -1.340433    0.379351    1.996179
     51          1           0        0.500360    2.838863    0.174036
     52          1           0        3.118672   -1.581185    3.748940
     53          1           0        1.062024   -1.622291    3.826120
     54          1           0        2.159715   -2.817778    2.718138
     55          1           0        6.740906   -2.595295    1.679825
     56          1           0        7.642806   -0.955566    1.546364
     57          1           0        8.056336   -2.489839    0.429864
     58          1           0       -1.143107   -2.218047    1.492563
     59          1           0       -0.363561   -2.356391    2.963691
     60          1           0       -1.715488   -0.169059   -0.064582
     61          1           0       -1.807806    5.093082   -1.654165
     62          1           0       -0.330257    4.602389   -1.033023
     63          1           0        7.640571   -0.719858   -3.200722
     64          1           0       -1.164149    4.471112    1.308267
     65          1           0       -2.580105    5.283298    0.510092
     66          1           0       -4.216255    4.480299   -1.417289
     67          1           0       -5.352264    2.838839   -1.038896
     68          1           0       -4.525108    3.192246   -2.810475
     69          1           0       -4.931580    0.407047   -1.788450
     70          1           0        9.563078   -0.942631   -0.593076
     71          1           0        9.929367   -0.855371   -2.328049
     72          1           0       -3.719479   -3.319518    3.592343
     73          1           0       -6.514363   -1.038149   -1.677292
     74          1           0       -4.813154   -5.412313   -2.068905
     75          1           0       -3.928728   -5.706221   -0.836340
     76          1           0       -5.558999   -5.374881   -0.981745
     77          1           0       -0.667954    8.031105    1.423319
     78          1           0       -7.972766   -2.607557   -2.928195
     79          1           0       -6.651285   -3.812179   -2.577060
 ---------------------------------------------------------------------

 SCF Done:  E(RB3LYP) =  -1947.86440174     A.U. after   16 cycles

 Excitation energies and oscillator strengths:

 Excited State   1:      Singlet-A      2.1665 eV  572.28 nm  f=0.4251  <S**2>=0.000
     154 ->156         0.12998
     155 ->156         0.69007
 This state for optimization and/or second-order correction.
 Total Energy, E(TD-HF/TD-KS) =  -1947.78478422
 Copying the excited state density for this state as the 1-particle RhoCI density.

 The electronic state is 1-A.
 Alpha  occ. eigenvalues --  -19.18898 -19.17244 -19.14627 -19.11528 -19.10914
 Alpha  occ. eigenvalues --  -19.08949 -14.38755 -14.36969 -14.36402 -14.28650
 Alpha  occ. eigenvalues --  -10.32807 -10.31387 -10.28475 -10.26819 -10.25143
 Alpha  occ. eigenvalues --  -10.24469 -10.24356 -10.23651 -10.23323 -10.23065
 Alpha  occ. eigenvalues --  -10.22722 -10.22643 -10.22294 -10.22255 -10.22129
 Alpha  occ. eigenvalues --  -10.22119 -10.21292 -10.21213 -10.20640 -10.20438
 Alpha  occ. eigenvalues --  -10.20428 -10.20321 -10.20031 -10.19738 -10.19643
 Alpha  occ. eigenvalues --  -10.19544 -10.19344 -10.19253 -10.19244 -10.19218
 Alpha  occ. eigenvalues --  -10.18837 -10.17775 -10.16675  -1.12526  -1.06291
 Alpha  occ. eigenvalues --   -1.03859  -1.01322  -1.00942  -0.99258  -0.98896
 Alpha  occ. eigenvalues --   -0.96702  -0.94515  -0.93177  -0.83880  -0.83299
 Alpha  occ. eigenvalues --   -0.82316  -0.81454  -0.81033  -0.79177  -0.78260
 Alpha  occ. eigenvalues --   -0.77589  -0.77075  -0.76411  -0.75385  -0.72609
 Alpha  occ. eigenvalues --   -0.71827  -0.71352  -0.70587  -0.68799  -0.67836
 Alpha  occ. eigenvalues --   -0.67398  -0.66757  -0.64103  -0.62176  -0.61253
 Alpha  occ. eigenvalues --   -0.60165  -0.59467  -0.58700  -0.57817  -0.57089
 Alpha  occ. eigenvalues --   -0.56954  -0.55760  -0.54978  -0.54492  -0.53787
 Alpha  occ. eigenvalues --   -0.53272  -0.52549  -0.51471  -0.51016  -0.50620
 Alpha  occ. eigenvalues --   -0.50100  -0.49657  -0.49364  -0.48961  -0.48031
 Alpha  occ. eigenvalues --   -0.47320  -0.47100  -0.46311  -0.46191  -0.45530
 Alpha  occ. eigenvalues --   -0.45261  -0.45229  -0.44880  -0.44624  -0.44320
 Alpha  occ. eigenvalues --   -0.43867  -0.43676  -0.43366  -0.42676  -0.42586
 Alpha  occ. eigenvalues --   -0.42534  -0.42188  -0.41763  -0.41054  -0.41033
 Alpha  occ. eigenvalues --   -0.40740  -0.40201  -0.40186  -0.39998  -0.39520
 Alpha  occ. eigenvalues --   -0.39443  -0.39113  -0.38924  -0.38750  -0.38383
 Alpha  occ. eigenvalues --   -0.38248  -0.38064  -0.37724  -0.37454  -0.36875
 Alpha  occ. eigenvalues --   -0.36798  -0.36607  -0.35590  -0.35468  -0.34995
 Alpha  occ. eigenvalues --   -0.34372  -0.34036  -0.33687  -0.33396  -0.32276
 Alpha  occ. eigenvalues --   -0.31280  -0.30405  -0.30291  -0.29324  -0.27149
 Alpha  occ. eigenvalues --   -0.26748  -0.26321  -0.25736  -0.25366  -0.25024
 Alpha  occ. eigenvalues --   -0.24492  -0.24233  -0.23609  -0.22058  -0.19348
 Alpha virt. eigenvalues --   -0.10776  -0.06439  -0.05278  -0.01012  -0.00264
 Alpha virt. eigenvalues --    0.00214   0.00685   0.01272   0.02479   0.02790
 Alpha virt. eigenvalues --    0.03732   0.04401   0.04596   0.04868   0.05331

 Mulliken charges:
               1
     1  O   -0.268228
     2  O   -0.224834
     3  O   -0.283999
     4  O   -0.176372
     5  O   -0.169364
     6  O   -0.206376
     7  N   -0.063174
     8  N   -0.178079
     9  N   -0.072465
    10  N   -0.150009
    11  C    0.050114
    12  C    0.200340
    13  C   -0.118623
    14  C   -0.129582
    15  C   -0.063100
    16  C    0.067647
    17  C   -0.115416
    18  C    0.133099
    19  C   -0.053261
    20  C    0.011027
    21  C    0.043555
    22  C    0.146390
    23  C   -0.063212
    24  C   -0.002771
    25  C    0.021947
    26  C   -0.098334
    27  C   -0.027273
    28  C    0.091939
    29  C    0.116696
    30  C    0.019883
    31  C   -0.040729
    32  C   -0.042053
    33  C   -0.141576
    34  C    0.165290
    35  C    0.063003
    36  C   -0.024477
    37  C    0.131211
    38  C    0.034892
    39  C   -0.171636
    40  C    0.128423
    41  C   -0.077902
    42  C    0.221053
    43  C    0.052429
    44  H   -0.014381
    45  H   -0.014428
    46  H   -0.029329
    47  H    0.143901
    48  H    0.171432
    49  H    0.014581
    50  H   -0.003438
    51  H   -0.111019
    52  H    0.040289
    53  H    0.060350
    54  H    0.045615
    55  H    0.037975
    56  H    0.057485
    57  H    0.055846
    58  H    0.057600
    59  H    0.013853
    60  H    0.166461
    61  H    0.009820
    62  H   -0.003676
    63  H    0.027796
    64  H    0.067072
    65  H   -0.006127
    66  H    0.044872
    67  H    0.065399
    68  H    0.059395
    69  H   -0.002317
    70  H    0.026180
    71  H    0.011430
    72  H    0.206497
    73  H    0.003485
    74  H   -0.061700
    75  H    0.009130
    76  H   -0.022892
    77  H    0.164579
    78  H    0.032303
    79  H   -0.060133
 Sum of Mulliken charges =   0.00000

 Dipole moment (field-independent basis, Debye):
    X=              1.1379    Y=              2.0373    Z=              3.1744  Tot=              3.9399
 Quadrupole moment (field-independent basis, Debye-Ang):
   XX=           -223.5279   YY=           -237.8052   ZZ=           -268.0061
   XY=            -10.0713   XZ=             36.5815   YZ=              0.1923

 Normal termination of Gaussian 09 at Wed Jul 10 19:45:50 2019.
