 Gaussian 09, Revision D.01,
 Gaussian 09:  ES64L-G09RevD.01 24-Apr-2013

 --------------------------
 # td=(NStates=1) B3LYP/SVP
 --------------------------

 --
 TD
 --
 Symbolic Z-matrix:
 Charge =  0 Multiplicity = 1

                         Standard orientation:
 ---------------------------------------------------------------------
 Center     Atomic      Atomic             Coordinates (Angstroms)
 Number     Number       Type             X           Y           Z
 ---------------------------------------------------------------------
      1          8           0        5.332873   -0.449997   -3.380231
      2          8           0       -2.678674   -2.924918    3.570153
      3          8           0       -3.237886   -0.691814    3.177906
      4          8           0       -1.774599    7.252572    1.405043
      5          8           0       -0.335580    7.027238   -0.387559
      6          8           0       -2.000108   -4.077786    0.135155
      7          7           0        2.376893    1.083126    0.520685
      8          7           0        4.420345   -0.538225   -1.173620
      9          7           0       -1.892181    0.712985   -0.398799
     10          7           0       -2.542606   -1.962220   -0.572599
     11          6           0        4.867875   -1.098358    0.113996
     12          6           0        4.459540   -0.157991    1.191038
     13          6           0        2.930061    0.103162    1.356439
     14          6           0        2.041127   -0.471292    2.150930
     15          6           0        0.711037    0.000669    1.775584
     16          6           0        0.996616    0.959079    0.712350
     17          6           0        6.394914   -1.257829   -0.129490
     18          6           0       -0.513430   -0.090185    2.552413
     19          6           0        6.691958   -0.860930   -1.398360
     20          6           0        0.171051    1.905858    0.209626
     21          6           0       -1.122694    1.774033   -0.440111
     22          6           0        5.423790   -0.646979   -2.197122
     23          6           0       -1.993177    2.899948   -0.897817
     24          6           0        2.179926   -1.598713    3.232452
     25          6           0        7.304850   -1.892964    0.876430
     26          6           0       -3.165354    2.333026   -1.288815
     27          6           0       -1.055554   -1.589110    2.564161
     28          6           0       -3.066476    0.870831   -1.072687
     29          6           0       -1.553631    4.373335   -1.028126
     30          6           0        7.984616   -0.996922   -2.098171
     31          6           0       -1.882501    5.071403    0.276631
     32          6           0       -4.344173    2.895383   -1.932747
     33          6           0       -3.915525   -0.101346   -1.384182
     34          6           0       -2.494340   -1.669859    3.166485
     35          6           0       -3.753571   -1.525849   -1.223868
     36          6           0        9.258204   -1.002487   -1.631503
     37          6           0       -1.278524    6.539831    0.317674
     38          6           0       -4.670135   -2.598493   -1.541846
     39          6           0       -4.160896   -3.726873   -1.053149
     40          6           0       -2.816148   -3.297239   -0.362855
     41          6           0       -6.046345   -2.451891   -2.092259
     42          6           0       -4.527267   -5.176772   -0.988522
     43          6           0       -6.886979   -3.416291   -2.549118
     44          1           0        4.336569   -2.118903    0.439856
     45          1           0        5.042956    0.890971    1.210124
     46          1           0        4.813017   -0.383930    2.190069
     47          1           0        2.703889    1.376366   -0.292195
     48          1           0        3.451083   -0.523726   -1.711254
     49          1           0       -0.504355    0.147022    3.711281
     50          1           0       -1.169700    0.466644    2.091796
     51          1           0        0.809778    2.942309    0.092283
     52          1           0        3.278457   -1.537772    3.725419
     53          1           0        1.525444   -1.794284    3.942045
     54          1           0        2.086204   -2.538804    2.709233
     55          1           0        6.561946   -2.462797    1.598263
     56          1           0        7.763117   -1.219063    1.554702
     57          1           0        7.993281   -2.593700    0.481477
     58          1           0       -0.831701   -1.865854    1.448965
     59          1           0       -0.485544   -2.292529    3.091818
     60          1           0       -1.637989   -0.291792   -0.318965
     61          1           0       -2.074834    4.865080   -1.884872
     62          1           0       -0.529464    4.698327   -1.269546
     63          1           0        7.761724   -0.820312   -3.190105
     64          1           0       -1.497849    4.410083    1.044288
     65          1           0       -2.967352    5.177186    0.406089
     66          1           0       -4.464168    3.915567   -1.897881
     67          1           0       -5.333680    2.314825   -1.591824
     68          1           0       -4.227535    2.720878   -3.121432
     69          1           0       -4.733965    0.184487   -2.041307
     70          1           0        9.537480   -0.726123   -0.510042
     71          1           0       10.281594   -1.132237   -2.305398
     72          1           0       -3.557667   -2.875996    3.953029
     73          1           0       -6.325312   -1.503044   -2.222061
     74          1           0       -4.439612   -5.710645   -1.952831
     75          1           0       -3.898871   -5.633648   -0.270674
     76          1           0       -5.506999   -5.323651   -0.695074
     77          1           0       -1.353815    8.095599    1.352338
     78          1           0       -7.897393   -3.139576   -3.338040
     79          1           0       -6.507176   -4.458090   -2.335733
 ---------------------------------------------------------------------

 SCF Done:  E(RB3LYP) =  -1947.82587800     A.U. after   17 cycles

 Excitation energies and oscillator strengths:

 Excited State   1:      Singlet-A      2.0359 eV  608.99 nm  f=0.4127  <S**2>=0.000
     154 ->156        -0.18938
     155 ->156         0.67956
     155 <-156        -0.13592
 This state for optimization and/or second-order correction.
 Total Energy, E(TD-HF/TD-KS) =  -1947.75106009
 Copying the excited state density for this state as the 1-particle RhoCI density.

 The electronic state is 1-A.
 Alpha  occ. eigenvalues --  -19.19213 -19.19046 -19.14348 -19.12392 -19.11988
 Alpha  occ. eigenvalues --  -19.09515 -14.37401 -14.36636 -14.36235 -14.29453
 Alpha  occ. eigenvalues --  -10.34144 -10.31709 -10.29444 -10.26682 -10.25706
 Alpha  occ. eigenvalues --  -10.24802 -10.24348 -10.24059 -10.23496 -10.22857
 Alpha  occ. eigenvalues --  -10.22771 -10.22320 -10.22081 -10.21999 -10.21996
 Alpha  occ. eigenvalues --  -10.21584 -10.21352 -10.21168 -10.21152 -10.21065
 Alpha  occ. eigenvalues --  -10.20850 -10.20781 -10.20567 -10.20192 -10.20136
 Alpha  occ. eigenvalues --  -10.20059 -10.19999 -10.19891 -10.19596 -10.19149
 Alpha  occ. eigenvalues --  -10.18657 -10.18611 -10.18100  -1.10260  -1.08889
 Alpha  occ. eigenvalues --   -1.04016  -1.00374  -1.00290  -0.99810  -0.99202
 Alpha  occ. eigenvalues --   -0.98665  -0.93356  -0.90314  -0.82888  -0.82272
 Alpha  occ. eigenvalues --   -0.81950  -0.81654  -0.80474  -0.79915  -0.78173
 Alpha  occ. eigenvalues --   -0.77271  -0.76083  -0.75176  -0.74769  -0.72306
 Alpha  occ. eigenvalues --   -0.71545  -0.71168  -0.70771  -0.69598  -0.68192
 Alpha  occ. eigenvalues --   -0.67575  -0.66081  -0.63443  -0.60820  -0.60246
 Alpha  occ. eigenvalues --   -0.59629  -0.59323  -0.58600  -0.58186  -0.57283
 Alpha  occ. eigenvalues --   -0.56966  -0.56071  -0.55398  -0.54170  -0.53119
 Alpha  occ. eigenvalues --   -0.51762  -0.51376  -0.50743  -0.50144  -0.49624
 Alpha  occ. eigenvalues --   -0.48961  -0.48702  -0.48560  -0.48336  -0.47415
 Alpha  occ. eigenvalues --   -0.47192  -0.46674  -0.46301  -0.45929  -0.45444
 Alpha  occ. eigenvalues --   -0.44834  -0.44696  -0.44152  -0.43850  -0.43544
 Alpha  occ. eigenvalues --   -0.43358  -0.43254  -0.43020  -0.42925  -0.42504
 Alpha  occ. eigenvalues --   -0.42317  -0.41984  -0.41584  -0.41519  -0.41214
 Alpha  occ. eigenvalues --   -0.40690  -0.40440  -0.40287  -0.40090  -0.39923
 Alpha  occ. eigenvalues --   -0.39535  -0.39393  -0.39252  -0.39092  -0.38790
 Alpha  occ. eigenvalues --   -0.38416  -0.38016  -0.37888  -0.37747  -0.36958
 Alpha  occ. eigenvalues --   -0.36258  -0.35519  -0.34820  -0.34659  -0.34110
 Alpha  occ. eigenvalues --   -0.33890  -0.33279  -0.32642  -0.32615  -0.31880
 Alpha  occ. eigenvalues --   -0.31675  -0.31093  -0.29237  -0.28320  -0.27883
 Alpha  occ. eigenvalues --   -0.27488  -0.27468  -0.26758  -0.26215  -0.25441
 Alpha  occ. eigenvalues --   -0.24826  -0.24135  -0.23594  -0.22238  -0.18701
 Alpha virt. eigenvalues --   -0.11101  -0.06442  -0.06244  -0.03052  -0.01653
 Alpha virt. eigenvalues --   -0.00069   0.00162   0.00476   0.02723   0.03313
 Alpha virt. eigenvalues --    0.03398   0.04078   0.04271   0.05023   0.05566

 Mulliken charges:
               1
     1  O   -0.195551
     2  O   -0.125821
     3  O   -0.241112
     4  O   -0.180539
     5  O   -0.275196
     6  O   -0.226244
     7  N   -0.035747
     8  N   -0.305965
     9  N   -0.007204
    10  N   -0.312302
    11  C    0.141490
    12  C    0.130842
    13  C   -0.085619
    14  C   -0.105549
    15  C   -0.124459
    16  C    0.070177
    17  C   -0.164665
    18  C    0.208879
    19  C   -0.075590
    20  C   -0.186425
    21  C    0.067216
    22  C    0.169220
    23  C   -0.088491
    24  C    0.132721
    25  C    0.111069
    26  C   -0.084838
    27  C   -0.097755
    28  C    0.104067
    29  C    0.060593
    30  C    0.011265
    31  C    0.005248
    32  C    0.059292
    33  C   -0.110004
    34  C    0.165619
    35  C    0.069933
    36  C   -0.123703
    37  C    0.181148
    38  C    0.068021
    39  C   -0.230577
    40  C    0.138773
    41  C    0.033162
    42  C    0.167780
    43  C   -0.076356
    44  H    0.047074
    45  H    0.008897
    46  H   -0.016807
    47  H    0.073659
    48  H    0.163205
    49  H    0.027961
    50  H   -0.051435
    51  H    0.043020
    52  H    0.020404
    53  H   -0.022870
    54  H    0.020932
    55  H    0.013358
    56  H    0.027522
    57  H    0.036395
    58  H    0.092406
    59  H   -0.001819
    60  H    0.153830
    61  H    0.007184
    62  H    0.028824
    63  H    0.036244
    64  H    0.054964
    65  H    0.036648
    66  H   -0.009275
    67  H    0.051304
    68  H    0.042989
    69  H   -0.024299
    70  H    0.045611
    71  H    0.062843
    72  H    0.162678
    73  H   -0.069795
    74  H    0.034593
    75  H    0.010405
    76  H    0.001529
    77  H    0.167908
    78  H    0.070726
    79  H    0.016386
 Sum of Mulliken charges =   0.00000

 Dipole moment (field-independent basis, Debye):
    X=             -0.0087    Y=              1.6205    Z=              3.0287  Tot=              3.4350
 Quadrupole moment (field-independent basis, Debye-Ang):
   XX=           -221.9552   YY=           -251.1214   ZZ=           -256.1733
   XY=             -9.8724   XZ=             30.6800   YZ=             -3.6093

 Normal termination of Gaussian 09 at Mon Jul  8 03:37:32 2019.
