 Gaussian 09, Revision D.01,
 Gaussian 09:  ES64L-G09RevD.01 24-Apr-2013

 --------------------------
 # td=(NStates=1) B3LYP/SVP
 --------------------------

 --
 TD
 --
 Symbolic Z-matrix:
 Charge =  0 Multiplicity = 1

                         Standard orientation:
 ---------------------------------------------------------------------
 Center     Atomic      Atomic             Coordinates (Angstroms)
 Number     Number       Type             X           Y           Z
 ---------------------------------------------------------------------
      1          8           0        5.326050    0.033239   -3.247121
      2          8           0       -2.665083   -3.310787    3.334914
      3          8           0       -3.076875   -1.095339    3.512218
      4          8           0       -2.055372    7.217072    1.494989
      5          8           0       -0.964013    7.023103   -0.427547
      6          8           0       -1.966570   -4.125623    0.055920
      7          7           0        2.368876    1.020106    0.523732
      8          7           0        4.532494   -0.649312   -1.237478
      9          7           0       -1.902195    0.738985   -0.271850
     10          7           0       -2.632513   -1.946927   -0.457836
     11          6           0        4.861762   -1.036737    0.084354
     12          6           0        4.559170   -0.019658    1.138438
     13          6           0        3.094711    0.153060    1.196765
     14          6           0        2.058665   -0.567052    2.033566
     15          6           0        0.821619   -0.107291    1.849644
     16          6           0        0.962294    0.937375    0.877743
     17          6           0        6.408556   -1.269630   -0.184748
     18          6           0       -0.492004   -0.422400    2.595269
     19          6           0        6.661238   -0.706702   -1.438266
     20          6           0        0.121805    1.947352    0.165280
     21          6           0       -1.209314    1.818956   -0.266595
     22          6           0        5.437686   -0.395237   -2.143737
     23          6           0       -1.952940    2.898865   -0.923534
     24          6           0        2.433425   -1.456403    3.093062
     25          6           0        7.341889   -1.875032    0.913871
     26          6           0       -3.149612    2.335642   -1.193868
     27          6           0       -1.046142   -1.854505    2.564243
     28          6           0       -3.154593    0.960799   -0.946723
     29          6           0       -1.543943    4.306442   -0.920922
     30          6           0        8.003679   -0.554126   -2.153853
     31          6           0       -2.036699    5.060720    0.393270
     32          6           0       -4.392183    2.890091   -1.859672
     33          6           0       -3.979200   -0.083735   -1.200573
     34          6           0       -2.328461   -1.953369    3.176710
     35          6           0       -3.716148   -1.491903   -1.039397
     36          6           0        9.314907   -0.731117   -1.728336
     37          6           0       -1.603598    6.546301    0.426415
     38          6           0       -4.645325   -2.588939   -1.617109
     39          6           0       -4.003144   -3.722570   -1.146699
     40          6           0       -2.720505   -3.400086   -0.468808
     41          6           0       -5.905696   -2.369539   -2.294075
     42          6           0       -4.447179   -5.150514   -1.379329
     43          6           0       -6.691576   -3.346558   -2.795245
     44          1           0        4.494974   -2.031051    0.374003
     45          1           0        5.088634    0.994522    1.104846
     46          1           0        4.768166   -0.363868    1.983602
     47          1           0        2.820248    1.693773   -0.174075
     48          1           0        3.574553   -0.773414   -1.585238
     49          1           0       -0.237195   -0.394686    3.636588
     50          1           0       -1.343258    0.365020    2.268927
     51          1           0        0.757176    2.923703   -0.044099
     52          1           0        3.422608   -1.678789    3.451224
     53          1           0        1.719797   -1.378616    4.005265
     54          1           0        2.072834   -2.511504    2.704275
     55          1           0        6.757873   -2.427452    1.637136
     56          1           0        7.807306   -1.013406    1.467810
     57          1           0        8.176530   -2.442498    0.427390
     58          1           0       -1.124730   -2.378299    1.533035
     59          1           0       -0.231724   -2.660477    2.772852
     60          1           0       -1.785620   -0.194613   -0.009727
     61          1           0       -1.847354    4.834218   -1.825961
     62          1           0       -0.485168    4.329435   -0.774953
     63          1           0        7.814070   -0.295342   -3.309627
     64          1           0       -1.832032    4.666105    1.339809
     65          1           0       -3.202038    5.084525    0.324511
     66          1           0       -4.277430    3.951944   -1.741447
     67          1           0       -5.356548    2.770698   -1.229026
     68          1           0       -4.682538    2.516041   -2.841805
     69          1           0       -4.878170    0.087092   -1.722171
     70          1           0        9.360358   -1.012055   -0.608951
     71          1           0       10.217385   -0.619083   -2.412166
     72          1           0       -3.532842   -3.314964    3.824975
     73          1           0       -6.306693   -1.424471   -2.227176
     74          1           0       -4.428345   -5.201449   -2.489859
     75          1           0       -3.765258   -5.889627   -0.971773
     76          1           0       -5.462570   -5.426204   -0.984421
     77          1           0       -1.816539    8.169105    1.582470
     78          1           0       -7.741890   -3.138038   -3.100056
     79          1           0       -6.245182   -4.404544   -2.911981
 ---------------------------------------------------------------------

 SCF Done:  E(RB3LYP) =  -1947.89062379     A.U. after   17 cycles

 Excitation energies and oscillator strengths:

 Excited State   1:      Singlet-A      1.9203 eV  645.65 nm  f=0.4966  <S**2>=0.000
     155 ->156         0.70483
     155 <-156        -0.13119
 This state for optimization and/or second-order correction.
 Total Energy, E(TD-HF/TD-KS) =  -1947.82005446
 Copying the excited state density for this state as the 1-particle RhoCI density.

 The electronic state is 1-A.
 Alpha  occ. eigenvalues --  -19.18387 -19.14959 -19.12735 -19.11654 -19.11473
 Alpha  occ. eigenvalues --  -19.09786 -14.39806 -14.35456 -14.35255 -14.28729
 Alpha  occ. eigenvalues --  -10.32163 -10.30129 -10.27681 -10.26741 -10.25736
 Alpha  occ. eigenvalues --  -10.23690 -10.23583 -10.23531 -10.23183 -10.23154
 Alpha  occ. eigenvalues --  -10.23078 -10.22218 -10.22217 -10.21581 -10.21565
 Alpha  occ. eigenvalues --  -10.21272 -10.20805 -10.20727 -10.20669 -10.20537
 Alpha  occ. eigenvalues --  -10.20437 -10.20349 -10.20315 -10.20202 -10.19968
 Alpha  occ. eigenvalues --  -10.19816 -10.19678 -10.19637 -10.19578 -10.19298
 Alpha  occ. eigenvalues --  -10.19136 -10.18780 -10.18129  -1.10607  -1.07114
 Alpha  occ. eigenvalues --   -1.04625  -1.04549  -1.02180  -0.99418  -0.98642
 Alpha  occ. eigenvalues --   -0.98360  -0.96511  -0.91430  -0.83034  -0.82764
 Alpha  occ. eigenvalues --   -0.82357  -0.80897  -0.80389  -0.80245  -0.77644
 Alpha  occ. eigenvalues --   -0.77175  -0.76118  -0.75057  -0.74159  -0.72470
 Alpha  occ. eigenvalues --   -0.71637  -0.71254  -0.69554  -0.69221  -0.68889
 Alpha  occ. eigenvalues --   -0.67287  -0.66925  -0.64227  -0.61986  -0.60828
 Alpha  occ. eigenvalues --   -0.60239  -0.59033  -0.58263  -0.57840  -0.57008
 Alpha  occ. eigenvalues --   -0.56496  -0.55482  -0.54770  -0.54544  -0.53307
 Alpha  occ. eigenvalues --   -0.52375  -0.51496  -0.50924  -0.50413  -0.50139
 Alpha  occ. eigenvalues --   -0.49894  -0.49478  -0.48654  -0.47874  -0.47605
 Alpha  occ. eigenvalues --   -0.47042  -0.46733  -0.46319  -0.45959  -0.45532
 Alpha  occ. eigenvalues --   -0.45321  -0.44736  -0.44399  -0.43895  -0.43780
 Alpha  occ. eigenvalues --   -0.43564  -0.43392  -0.43252  -0.42975  -0.42535
 Alpha  occ. eigenvalues --   -0.42415  -0.42195  -0.42049  -0.41540  -0.41471
 Alpha  occ. eigenvalues --   -0.40956  -0.40856  -0.40558  -0.40373  -0.39913
 Alpha  occ. eigenvalues --   -0.39791  -0.39551  -0.39198  -0.38738  -0.38540
 Alpha  occ. eigenvalues --   -0.38337  -0.38076  -0.37492  -0.37152  -0.36615
 Alpha  occ. eigenvalues --   -0.36098  -0.35659  -0.35491  -0.35100  -0.34835
 Alpha  occ. eigenvalues --   -0.34714  -0.33408  -0.32901  -0.31353  -0.31049
 Alpha  occ. eigenvalues --   -0.30480  -0.30404  -0.28787  -0.28480  -0.28465
 Alpha  occ. eigenvalues --   -0.27402  -0.27325  -0.26247  -0.25967  -0.25689
 Alpha  occ. eigenvalues --   -0.23979  -0.23710  -0.23289  -0.22004  -0.17508
 Alpha virt. eigenvalues --   -0.10287  -0.06327  -0.05985  -0.00496   0.00695
 Alpha virt. eigenvalues --    0.01228   0.01348   0.01570   0.02818   0.03059
 Alpha virt. eigenvalues --    0.03610   0.04177   0.04764   0.05106   0.05779

 Mulliken charges:
               1
     1  O   -0.191900
     2  O   -0.249103
     3  O   -0.199942
     4  O   -0.201227
     5  O   -0.179497
     6  O   -0.139819
     7  N   -0.086154
     8  N   -0.129825
     9  N    0.003285
    10  N   -0.291920
    11  C    0.050323
    12  C    0.431203
    13  C   -0.176601
    14  C   -0.127654
    15  C   -0.024800
    16  C    0.012253
    17  C   -0.202197
    18  C    0.114053
    19  C   -0.077605
    20  C   -0.143075
    21  C    0.076408
    22  C    0.090631
    23  C   -0.113442
    24  C    0.016730
    25  C    0.080703
    26  C   -0.110020
    27  C   -0.080686
    28  C    0.122286
    29  C    0.169184
    30  C   -0.053992
    31  C   -0.039430
    32  C    0.104416
    33  C   -0.071433
    34  C    0.155370
    35  C    0.034344
    36  C   -0.056013
    37  C    0.115981
    38  C    0.053616
    39  C   -0.221287
    40  C    0.166962
    41  C    0.010612
    42  C    0.070190
    43  C   -0.046848
    44  H    0.022112
    45  H    0.012929
    46  H   -0.115837
    47  H    0.146503
    48  H    0.124786
    49  H   -0.001167
    50  H    0.058601
    51  H    0.023060
    52  H    0.006556
    53  H    0.024527
    54  H    0.024401
    55  H    0.015468
    56  H    0.045748
    57  H    0.058808
    58  H    0.079474
    59  H    0.033750
    60  H    0.101807
    61  H    0.025591
    62  H   -0.010327
    63  H    0.043362
    64  H    0.022336
    65  H    0.043922
    66  H   -0.011298
    67  H    0.016625
    68  H    0.040431
    69  H   -0.067869
    70  H    0.016722
    71  H    0.053035
    72  H    0.178802
    73  H   -0.034890
    74  H    0.041478
    75  H    0.014296
    76  H    0.036989
    77  H    0.196062
    78  H    0.031799
    79  H    0.037326
 Sum of Mulliken charges =   0.00000

 Dipole moment (field-independent basis, Debye):
    X=              0.8007    Y=              2.2512    Z=              3.3004  Tot=              4.0745
 Quadrupole moment (field-independent basis, Debye-Ang):
   XX=           -221.9995   YY=           -240.9915   ZZ=           -263.9365
   XY=            -11.1946   XZ=             35.8327   YZ=              8.5896

 Normal termination of Gaussian 09 at Wed Jul 10 06:55:47 2019.
