 Gaussian 09, Revision D.01,
 Gaussian 09:  ES64L-G09RevD.01 24-Apr-2013

 --------------------------
 # td=(NStates=1) B3LYP/SVP
 --------------------------

 --
 TD
 --
 Symbolic Z-matrix:
 Charge =  0 Multiplicity = 1

                         Standard orientation:
 ---------------------------------------------------------------------
 Center     Atomic      Atomic             Coordinates (Angstroms)
 Number     Number       Type             X           Y           Z
 ---------------------------------------------------------------------
      1          8           0        5.188172   -0.202508   -3.366409
      2          8           0       -2.654910   -3.206828    3.332870
      3          8           0       -3.113069   -1.004940    3.493254
      4          8           0       -1.397926    7.093711    1.635818
      5          8           0       -0.818299    7.077874   -0.616947
      6          8           0       -1.882393   -3.843617   -0.013785
      7          7           0        2.385645    0.999677    0.565006
      8          7           0        4.379866   -0.760748   -1.329095
      9          7           0       -1.845034    0.636081   -0.438506
     10          7           0       -2.788518   -1.733589   -0.431946
     11          6           0        4.749951   -1.196442    0.012519
     12          6           0        4.416532   -0.239316    1.160283
     13          6           0        2.996536    0.027138    1.300774
     14          6           0        2.057247   -0.548256    2.194283
     15          6           0        0.759543    0.018198    1.764834
     16          6           0        0.955894    0.939905    0.766650
     17          6           0        6.285068   -1.395013   -0.251175
     18          6           0       -0.622813   -0.230702    2.493421
     19          6           0        6.601920   -0.923521   -1.417953
     20          6           0        0.141898    1.874089    0.108344
     21          6           0       -1.181588    1.823620   -0.323698
     22          6           0        5.375468   -0.627422   -2.223961
     23          6           0       -2.001681    2.922894   -0.855585
     24          6           0        2.343310   -1.549224    3.398923
     25          6           0        7.314705   -1.993750    0.790346
     26          6           0       -3.215539    2.378457   -1.169435
     27          6           0       -0.978504   -1.801737    2.596253
     28          6           0       -3.098027    0.989550   -0.885665
     29          6           0       -1.547732    4.334286   -0.981570
     30          6           0        7.950588   -0.650342   -2.121598
     31          6           0       -1.693106    5.019875    0.489143
     32          6           0       -4.364259    2.980204   -1.787808
     33          6           0       -4.147482    0.007854   -1.141566
     34          6           0       -2.351920   -1.883918    3.218948
     35          6           0       -3.889365   -1.397911   -0.985715
     36          6           0        9.229301   -0.568576   -1.651918
     37          6           0       -1.292752    6.442717    0.328669
     38          6           0       -4.674282   -2.566194   -1.496119
     39          6           0       -3.980251   -3.652858   -1.130747
     40          6           0       -2.803457   -3.196411   -0.430974
     41          6           0       -5.966886   -2.400739   -2.201932
     42          6           0       -4.294652   -5.088028   -1.467167
     43          6           0       -6.735788   -3.360633   -2.782008
     44          1           0        4.344594   -2.102324    0.100420
     45          1           0        4.911694    0.700959    0.979432
     46          1           0        4.955163   -0.414906    2.116772
     47          1           0        2.714536    1.508259   -0.057378
     48          1           0        3.363427   -0.529158   -1.412947
     49          1           0       -0.642386   -0.126397    3.589693
     50          1           0       -1.596329    0.264684    2.268257
     51          1           0        0.794757    2.826598   -0.250846
     52          1           0        3.373825   -1.847037    3.551573
     53          1           0        1.884123   -0.945438    4.360569
     54          1           0        1.902921   -2.547205    3.209088
     55          1           0        6.826202   -2.684111    1.530388
     56          1           0        7.670051   -1.181082    1.445624
     57          1           0        8.057487   -2.563884    0.099575
     58          1           0       -0.888700   -2.408383    1.580988
     59          1           0       -0.287185   -2.430882    3.319913
     60          1           0       -1.757253   -0.360992   -0.153201
     61          1           0       -2.220491    4.788610   -1.718991
     62          1           0       -0.616683    4.429423   -1.645346
     63          1           0        7.882726   -0.541289   -3.182265
     64          1           0       -1.335541    4.517908    1.358796
     65          1           0       -2.637420    5.213823    0.678513
     66          1           0       -4.516063    4.089588   -1.800815
     67          1           0       -5.389876    2.783969   -1.388643
     68          1           0       -4.531294    2.665287   -2.705570
     69          1           0       -5.023651    0.186799   -1.582895
     70          1           0        9.510508   -0.735612   -0.710025
     71          1           0       10.143260   -0.264478   -2.231079
     72          1           0       -3.638144   -3.394580    3.673263
     73          1           0       -6.377355   -1.366064   -2.465154
     74          1           0       -4.214417   -5.194657   -2.515839
     75          1           0       -3.564608   -5.609535   -0.812540
     76          1           0       -5.209704   -5.443068   -1.077530
     77          1           0       -1.143535    7.953119    1.497033
     78          1           0       -7.732571   -3.124274   -3.215265
     79          1           0       -6.535630   -4.339915   -2.610966
 ---------------------------------------------------------------------

 SCF Done:  E(RB3LYP) =  -1947.84965747     A.U. after   17 cycles

 Excitation energies and oscillator strengths:

 Excited State   1:      Singlet-A      2.0247 eV  612.35 nm  f=0.4781  <S**2>=0.000
     155 ->156         0.70342
     155 <-156        -0.12352
 This state for optimization and/or second-order correction.
 Total Energy, E(TD-HF/TD-KS) =  -1947.77524975
 Copying the excited state density for this state as the 1-particle RhoCI density.

 The electronic state is 1-A.
 Alpha  occ. eigenvalues --  -19.16539 -19.16528 -19.14791 -19.11814 -19.11067
 Alpha  occ. eigenvalues --  -19.09164 -14.37480 -14.35872 -14.35164 -14.28500
 Alpha  occ. eigenvalues --  -10.33645 -10.30535 -10.28218 -10.26539 -10.24241
 Alpha  occ. eigenvalues --  -10.24197 -10.24107 -10.23949 -10.23190 -10.22426
 Alpha  occ. eigenvalues --  -10.22252 -10.22119 -10.22041 -10.21977 -10.21921
 Alpha  occ. eigenvalues --  -10.21918 -10.21727 -10.21330 -10.21159 -10.20856
 Alpha  occ. eigenvalues --  -10.20748 -10.20683 -10.20495 -10.20414 -10.20379
 Alpha  occ. eigenvalues --  -10.19959 -10.19866 -10.19399 -10.19249 -10.19221
 Alpha  occ. eigenvalues --  -10.19175 -10.18337 -10.17900  -1.07646  -1.07331
 Alpha  occ. eigenvalues --   -1.02892  -1.01638  -1.00194  -0.99233  -0.98963
 Alpha  occ. eigenvalues --   -0.98414  -0.94012  -0.93123  -0.83556  -0.82133
 Alpha  occ. eigenvalues --   -0.81360  -0.81096  -0.80973  -0.80371  -0.78564
 Alpha  occ. eigenvalues --   -0.76636  -0.75816  -0.75414  -0.74751  -0.73057
 Alpha  occ. eigenvalues --   -0.71718  -0.71019  -0.70430  -0.69845  -0.69425
 Alpha  occ. eigenvalues --   -0.67010  -0.66333  -0.63991  -0.61552  -0.61157
 Alpha  occ. eigenvalues --   -0.59344  -0.59047  -0.58897  -0.58134  -0.57325
 Alpha  occ. eigenvalues --   -0.56832  -0.56659  -0.55428  -0.54132  -0.53565
 Alpha  occ. eigenvalues --   -0.52795  -0.52117  -0.51179  -0.50869  -0.49800
 Alpha  occ. eigenvalues --   -0.49130  -0.48370  -0.48148  -0.47956  -0.47571
 Alpha  occ. eigenvalues --   -0.47097  -0.46488  -0.46326  -0.46108  -0.45866
 Alpha  occ. eigenvalues --   -0.45414  -0.45216  -0.44808  -0.44373  -0.43819
 Alpha  occ. eigenvalues --   -0.43750  -0.43181  -0.42946  -0.42513  -0.42211
 Alpha  occ. eigenvalues --   -0.42016  -0.41739  -0.41626  -0.41525  -0.41162
 Alpha  occ. eigenvalues --   -0.41031  -0.40621  -0.40095  -0.39985  -0.39884
 Alpha  occ. eigenvalues --   -0.39654  -0.39274  -0.39080  -0.39045  -0.38401
 Alpha  occ. eigenvalues --   -0.38078  -0.37570  -0.37336  -0.37181  -0.36907
 Alpha  occ. eigenvalues --   -0.36367  -0.35518  -0.35396  -0.34915  -0.34711
 Alpha  occ. eigenvalues --   -0.34675  -0.34121  -0.32438  -0.32169  -0.31149
 Alpha  occ. eigenvalues --   -0.31056  -0.30940  -0.29501  -0.29304  -0.28477
 Alpha  occ. eigenvalues --   -0.27387  -0.26232  -0.25987  -0.25426  -0.25024
 Alpha  occ. eigenvalues --   -0.24609  -0.24523  -0.24174  -0.22920  -0.18339
 Alpha virt. eigenvalues --   -0.10517  -0.06720  -0.05133  -0.02091  -0.00380
 Alpha virt. eigenvalues --    0.00748   0.01515   0.01778   0.02621   0.03691
 Alpha virt. eigenvalues --    0.03954   0.04227   0.04956   0.05202   0.05687

 Mulliken charges:
               1
     1  O   -0.240871
     2  O   -0.248247
     3  O   -0.212938
     4  O   -0.235527
     5  O   -0.225073
     6  O   -0.174249
     7  N   -0.006121
     8  N   -0.208916
     9  N   -0.045984
    10  N   -0.294173
    11  C    0.203344
    12  C    0.211385
    13  C   -0.078274
    14  C   -0.130150
    15  C   -0.041473
    16  C    0.085138
    17  C   -0.262686
    18  C    0.050015
    19  C   -0.025153
    20  C   -0.141383
    21  C    0.096475
    22  C    0.162972
    23  C   -0.122103
    24  C    0.053513
    25  C    0.048195
    26  C   -0.068560
    27  C   -0.151773
    28  C    0.100403
    29  C    0.080551
    30  C    0.021409
    31  C    0.142542
    32  C    0.142328
    33  C   -0.040013
    34  C    0.158639
    35  C    0.032715
    36  C   -0.016228
    37  C    0.150485
    38  C    0.100137
    39  C   -0.247112
    40  C    0.151674
    41  C   -0.066858
    42  C    0.151234
    43  C    0.001405
    44  H   -0.032748
    45  H   -0.027489
    46  H    0.010060
    47  H    0.018940
    48  H    0.129017
    49  H    0.001562
    50  H    0.042092
    51  H    0.022967
    52  H   -0.003196
    53  H    0.060401
    54  H    0.044161
    55  H    0.018278
    56  H    0.041189
    57  H    0.070141
    58  H    0.104444
    59  H    0.045857
    60  H    0.162231
    61  H    0.001229
    62  H    0.046123
    63  H    0.007972
    64  H    0.056235
    65  H   -0.012011
    66  H    0.010942
    67  H    0.005271
    68  H   -0.022230
    69  H   -0.113317
    70  H   -0.029986
    71  H    0.035850
    72  H    0.211942
    73  H    0.015308
    74  H    0.034214
    75  H    0.018180
    76  H    0.012592
    77  H    0.142305
    78  H    0.031583
    79  H   -0.020806
 Sum of Mulliken charges =   0.00000

 Dipole moment (field-independent basis, Debye):
    X=             -0.4301    Y=              0.7675    Z=              3.3013  Tot=              3.4166
 Quadrupole moment (field-independent basis, Debye-Ang):
   XX=           -213.7211   YY=           -249.2152   ZZ=           -265.2757
   XY=             -4.5158   XZ=             37.0491   YZ=             -1.6626

 Normal termination of Gaussian 09 at Tue Jul  9 15:05:18 2019.
