 Gaussian 09, Revision D.01,
 Gaussian 09:  ES64L-G09RevD.01 24-Apr-2013

 --------------------------
 # td=(NStates=1) B3LYP/SVP
 --------------------------

 --
 TD
 --
 Symbolic Z-matrix:
 Charge =  0 Multiplicity = 1

                         Standard orientation:
 ---------------------------------------------------------------------
 Center     Atomic      Atomic             Coordinates (Angstroms)
 Number     Number       Type             X           Y           Z
 ---------------------------------------------------------------------
      1          8           0        5.285341   -0.494746   -3.342572
      2          8           0       -2.763937   -2.990093    3.336881
      3          8           0       -3.284406   -0.858793    2.990942
      4          8           0       -1.770667    7.113007    1.449466
      5          8           0       -0.736640    6.969860   -0.596334
      6          8           0       -1.640072   -4.012360   -0.080612
      7          7           0        2.307081    0.911344    0.473567
      8          7           0        4.326393   -0.688643   -1.262009
      9          7           0       -1.908893    0.658991   -0.392759
     10          7           0       -2.452682   -1.908625   -0.524663
     11          6           0        4.875418   -1.152865    0.070736
     12          6           0        4.396004   -0.135486    1.226734
     13          6           0        2.915050    0.051676    1.336645
     14          6           0        2.056998   -0.642527    2.124699
     15          6           0        0.712937    0.044725    1.844033
     16          6           0        0.983507    0.990222    0.813680
     17          6           0        6.310362   -1.209302   -0.149299
     18          6           0       -0.577586   -0.149399    2.503983
     19          6           0        6.670087   -0.774526   -1.385471
     20          6           0        0.110225    1.993189    0.162013
     21          6           0       -1.168698    1.823756   -0.366182
     22          6           0        5.383610   -0.666588   -2.156110
     23          6           0       -2.076004    2.869541   -0.848393
     24          6           0        2.287239   -1.725314    3.061066
     25          6           0        7.219883   -1.566849    0.964405
     26          6           0       -3.319289    2.282994   -1.211811
     27          6           0       -1.048378   -1.604385    2.598130
     28          6           0       -3.121109    0.731533   -1.019313
     29          6           0       -1.743332    4.264146   -0.933927
     30          6           0        7.982110   -0.559968   -2.034316
     31          6           0       -1.925812    5.125577    0.392543
     32          6           0       -4.402611    2.932245   -1.801957
     33          6           0       -3.990553   -0.264582   -1.414701
     34          6           0       -2.482786   -1.754343    3.076000
     35          6           0       -3.663743   -1.553985   -1.117461
     36          6           0        9.126708   -0.431166   -1.429053
     37          6           0       -1.322892    6.436094    0.252553
     38          6           0       -4.555228   -2.694491   -1.464679
     39          6           0       -3.780864   -3.772168   -1.137093
     40          6           0       -2.548672   -3.319001   -0.492112
     41          6           0       -5.890416   -2.435476   -1.921557
     42          6           0       -4.184536   -5.154816   -1.023172
     43          6           0       -6.580430   -3.313825   -2.625709
     44          1           0        4.437524   -2.034584    0.311836
     45          1           0        4.961812    0.723819    1.201966
     46          1           0        4.701040   -0.611132    2.121501
     47          1           0        2.645659    1.631129   -0.155332
     48          1           0        3.254083   -0.775233   -1.599528
     49          1           0       -0.556321    0.185996    3.666792
     50          1           0       -1.571717    0.304275    2.072115
     51          1           0        0.570364    2.871665    0.111563
     52          1           0        3.416667   -1.799701    3.287818
     53          1           0        1.572718   -1.329518    3.832327
     54          1           0        1.877706   -2.593524    2.914741
     55          1           0        6.757706   -2.286601    1.599040
     56          1           0        7.357306   -0.649461    1.411974
     57          1           0        8.145883   -1.919051    0.542795
     58          1           0       -0.924942   -2.238067    1.620926
     59          1           0       -0.341235   -2.063160    3.372105
     60          1           0       -1.540188   -0.320910   -0.184652
     61          1           0       -2.056111    4.736477   -1.689338
     62          1           0       -0.569692    4.339110   -1.168375
     63          1           0        8.102463   -0.582261   -3.190182
     64          1           0       -1.737309    4.471662    1.404667
     65          1           0       -3.015915    5.150183    0.352497
     66          1           0       -4.285729    4.050988   -1.598766
     67          1           0       -5.435176    2.957103   -1.238262
     68          1           0       -4.603901    2.616506   -2.919164
     69          1           0       -5.021854   -0.071510   -1.862578
     70          1           0        9.318632   -0.280222   -0.389144
     71          1           0       10.125604   -0.396675   -2.006006
     72          1           0       -3.777713   -3.077138    3.507445
     73          1           0       -6.255940   -1.450911   -1.692094
     74          1           0       -3.809275   -5.822464   -1.908636
     75          1           0       -3.583460   -5.624703   -0.051789
     76          1           0       -5.222408   -5.214428   -0.751093
     77          1           0       -1.446362    8.016297    1.318182
     78          1           0       -7.606214   -3.098156   -2.685395
     79          1           0       -6.387135   -4.430112   -3.050469
 ---------------------------------------------------------------------

 SCF Done:  E(RB3LYP) =  -1947.84731828     A.U. after   16 cycles

 Excitation energies and oscillator strengths:

 Excited State   1:      Singlet-A      2.1135 eV  586.63 nm  f=0.3143  <S**2>=0.000
     152 ->156         0.11450
     155 ->156         0.68614
 This state for optimization and/or second-order correction.
 Total Energy, E(TD-HF/TD-KS) =  -1947.76964889
 Copying the excited state density for this state as the 1-particle RhoCI density.

 The electronic state is 1-A.
 Alpha  occ. eigenvalues --  -19.18418 -19.16736 -19.15861 -19.11010 -19.10024
 Alpha  occ. eigenvalues --  -19.08334 -14.37649 -14.37068 -14.34635 -14.28854
 Alpha  occ. eigenvalues --  -10.33242 -10.30375 -10.26896 -10.25952 -10.25756
 Alpha  occ. eigenvalues --  -10.24929 -10.23660 -10.22672 -10.22645 -10.22469
 Alpha  occ. eigenvalues --  -10.22115 -10.21789 -10.21640 -10.21503 -10.21446
 Alpha  occ. eigenvalues --  -10.21120 -10.20682 -10.20451 -10.20273 -10.20227
 Alpha  occ. eigenvalues --  -10.20196 -10.19859 -10.19733 -10.19585 -10.19506
 Alpha  occ. eigenvalues --  -10.19485 -10.19478 -10.19408 -10.19167 -10.19130
 Alpha  occ. eigenvalues --  -10.18986 -10.18976 -10.18970  -1.10938  -1.10113
 Alpha  occ. eigenvalues --   -1.01544  -1.01430  -1.01417  -0.99851  -0.98543
 Alpha  occ. eigenvalues --   -0.97812  -0.92068  -0.90993  -0.83734  -0.81875
 Alpha  occ. eigenvalues --   -0.81674  -0.81284  -0.81047  -0.79534  -0.78818
 Alpha  occ. eigenvalues --   -0.77707  -0.76857  -0.75794  -0.75279  -0.73294
 Alpha  occ. eigenvalues --   -0.72028  -0.71627  -0.70346  -0.69332  -0.68358
 Alpha  occ. eigenvalues --   -0.66618  -0.66217  -0.63585  -0.61403  -0.59514
 Alpha  occ. eigenvalues --   -0.59348  -0.58696  -0.58015  -0.57292  -0.56550
 Alpha  occ. eigenvalues --   -0.56115  -0.55958  -0.55274  -0.53739  -0.53222
 Alpha  occ. eigenvalues --   -0.51992  -0.51420  -0.51073  -0.50539  -0.49935
 Alpha  occ. eigenvalues --   -0.49535  -0.49011  -0.48341  -0.47981  -0.47421
 Alpha  occ. eigenvalues --   -0.47370  -0.47137  -0.47105  -0.46532  -0.46063
 Alpha  occ. eigenvalues --   -0.45370  -0.45235  -0.45131  -0.44847  -0.44643
 Alpha  occ. eigenvalues --   -0.44329  -0.43685  -0.43462  -0.42973  -0.42827
 Alpha  occ. eigenvalues --   -0.42525  -0.42188  -0.42036  -0.41702  -0.41591
 Alpha  occ. eigenvalues --   -0.41130  -0.40287  -0.40022  -0.39791  -0.39760
 Alpha  occ. eigenvalues --   -0.39394  -0.39278  -0.38742  -0.38560  -0.38376
 Alpha  occ. eigenvalues --   -0.38010  -0.37678  -0.37080  -0.36923  -0.36658
 Alpha  occ. eigenvalues --   -0.36455  -0.35690  -0.34832  -0.34273  -0.33941
 Alpha  occ. eigenvalues --   -0.33858  -0.33556  -0.32816  -0.31593  -0.31539
 Alpha  occ. eigenvalues --   -0.31399  -0.30910  -0.30555  -0.28224  -0.27418
 Alpha  occ. eigenvalues --   -0.26844  -0.25355  -0.25188  -0.24496  -0.24203
 Alpha  occ. eigenvalues --   -0.23942  -0.23592  -0.23055  -0.22186  -0.19744
 Alpha virt. eigenvalues --   -0.11003  -0.06720  -0.04520  -0.02062  -0.01217
 Alpha virt. eigenvalues --    0.01459   0.02229   0.02583   0.02822   0.03549
 Alpha virt. eigenvalues --    0.03843   0.04000   0.04191   0.04837   0.05253

 Mulliken charges:
               1
     1  O   -0.211901
     2  O   -0.156008
     3  O   -0.240176
     4  O   -0.259624
     5  O   -0.145241
     6  O   -0.198768
     7  N   -0.042738
     8  N   -0.285678
     9  N   -0.086653
    10  N   -0.325291
    11  C    0.192067
    12  C    0.241765
    13  C   -0.104917
    14  C   -0.117437
    15  C   -0.024750
    16  C    0.008491
    17  C   -0.243258
    18  C   -0.061848
    19  C   -0.019448
    20  C   -0.051436
    21  C    0.148238
    22  C    0.129231
    23  C   -0.053311
    24  C    0.158534
    25  C    0.177329
    26  C   -0.085399
    27  C   -0.101876
    28  C    0.159271
    29  C    0.080269
    30  C    0.002318
    31  C   -0.040084
    32  C   -0.006378
    33  C   -0.157461
    34  C    0.129483
    35  C    0.082227
    36  C   -0.079090
    37  C    0.171262
    38  C    0.079157
    39  C   -0.186158
    40  C    0.156922
    41  C   -0.026457
    42  C    0.020377
    43  C   -0.025547
    44  H   -0.028443
    45  H   -0.041454
    46  H   -0.041293
    47  H    0.116402
    48  H    0.174028
    49  H    0.019367
    50  H    0.058860
    51  H   -0.062000
    52  H    0.018248
    53  H    0.023550
    54  H   -0.010911
    55  H    0.007419
    56  H    0.016398
    57  H    0.027914
    58  H    0.102815
    59  H    0.008640
    60  H    0.178913
    61  H   -0.054442
    62  H    0.017258
    63  H    0.039920
    64  H    0.092369
    65  H    0.042212
    66  H    0.012341
    67  H    0.032351
    68  H    0.065098
    69  H    0.000229
    70  H    0.002149
    71  H    0.032084
    72  H    0.204944
    73  H    0.002168
    74  H    0.049820
    75  H    0.043474
    76  H    0.018660
    77  H    0.163424
    78  H    0.004264
    79  H    0.063216
 Sum of Mulliken charges =   0.00000

 Dipole moment (field-independent basis, Debye):
    X=             -2.0838    Y=              2.2463    Z=              3.2351  Tot=              4.4558
 Quadrupole moment (field-independent basis, Debye-Ang):
   XX=           -213.3676   YY=           -245.6480   ZZ=           -265.2356
   XY=              0.2900   XZ=             33.7624   YZ=             -3.3179

 Normal termination of Gaussian 09 at Tue Jul  9 17:46:27 2019.
