 Gaussian 09, Revision D.01,
 Gaussian 09:  ES64L-G09RevD.01 24-Apr-2013

 --------------------------
 # td=(NStates=1) B3LYP/SVP
 --------------------------

 --
 TD
 --
 Symbolic Z-matrix:
 Charge =  0 Multiplicity = 1

                         Standard orientation:
 ---------------------------------------------------------------------
 Center     Atomic      Atomic             Coordinates (Angstroms)
 Number     Number       Type             X           Y           Z
 ---------------------------------------------------------------------
      1          8           0        5.271470   -0.126460   -3.231904
      2          8           0       -2.878187   -3.290683    3.092084
      3          8           0       -3.364846   -1.125254    3.290955
      4          8           0       -1.611395    7.253381    1.514815
      5          8           0       -0.077339    6.763073   -0.210268
      6          8           0       -2.161375   -4.021005   -0.074190
      7          7           0        2.445123    0.780736    0.596396
      8          7           0        4.416401   -0.788429   -1.190228
      9          7           0       -1.879075    0.740439   -0.451214
     10          7           0       -2.744604   -1.828882   -0.517733
     11          6           0        4.884925   -1.377289    0.028574
     12          6           0        4.419650   -0.503842    1.371950
     13          6           0        2.963594   -0.174863    1.446861
     14          6           0        1.958337   -0.808398    2.105848
     15          6           0        0.812011   -0.209104    1.684111
     16          6           0        1.014515    0.872530    0.823961
     17          6           0        6.407822   -1.409264   -0.177777
     18          6           0       -0.546552   -0.429956    2.447955
     19          6           0        6.697861   -0.813006   -1.454574
     20          6           0        0.221439    1.859623    0.150264
     21          6           0       -1.063828    1.874439   -0.198902
     22          6           0        5.392532   -0.534643   -2.073666
     23          6           0       -1.863531    3.029019   -0.773094
     24          6           0        2.289592   -1.844040    3.020444
     25          6           0        7.446419   -1.989947    0.759202
     26          6           0       -3.069588    2.539600   -1.161433
     27          6           0       -1.116173   -1.755663    2.403567
     28          6           0       -3.069466    1.095794   -0.932294
     29          6           0       -1.265146    4.319920   -0.803933
     30          6           0        7.928610   -0.655697   -2.193509
     31          6           0       -1.628434    5.140796    0.536459
     32          6           0       -4.234493    3.179339   -1.809461
     33          6           0       -4.083811    0.107566   -1.232741
     34          6           0       -2.570232   -1.950962    2.925701
     35          6           0       -3.881970   -1.254289   -1.024411
     36          6           0        9.216299   -0.745367   -1.743372
     37          6           0       -1.000632    6.497773    0.562280
     38          6           0       -4.858209   -2.328729   -1.495619
     39          6           0       -4.233631   -3.543835   -1.190983
     40          6           0       -2.976874   -3.257335   -0.467833
     41          6           0       -6.181100   -1.989507   -1.992873
     42          6           0       -4.708237   -4.999433   -1.327618
     43          6           0       -6.964625   -2.791299   -2.747299
     44          1           0        4.542554   -2.413324    0.047615
     45          1           0        5.152981    0.373553    1.206510
     46          1           0        4.784351   -0.865163    2.240754
     47          1           0        2.763743    1.348901   -0.161364
     48          1           0        3.644104   -0.936168   -1.528146
     49          1           0       -0.240997   -0.099056    3.593808
     50          1           0       -1.301275    0.346397    2.054901
     51          1           0        0.475839    2.994489    0.026952
     52          1           0        3.291604   -2.032009    3.425130
     53          1           0        1.614373   -1.548627    4.002854
     54          1           0        1.879698   -2.912178    2.666041
     55          1           0        6.812079   -2.602665    1.449405
     56          1           0        7.599133   -1.266704    1.365571
     57          1           0        8.275400   -2.501533    0.306702
     58          1           0       -0.735815   -2.368171    1.249865
     59          1           0       -0.518220   -2.418336    3.252846
     60          1           0       -1.756939   -0.424011   -0.249652
     61          1           0       -1.679687    5.056704   -1.570740
     62          1           0       -0.147553    4.482728   -0.889338
     63          1           0        7.779036   -0.412360   -3.287707
     64          1           0       -1.281576    4.619473    1.582313
     65          1           0       -2.810284    5.245493    0.484616
     66          1           0       -4.161275    4.295075   -2.102531
     67          1           0       -5.140201    3.186911   -1.279282
     68          1           0       -4.252330    2.696198   -2.716031
     69          1           0       -4.943319    0.475418   -1.841437
     70          1           0        9.366267   -0.946500   -0.510808
     71          1           0       10.048345   -0.306929   -2.325782
     72          1           0       -3.752896   -3.248755    3.682866
     73          1           0       -6.409815   -0.897266   -1.826352
     74          1           0       -4.337816   -5.064694   -2.440578
     75          1           0       -4.215844   -5.678097   -0.470173
     76          1           0       -5.966377   -4.989958   -1.648609
     77          1           0       -1.379839    8.188403    1.774329
     78          1           0       -7.853869   -2.528016   -3.375739
     79          1           0       -6.257556   -3.700281   -3.096020
 ---------------------------------------------------------------------

 SCF Done:  E(RB3LYP) =  -1947.76118150     A.U. after   16 cycles

 Excitation energies and oscillator strengths:

 Excited State   1:      Singlet-A      2.1857 eV  567.26 nm  f=0.3800  <S**2>=0.000
     154 ->156         0.19678
     155 ->156         0.67251
 This state for optimization and/or second-order correction.
 Total Energy, E(TD-HF/TD-KS) =  -1947.68085911
 Copying the excited state density for this state as the 1-particle RhoCI density.

 The electronic state is 1-A.
 Alpha  occ. eigenvalues --  -19.19708 -19.15982 -19.13891 -19.11613 -19.10435
 Alpha  occ. eigenvalues --  -19.09207 -14.37812 -14.36071 -14.34617 -14.29028
 Alpha  occ. eigenvalues --  -10.33794 -10.30849 -10.27761 -10.26270 -10.26200
 Alpha  occ. eigenvalues --  -10.24753 -10.24071 -10.23306 -10.23255 -10.23244
 Alpha  occ. eigenvalues --  -10.23198 -10.23080 -10.22233 -10.22195 -10.21982
 Alpha  occ. eigenvalues --  -10.21732 -10.21559 -10.21537 -10.21361 -10.21122
 Alpha  occ. eigenvalues --  -10.20978 -10.20698 -10.20485 -10.20439 -10.20390
 Alpha  occ. eigenvalues --  -10.20261 -10.20177 -10.20158 -10.20112 -10.19750
 Alpha  occ. eigenvalues --  -10.19475 -10.19132 -10.18389  -1.08775  -1.06870
 Alpha  occ. eigenvalues --   -1.03038  -1.02594  -1.01397  -0.97759  -0.97596
 Alpha  occ. eigenvalues --   -0.97330  -0.95441  -0.90052  -0.83216  -0.82785
 Alpha  occ. eigenvalues --   -0.82431  -0.81725  -0.79517  -0.79317  -0.77627
 Alpha  occ. eigenvalues --   -0.77110  -0.76061  -0.75627  -0.74035  -0.73195
 Alpha  occ. eigenvalues --   -0.72762  -0.71840  -0.69745  -0.68889  -0.68065
 Alpha  occ. eigenvalues --   -0.66769  -0.64993  -0.63587  -0.62194  -0.61678
 Alpha  occ. eigenvalues --   -0.59980  -0.58627  -0.58450  -0.57460  -0.56231
 Alpha  occ. eigenvalues --   -0.55759  -0.55235  -0.54123  -0.53230  -0.53146
 Alpha  occ. eigenvalues --   -0.51507  -0.50888  -0.50209  -0.50097  -0.49417
 Alpha  occ. eigenvalues --   -0.49070  -0.48703  -0.48156  -0.47323  -0.47239
 Alpha  occ. eigenvalues --   -0.46907  -0.46650  -0.46128  -0.46000  -0.45852
 Alpha  occ. eigenvalues --   -0.45381  -0.45081  -0.44349  -0.43974  -0.43597
 Alpha  occ. eigenvalues --   -0.43423  -0.43367  -0.42870  -0.42400  -0.42185
 Alpha  occ. eigenvalues --   -0.41945  -0.41669  -0.41539  -0.41288  -0.40926
 Alpha  occ. eigenvalues --   -0.40580  -0.40368  -0.39753  -0.39444  -0.39254
 Alpha  occ. eigenvalues --   -0.38859  -0.38778  -0.38648  -0.38309  -0.38149
 Alpha  occ. eigenvalues --   -0.37824  -0.37314  -0.36949  -0.36841  -0.36780
 Alpha  occ. eigenvalues --   -0.36253  -0.34959  -0.34907  -0.34467  -0.33856
 Alpha  occ. eigenvalues --   -0.33630  -0.33530  -0.32566  -0.31343  -0.30668
 Alpha  occ. eigenvalues --   -0.30563  -0.30221  -0.29018  -0.28748  -0.27624
 Alpha  occ. eigenvalues --   -0.26933  -0.26754  -0.25858  -0.25177  -0.24881
 Alpha  occ. eigenvalues --   -0.24022  -0.23656  -0.23084  -0.21644  -0.19435
 Alpha virt. eigenvalues --   -0.10366  -0.06795  -0.06172  -0.01560  -0.00885
 Alpha virt. eigenvalues --    0.00347   0.00584   0.01111   0.02117   0.02566
 Alpha virt. eigenvalues --    0.03320   0.04111   0.04416   0.04653   0.05176

 Mulliken charges:
               1
     1  O   -0.248216
     2  O   -0.253149
     3  O   -0.217734
     4  O   -0.230994
     5  O   -0.238511
     6  O   -0.161921
     7  N   -0.111848
     8  N   -0.028189
     9  N   -0.169669
    10  N   -0.365207
    11  C    0.105593
    12  C    0.200705
    13  C   -0.048269
    14  C   -0.027069
    15  C   -0.118831
    16  C    0.111664
    17  C   -0.281382
    18  C    0.023543
    19  C   -0.024626
    20  C   -0.050027
    21  C    0.022226
    22  C    0.082573
    23  C    0.023821
    24  C   -0.002774
    25  C    0.240587
    26  C   -0.118087
    27  C   -0.137713
    28  C    0.056971
    29  C   -0.002612
    30  C   -0.032372
    31  C   -0.116983
    32  C    0.131620
    33  C   -0.138280
    34  C    0.182111
    35  C    0.143333
    36  C   -0.084741
    37  C    0.204184
    38  C    0.021430
    39  C   -0.204835
    40  C    0.164896
    41  C   -0.014800
    42  C   -0.025595
    43  C   -0.072264
    44  H    0.024116
    45  H    0.004055
    46  H   -0.043006
    47  H    0.114821
    48  H    0.036348
    49  H    0.032499
    50  H    0.030569
    51  H    0.019455
    52  H    0.018623
    53  H    0.028454
    54  H    0.053982
    55  H   -0.007895
    56  H   -0.034788
    57  H    0.060878
    58  H    0.123682
    59  H    0.047834
    60  H    0.232610
    61  H    0.021958
    62  H    0.053491
    63  H    0.032425
    64  H    0.077665
    65  H    0.060509
    66  H    0.007860
    67  H    0.021406
    68  H    0.015421
    69  H   -0.009707
    70  H    0.036079
    71  H    0.042045
    72  H    0.206932
    73  H    0.005827
    74  H    0.059531
    75  H    0.089904
    76  H    0.051226
    77  H    0.210637
    78  H    0.044821
    79  H    0.041176
 Sum of Mulliken charges =   0.00000

 Dipole moment (field-independent basis, Debye):
    X=              0.6425    Y=              4.0730    Z=              3.5002  Tot=              5.4086
 Quadrupole moment (field-independent basis, Debye-Ang):
   XX=           -230.2286   YY=           -233.5022   ZZ=           -259.0912
   XY=            -24.4275   XZ=             36.5466   YZ=              6.3838

 Normal termination of Gaussian 09 at Mon Jul  8 21:56:40 2019.
