 Gaussian 09, Revision D.01,
 Gaussian 09:  ES64L-G09RevD.01 24-Apr-2013

 --------------------------
 # td=(NStates=1) B3LYP/SVP
 --------------------------

 --
 TD
 --
 Symbolic Z-matrix:
 Charge =  0 Multiplicity = 1

                         Standard orientation:
 ---------------------------------------------------------------------
 Center     Atomic      Atomic             Coordinates (Angstroms)
 Number     Number       Type             X           Y           Z
 ---------------------------------------------------------------------
      1          8           0        5.507923   -0.055254   -3.288933
      2          8           0       -3.097792   -3.137830    2.834357
      3          8           0       -3.177765   -0.964085    3.316852
      4          8           0       -1.324530    7.014104    1.750304
      5          8           0       -0.221605    6.855841   -0.153177
      6          8           0       -2.185485   -4.042359   -0.174466
      7          7           0        2.398199    0.758918    0.582223
      8          7           0        4.542486   -0.610606   -1.308836
      9          7           0       -1.905302    0.684553   -0.536511
     10          7           0       -2.732023   -1.728100   -0.537889
     11          6           0        4.867050   -1.191431   -0.042116
     12          6           0        4.483483   -0.415406    1.205276
     13          6           0        2.985063   -0.282689    1.229109
     14          6           0        1.931462   -0.822131    2.143788
     15          6           0        0.765193   -0.187867    1.855265
     16          6           0        1.024585    0.794851    0.817490
     17          6           0        6.457436   -1.339150   -0.167415
     18          6           0       -0.576684   -0.467853    2.489504
     19          6           0        6.736263   -0.966754   -1.407508
     20          6           0        0.278078    1.823429    0.136808
     21          6           0       -1.065330    1.751263   -0.350299
     22          6           0        5.604289   -0.449321   -2.243873
     23          6           0       -1.828325    2.969386   -0.771367
     24          6           0        2.186461   -1.987613    3.008330
     25          6           0        7.112144   -2.104623    0.919626
     26          6           0       -3.070925    2.524594   -1.190910
     27          6           0       -1.247920   -1.911433    2.312045
     28          6           0       -3.151114    1.086587   -0.967822
     29          6           0       -1.299443    4.370467   -0.694941
     30          6           0        8.126611   -0.868277   -2.052730
     31          6           0       -1.631290    5.030379    0.508357
     32          6           0       -4.213507    3.405480   -1.858574
     33          6           0       -4.060895    0.177200   -1.275735
     34          6           0       -2.497268   -1.909209    2.901343
     35          6           0       -3.850652   -1.274591   -1.122802
     36          6           0        9.362816   -0.773488   -1.412822
     37          6           0       -1.039694    6.388182    0.607284
     38          6           0       -4.943141   -2.287780   -1.413510
     39          6           0       -4.339150   -3.426086   -1.142117
     40          6           0       -2.901537   -3.147588   -0.558003
     41          6           0       -6.267260   -1.979759   -1.927898
     42          6           0       -4.826030   -4.836717   -1.261166
     43          6           0       -7.118418   -2.810562   -2.484660
     44          1           0        4.737268   -2.417894    0.097090
     45          1           0        5.016700    0.520609    1.163549
     46          1           0        4.865569   -0.889949    2.215025
     47          1           0        3.040824    1.318282   -0.135868
     48          1           0        3.543179   -0.701283   -1.622165
     49          1           0       -0.461935   -0.256042    3.600850
     50          1           0       -1.350825    0.378898    2.221016
     51          1           0        0.834491    2.738089   -0.355432
     52          1           0        3.179553   -2.084788    3.196902
     53          1           0        1.485019   -2.103490    3.980251
     54          1           0        2.150962   -2.971067    2.452055
     55          1           0        6.446827   -2.802989    1.401291
     56          1           0        7.220534   -1.198649    1.781435
     57          1           0        8.105815   -2.617253    0.716791
     58          1           0       -1.319998   -2.334525    1.306951
     59          1           0       -0.546384   -2.527818    2.852980
     60          1           0       -1.555633   -0.404171   -0.540827
     61          1           0       -1.823678    5.012816   -1.536427
     62          1           0       -0.294892    4.595971   -1.005266
     63          1           0        8.023565   -0.897994   -3.099508
     64          1           0       -1.257815    4.331273    1.341351
     65          1           0       -2.707971    5.182883    0.768153
     66          1           0       -3.726621    4.512025   -1.781961
     67          1           0       -5.179520    3.387682   -1.386108
     68          1           0       -4.339215    3.145618   -2.984741
     69          1           0       -4.857748    0.635293   -1.771228
     70          1           0        9.627969   -0.986828   -0.304310
     71          1           0       10.140478   -0.601688   -2.165634
     72          1           0       -3.908971   -3.098776    3.128478
     73          1           0       -6.348124   -0.888572   -1.975544
     74          1           0       -4.809462   -5.092962   -2.316541
     75          1           0       -4.112710   -5.519331   -0.645485
     76          1           0       -5.831287   -5.006955   -0.855781
     77          1           0       -0.898671    7.899447    1.453015
     78          1           0       -8.233774   -2.698809   -3.107849
     79          1           0       -6.937113   -3.942676   -2.486654
 ---------------------------------------------------------------------

 SCF Done:  E(RB3LYP) =  -1947.84572899     A.U. after   16 cycles

 Excitation energies and oscillator strengths:

 Excited State   1:      Singlet-A      2.0601 eV  601.82 nm  f=0.5579  <S**2>=0.000
     155 ->156         0.71139
     155 <-156        -0.13821
 This state for optimization and/or second-order correction.
 Total Energy, E(TD-HF/TD-KS) =  -1947.77002007
 Copying the excited state density for this state as the 1-particle RhoCI density.

 The electronic state is 1-A.
 Alpha  occ. eigenvalues --  -19.19146 -19.14759 -19.13427 -19.12802 -19.11617
 Alpha  occ. eigenvalues --  -19.10547 -14.39841 -14.35484 -14.35433 -14.30578
 Alpha  occ. eigenvalues --  -10.32247 -10.30012 -10.29633 -10.27526 -10.26022
 Alpha  occ. eigenvalues --  -10.24604 -10.23780 -10.23701 -10.23606 -10.23241
 Alpha  occ. eigenvalues --  -10.23159 -10.23040 -10.22420 -10.22340 -10.21763
 Alpha  occ. eigenvalues --  -10.21279 -10.21014 -10.20975 -10.20943 -10.20813
 Alpha  occ. eigenvalues --  -10.20754 -10.20368 -10.20343 -10.20146 -10.20122
 Alpha  occ. eigenvalues --  -10.20027 -10.19707 -10.19653 -10.19506 -10.19083
 Alpha  occ. eigenvalues --  -10.18606 -10.18497 -10.17978  -1.11476  -1.09542
 Alpha  occ. eigenvalues --   -1.08365  -1.02562  -1.00965  -0.98434  -0.97953
 Alpha  occ. eigenvalues --   -0.96819  -0.94569  -0.92181  -0.83598  -0.81755
 Alpha  occ. eigenvalues --   -0.81597  -0.81218  -0.80821  -0.79482  -0.78105
 Alpha  occ. eigenvalues --   -0.77730  -0.76479  -0.75194  -0.74479  -0.72421
 Alpha  occ. eigenvalues --   -0.71534  -0.70561  -0.69501  -0.67922  -0.67623
 Alpha  occ. eigenvalues --   -0.67343  -0.65199  -0.63494  -0.60586  -0.60072
 Alpha  occ. eigenvalues --   -0.59483  -0.58944  -0.58176  -0.57876  -0.57093
 Alpha  occ. eigenvalues --   -0.55676  -0.55148  -0.54451  -0.53870  -0.53012
 Alpha  occ. eigenvalues --   -0.51994  -0.51253  -0.50736  -0.50419  -0.50198
 Alpha  occ. eigenvalues --   -0.49880  -0.49396  -0.48415  -0.48079  -0.47757
 Alpha  occ. eigenvalues --   -0.47116  -0.46381  -0.46172  -0.45683  -0.45527
 Alpha  occ. eigenvalues --   -0.45291  -0.45076  -0.44669  -0.44286  -0.44078
 Alpha  occ. eigenvalues --   -0.43968  -0.43638  -0.43281  -0.42760  -0.42427
 Alpha  occ. eigenvalues --   -0.42244  -0.41997  -0.41887  -0.41677  -0.41666
 Alpha  occ. eigenvalues --   -0.40912  -0.40840  -0.40547  -0.40215  -0.39699
 Alpha  occ. eigenvalues --   -0.39585  -0.39097  -0.38780  -0.38361  -0.38323
 Alpha  occ. eigenvalues --   -0.37962  -0.37945  -0.37679  -0.37203  -0.37010
 Alpha  occ. eigenvalues --   -0.36474  -0.35915  -0.35289  -0.34902  -0.33251
 Alpha  occ. eigenvalues --   -0.33150  -0.32945  -0.32391  -0.32370  -0.31423
 Alpha  occ. eigenvalues --   -0.30474  -0.30077  -0.29416  -0.29230  -0.28834
 Alpha  occ. eigenvalues --   -0.28476  -0.27258  -0.26233  -0.25543  -0.25421
 Alpha  occ. eigenvalues --   -0.24382  -0.24331  -0.23959  -0.23190  -0.17892
 Alpha virt. eigenvalues --   -0.10277  -0.05757  -0.05630  -0.01096  -0.00761
 Alpha virt. eigenvalues --    0.00065   0.00120   0.00940   0.01965   0.02463
 Alpha virt. eigenvalues --    0.03250   0.03897   0.04519   0.04699   0.05460

 Mulliken charges:
               1
     1  O   -0.079318
     2  O   -0.133064
     3  O   -0.259473
     4  O   -0.182394
     5  O   -0.243786
     6  O   -0.187631
     7  N   -0.110576
     8  N   -0.258099
     9  N   -0.143668
    10  N   -0.315922
    11  C   -0.012978
    12  C    0.138495
    13  C   -0.059947
    14  C   -0.131225
    15  C   -0.045724
    16  C    0.096911
    17  C   -0.133199
    18  C   -0.018861
    19  C   -0.145986
    20  C   -0.129844
    21  C    0.047236
    22  C    0.167174
    23  C   -0.067064
    24  C    0.116720
    25  C    0.044321
    26  C   -0.107782
    27  C    0.095949
    28  C    0.119461
    29  C    0.058235
    30  C    0.007356
    31  C   -0.001294
    32  C    0.035365
    33  C   -0.104885
    34  C    0.107299
    35  C    0.111488
    36  C   -0.043332
    37  C    0.124400
    38  C    0.044655
    39  C   -0.244123
    40  C    0.192284
    41  C    0.068488
    42  C    0.068232
    43  C   -0.119709
    44  H    0.044539
    45  H   -0.002247
    46  H    0.032113
    47  H    0.165861
    48  H    0.138986
    49  H    0.018264
    50  H    0.042702
    51  H    0.027095
    52  H   -0.054935
    53  H    0.050154
    54  H    0.022400
    55  H    0.024141
    56  H    0.048475
    57  H    0.055006
    58  H    0.067566
    59  H    0.012800
    60  H    0.216316
    61  H    0.009537
    62  H    0.013670
    63  H   -0.002407
    64  H    0.057815
    65  H    0.038875
    66  H    0.028754
    67  H    0.034190
    68  H    0.048592
    69  H   -0.062988
    70  H    0.046725
    71  H    0.033062
    72  H    0.111488
    73  H   -0.013811
    74  H    0.031981
    75  H    0.041082
    76  H    0.027669
    77  H    0.192468
    78  H    0.060894
    79  H    0.028987
 Sum of Mulliken charges =   0.00000

 Dipole moment (field-independent basis, Debye):
    X=              2.2636    Y=              0.9402    Z=              1.2942  Tot=              2.7718
 Quadrupole moment (field-independent basis, Debye-Ang):
   XX=           -222.8801   YY=           -248.7233   ZZ=           -263.5881
   XY=            -15.2078   XZ=             32.5964   YZ=             -0.2798

 Normal termination of Gaussian 09 at Mon Jul  8 20:54:34 2019.
