 Gaussian 09, Revision D.01,
 Gaussian 09:  ES64L-G09RevD.01 24-Apr-2013

 --------------------------
 # td=(NStates=1) B3LYP/SVP
 --------------------------

 --
 TD
 --
 Symbolic Z-matrix:
 Charge =  0 Multiplicity = 1

                         Standard orientation:
 ---------------------------------------------------------------------
 Center     Atomic      Atomic             Coordinates (Angstroms)
 Number     Number       Type             X           Y           Z
 ---------------------------------------------------------------------
      1          8           0        5.652795   -0.242679   -3.319170
      2          8           0       -2.824518   -3.219675    3.143915
      3          8           0       -3.186231   -0.978761    3.267914
      4          8           0       -1.520772    7.233913    1.555790
      5          8           0       -0.390557    7.019468   -0.373801
      6          8           0       -2.320485   -4.092187   -0.042159
      7          7           0        2.403142    0.752382    0.447969
      8          7           0        4.580046   -0.674487   -1.379178
      9          7           0       -1.939941    0.639992   -0.492780
     10          7           0       -2.766121   -1.819524   -0.653429
     11          6           0        4.902470   -1.317847   -0.051833
     12          6           0        4.452620   -0.455203    1.152138
     13          6           0        3.023411   -0.185294    1.224855
     14          6           0        1.989101   -0.763837    2.108689
     15          6           0        0.801097   -0.051911    1.699949
     16          6           0        1.068438    0.830220    0.643785
     17          6           0        6.410698   -1.432831   -0.139839
     18          6           0       -0.478087   -0.312785    2.407434
     19          6           0        6.877719   -0.899913   -1.379488
     20          6           0        0.194770    1.809353   -0.076624
     21          6           0       -1.087098    1.754635   -0.408406
     22          6           0        5.768654   -0.590593   -2.124096
     23          6           0       -1.952681    2.908290   -0.768689
     24          6           0        2.232675   -1.736090    3.119167
     25          6           0        7.240041   -1.851330    0.949695
     26          6           0       -3.119029    2.448935   -1.193690
     27          6           0       -1.081414   -1.768750    2.380187
     28          6           0       -3.216466    1.031113   -0.903107
     29          6           0       -1.421429    4.319365   -0.786064
     30          6           0        8.167348   -0.724927   -1.915177
     31          6           0       -1.601886    5.093584    0.603112
     32          6           0       -4.350741    3.262386   -1.641135
     33          6           0       -4.110255    0.032591   -1.190598
     34          6           0       -2.428776   -1.934875    3.108139
     35          6           0       -3.935205   -1.312784   -1.086694
     36          6           0        9.455230   -0.772450   -1.372076
     37          6           0       -1.065408    6.467643    0.548986
     38          6           0       -4.913754   -2.352198   -1.415403
     39          6           0       -4.409550   -3.558877   -1.131006
     40          6           0       -3.011217   -3.230810   -0.541651
     41          6           0       -6.348652   -2.004371   -1.885317
     42          6           0       -4.838536   -4.990824   -1.173908
     43          6           0       -6.983113   -2.901356   -2.766775
     44          1           0        4.390018   -2.234660    0.119805
     45          1           0        4.944043    0.640654    1.228153
     46          1           0        4.819352   -0.759138    2.110352
     47          1           0        2.892872    1.178977   -0.386391
     48          1           0        3.708732   -0.786004   -1.870318
     49          1           0       -0.399362   -0.011437    3.478888
     50          1           0       -1.399241    0.460516    2.127579
     51          1           0        0.859707    2.779857   -0.292546
     52          1           0        3.163678   -1.804585    3.540431
     53          1           0        1.543690   -1.525674    3.923930
     54          1           0        2.012169   -2.838428    2.748741
     55          1           0        6.596274   -2.707542    1.558568
     56          1           0        7.528443   -1.041213    1.556906
     57          1           0        8.232825   -2.272384    0.584319
     58          1           0       -1.035774   -2.269140    1.380672
     59          1           0       -0.337611   -2.426670    2.930253
     60          1           0       -1.898195   -0.419553   -0.270673
     61          1           0       -1.945129    4.810412   -1.544958
     62          1           0       -0.264745    4.351556   -1.026930
     63          1           0        8.109933   -0.610309   -3.037017
     64          1           0       -1.320859    4.473320    1.218148
     65          1           0       -2.557424    5.303157    0.866446
     66          1           0       -4.180550    4.388073   -1.698306
     67          1           0       -5.139859    3.313431   -0.921543
     68          1           0       -4.636737    2.860980   -2.681549
     69          1           0       -4.914683    0.539093   -1.524005
     70          1           0        9.639623   -0.837524   -0.299138
     71          1           0       10.246355   -0.751617   -2.310329
     72          1           0       -3.809770   -3.278383    3.365501
     73          1           0       -6.877891   -1.035279   -1.530776
     74          1           0       -4.798356   -5.349547   -2.268799
     75          1           0       -4.217974   -5.596045   -0.647390
     76          1           0       -5.895761   -5.142124   -0.838345
     77          1           0       -1.279273    8.090871    1.541550
     78          1           0       -7.943766   -2.627809   -3.075554
     79          1           0       -6.442335   -3.764562   -3.341022
 ---------------------------------------------------------------------

 SCF Done:  E(RB3LYP) =  -1947.86915304     A.U. after   16 cycles

 Excitation energies and oscillator strengths:

 Excited State   1:      Singlet-A      2.2231 eV  557.72 nm  f=0.4994  <S**2>=0.000
     155 ->156         0.69998
 This state for optimization and/or second-order correction.
 Total Energy, E(TD-HF/TD-KS) =  -1947.78745677
 Copying the excited state density for this state as the 1-particle RhoCI density.

 The electronic state is 1-A.
 Alpha  occ. eigenvalues --  -19.18445 -19.17566 -19.12678 -19.11194 -19.10860
 Alpha  occ. eigenvalues --  -19.09059 -14.38600 -14.35093 -14.34982 -14.29511
 Alpha  occ. eigenvalues --  -10.33398 -10.30996 -10.27576 -10.26845 -10.25764
 Alpha  occ. eigenvalues --  -10.24131 -10.23908 -10.23785 -10.22963 -10.22805
 Alpha  occ. eigenvalues --  -10.22710 -10.22528 -10.22489 -10.22271 -10.21978
 Alpha  occ. eigenvalues --  -10.21871 -10.21526 -10.21204 -10.21076 -10.20911
 Alpha  occ. eigenvalues --  -10.20876 -10.20554 -10.20198 -10.20097 -10.19893
 Alpha  occ. eigenvalues --  -10.19564 -10.19539 -10.19312 -10.19088 -10.19058
 Alpha  occ. eigenvalues --  -10.18918 -10.18650 -10.17467  -1.10741  -1.07607
 Alpha  occ. eigenvalues --   -1.01797  -1.01097  -0.98723  -0.98640  -0.98356
 Alpha  occ. eigenvalues --   -0.96773  -0.92472  -0.91907  -0.83239  -0.83203
 Alpha  occ. eigenvalues --   -0.81601  -0.80910  -0.80189  -0.79889  -0.78956
 Alpha  occ. eigenvalues --   -0.77678  -0.75953  -0.75132  -0.74032  -0.72831
 Alpha  occ. eigenvalues --   -0.72714  -0.71700  -0.70038  -0.69560  -0.69071
 Alpha  occ. eigenvalues --   -0.66569  -0.66107  -0.64776  -0.63632  -0.61787
 Alpha  occ. eigenvalues --   -0.59611  -0.58808  -0.58241  -0.57830  -0.56465
 Alpha  occ. eigenvalues --   -0.56255  -0.55452  -0.54225  -0.53756  -0.53067
 Alpha  occ. eigenvalues --   -0.52922  -0.51616  -0.51549  -0.51125  -0.50124
 Alpha  occ. eigenvalues --   -0.49058  -0.48825  -0.48211  -0.47844  -0.47629
 Alpha  occ. eigenvalues --   -0.47202  -0.46646  -0.46590  -0.46262  -0.45763
 Alpha  occ. eigenvalues --   -0.45510  -0.45168  -0.44723  -0.44341  -0.43484
 Alpha  occ. eigenvalues --   -0.43194  -0.42879  -0.42632  -0.42217  -0.41887
 Alpha  occ. eigenvalues --   -0.41862  -0.41736  -0.41257  -0.41029  -0.40760
 Alpha  occ. eigenvalues --   -0.40556  -0.40443  -0.40360  -0.40095  -0.39544
 Alpha  occ. eigenvalues --   -0.39334  -0.39212  -0.38916  -0.38854  -0.38502
 Alpha  occ. eigenvalues --   -0.38473  -0.38119  -0.37802  -0.37290  -0.36748
 Alpha  occ. eigenvalues --   -0.36534  -0.36269  -0.35847  -0.35245  -0.35079
 Alpha  occ. eigenvalues --   -0.34527  -0.33773  -0.32021  -0.31526  -0.30848
 Alpha  occ. eigenvalues --   -0.30720  -0.30127  -0.28338  -0.28198  -0.28021
 Alpha  occ. eigenvalues --   -0.26481  -0.26307  -0.26073  -0.24888  -0.24271
 Alpha  occ. eigenvalues --   -0.24014  -0.23839  -0.23372  -0.22454  -0.19169
 Alpha virt. eigenvalues --   -0.10368  -0.08025  -0.05300  -0.01600  -0.01208
 Alpha virt. eigenvalues --   -0.00258   0.00118   0.00781   0.02757   0.03322
 Alpha virt. eigenvalues --    0.03601   0.04459   0.04980   0.05261   0.05420

 Mulliken charges:
               1
     1  O   -0.261861
     2  O   -0.190211
     3  O   -0.254430
     4  O   -0.130666
     5  O   -0.278023
     6  O   -0.194576
     7  N   -0.048023
     8  N   -0.216690
     9  N   -0.154909
    10  N   -0.321577
    11  C    0.177612
    12  C    0.124834
    13  C   -0.118954
    14  C   -0.112820
    15  C   -0.059789
    16  C    0.023668
    17  C   -0.164657
    18  C   -0.026005
    19  C    0.029540
    20  C   -0.147823
    21  C    0.194132
    22  C    0.129303
    23  C   -0.076123
    24  C    0.121223
    25  C    0.041738
    26  C   -0.105918
    27  C   -0.027649
    28  C    0.034974
    29  C    0.066824
    30  C   -0.071627
    31  C    0.175551
    32  C    0.056922
    33  C   -0.050522
    34  C    0.163178
    35  C    0.176923
    36  C   -0.057610
    37  C    0.147526
    38  C    0.024041
    39  C   -0.209258
    40  C    0.165360
    41  C   -0.056924
    42  C    0.137882
    43  C   -0.034072
    44  H    0.011988
    45  H    0.012845
    46  H   -0.016273
    47  H    0.134107
    48  H    0.126154
    49  H    0.006291
    50  H    0.034751
    51  H    0.028659
    52  H   -0.028732
    53  H    0.011728
    54  H    0.040915
    55  H    0.045907
    56  H    0.040831
    57  H    0.048279
    58  H    0.074791
    59  H    0.004693
    60  H    0.182203
    61  H   -0.002703
    62  H    0.049018
    63  H    0.032538
    64  H   -0.046275
    65  H   -0.000939
    66  H    0.011724
    67  H    0.030703
    68  H    0.051320
    69  H   -0.099615
    70  H    0.022089
    71  H    0.067928
    72  H    0.200587
    73  H    0.043169
    74  H    0.032021
    75  H   -0.005322
    76  H    0.024514
    77  H    0.143295
    78  H    0.010292
    79  H    0.056008
 Sum of Mulliken charges =   0.00000

 Dipole moment (field-independent basis, Debye):
    X=              0.2226    Y=              1.3734    Z=              3.8843  Tot=              4.1259
 Quadrupole moment (field-independent basis, Debye-Ang):
   XX=           -214.5162   YY=           -246.5270   ZZ=           -263.8454
   XY=            -17.9141   XZ=             34.7026   YZ=              6.3048

 Normal termination of Gaussian 09 at Wed Jul 10 18:26:18 2019.
