 Gaussian 09, Revision D.01,
 Gaussian 09:  ES64L-G09RevD.01 24-Apr-2013

 --------------------------
 # td=(NStates=1) B3LYP/SVP
 --------------------------

 --
 TD
 --
 Symbolic Z-matrix:
 Charge =  0 Multiplicity = 1

                         Standard orientation:
 ---------------------------------------------------------------------
 Center     Atomic      Atomic             Coordinates (Angstroms)
 Number     Number       Type             X           Y           Z
 ---------------------------------------------------------------------
      1          8           0        5.243120   -0.389496   -3.318331
      2          8           0       -2.924086   -2.956242    3.380611
      3          8           0       -3.292404   -0.729820    3.077719
      4          8           0       -1.523560    7.258318    1.362290
      5          8           0       -0.409322    6.941488   -0.478401
      6          8           0       -2.024155   -4.109525   -0.032381
      7          7           0        2.397290    0.942734    0.683699
      8          7           0        4.295299   -0.683702   -1.211686
      9          7           0       -1.867348    0.632692   -0.404099
     10          7           0       -2.630765   -1.930421   -0.426808
     11          6           0        4.830412   -1.146486    0.075878
     12          6           0        4.523872   -0.270965    1.222172
     13          6           0        3.001210   -0.089202    1.392912
     14          6           0        2.096586   -0.706592    2.102153
     15          6           0        0.745889   -0.045645    1.820425
     16          6           0        1.036849    0.993392    0.859163
     17          6           0        6.279709   -1.453358   -0.251890
     18          6           0       -0.541435   -0.258534    2.573085
     19          6           0        6.630423   -0.899465   -1.434439
     20          6           0        0.256909    1.919695    0.184505
     21          6           0       -1.078895    1.835148   -0.342586
     22          6           0        5.344969   -0.654457   -2.161568
     23          6           0       -1.834417    2.936580   -0.935371
     24          6           0        2.305819   -1.678177    3.234307
     25          6           0        7.219062   -1.886028    0.884467
     26          6           0       -3.147671    2.364297   -1.281928
     27          6           0       -1.137004   -1.621330    2.600419
     28          6           0       -3.058728    0.904682   -0.967717
     29          6           0       -1.444670    4.394416   -0.905411
     30          6           0        7.922006   -0.817664   -2.114942
     31          6           0       -1.751621    5.102020    0.363675
     32          6           0       -4.307667    3.056459   -1.933269
     33          6           0       -4.013978   -0.122485   -1.279394
     34          6           0       -2.561482   -1.674664    2.914772
     35          6           0       -3.726244   -1.415801   -1.047527
     36          6           0        9.289380   -0.908998   -1.736168
     37          6           0       -1.136573    6.496853    0.391501
     38          6           0       -4.692089   -2.484376   -1.438352
     39          6           0       -4.082861   -3.621567   -1.025367
     40          6           0       -2.830693   -3.306612   -0.421215
     41          6           0       -6.050800   -2.226097   -2.070314
     42          6           0       -4.647103   -5.007402   -1.178349
     43          6           0       -6.778627   -3.238196   -2.662030
     44          1           0        4.240376   -2.011580    0.355604
     45          1           0        4.914070    0.769740    1.035016
     46          1           0        4.923529   -0.780447    2.167256
     47          1           0        2.966691    1.602834    0.223223
     48          1           0        3.402089   -0.671256   -1.392979
     49          1           0       -0.449190    0.364684    3.579664
     50          1           0       -1.230797    0.461789    1.900155
     51          1           0        0.798756    2.794122    0.059717
     52          1           0        3.336377   -1.731932    3.452555
     53          1           0        1.715736   -1.506935    4.089789
     54          1           0        2.052333   -2.710190    3.073513
     55          1           0        6.869929   -2.743906    1.387747
     56          1           0        7.302745   -1.049255    1.685693
     57          1           0        8.098333   -2.146709    0.460564
     58          1           0       -0.996989   -1.838831    1.636140
     59          1           0       -0.411787   -2.652680    3.006007
     60          1           0       -1.671683   -0.387911    0.064076
     61          1           0       -1.741442    4.851767   -1.770537
     62          1           0       -0.434156    4.475189   -1.100756
     63          1           0        7.778576   -0.790478   -3.106455
     64          1           0       -1.406926    4.449931    1.139616
     65          1           0       -2.669623    5.299866    0.692535
     66          1           0       -4.047415    4.091477   -2.378882
     67          1           0       -5.077428    3.079976   -1.127542
     68          1           0       -4.818345    2.459604   -2.830731
     69          1           0       -4.785973    0.185859   -2.031046
     70          1           0        9.533640   -1.017147   -0.713771
     71          1           0       10.276852   -0.908148   -2.302309
     72          1           0       -3.794193   -2.809799    3.713614
     73          1           0       -6.510259   -1.217604   -1.992607
     74          1           0       -4.479251   -5.692029   -2.222501
     75          1           0       -4.191086   -5.663901   -0.541498
     76          1           0       -5.891344   -4.947173   -0.871772
     77          1           0       -1.149626    8.031370    1.389598
     78          1           0       -7.926772   -3.097857   -3.009978
     79          1           0       -6.407046   -4.205991   -2.728113
 ---------------------------------------------------------------------

 SCF Done:  E(RB3LYP) =  -1947.82640348     A.U. after   19 cycles

 Excitation energies and oscillator strengths:

 Excited State   1:      Singlet-A      2.1034 eV  589.45 nm  f=0.3800  <S**2>=0.000
     154 ->156         0.20805
     155 ->156         0.67348
     155 <-156        -0.11615
 This state for optimization and/or second-order correction.
 Total Energy, E(TD-HF/TD-KS) =  -1947.74910575
 Copying the excited state density for this state as the 1-particle RhoCI density.

 The electronic state is 1-A.
 Alpha  occ. eigenvalues --  -19.19230 -19.15769 -19.12647 -19.12362 -19.10286
 Alpha  occ. eigenvalues --  -19.08953 -14.38202 -14.37649 -14.34175 -14.28410
 Alpha  occ. eigenvalues --  -10.32962 -10.31225 -10.28769 -10.25926 -10.25433
 Alpha  occ. eigenvalues --  -10.24836 -10.24371 -10.23985 -10.23236 -10.23113
 Alpha  occ. eigenvalues --  -10.22784 -10.22664 -10.22527 -10.22403 -10.22200
 Alpha  occ. eigenvalues --  -10.22039 -10.21550 -10.21094 -10.21085 -10.20949
 Alpha  occ. eigenvalues --  -10.20929 -10.20714 -10.20695 -10.20385 -10.20028
 Alpha  occ. eigenvalues --  -10.19984 -10.19976 -10.19891 -10.19642 -10.19563
 Alpha  occ. eigenvalues --  -10.18887 -10.18720 -10.18369  -1.14370  -1.07626
 Alpha  occ. eigenvalues --   -1.03782  -1.01634  -1.01345  -0.99346  -0.99288
 Alpha  occ. eigenvalues --   -0.97142  -0.94391  -0.91455  -0.83795  -0.82707
 Alpha  occ. eigenvalues --   -0.82560  -0.81832  -0.79832  -0.79207  -0.78643
 Alpha  occ. eigenvalues --   -0.78295  -0.77286  -0.75430  -0.74301  -0.73292
 Alpha  occ. eigenvalues --   -0.72469  -0.72421  -0.70971  -0.69234  -0.68424
 Alpha  occ. eigenvalues --   -0.67589  -0.66169  -0.65066  -0.63665  -0.62436
 Alpha  occ. eigenvalues --   -0.60668  -0.59211  -0.58729  -0.58059  -0.56789
 Alpha  occ. eigenvalues --   -0.56620  -0.56056  -0.55006  -0.54372  -0.54072
 Alpha  occ. eigenvalues --   -0.52625  -0.51825  -0.51679  -0.51332  -0.50698
 Alpha  occ. eigenvalues --   -0.50003  -0.49405  -0.49080  -0.48698  -0.47664
 Alpha  occ. eigenvalues --   -0.47207  -0.47142  -0.46987  -0.46207  -0.45633
 Alpha  occ. eigenvalues --   -0.45074  -0.44799  -0.44191  -0.44163  -0.44008
 Alpha  occ. eigenvalues --   -0.43654  -0.43249  -0.43168  -0.42928  -0.42731
 Alpha  occ. eigenvalues --   -0.42610  -0.42368  -0.42189  -0.41556  -0.41508
 Alpha  occ. eigenvalues --   -0.41286  -0.41034  -0.40508  -0.40322  -0.39919
 Alpha  occ. eigenvalues --   -0.39904  -0.39481  -0.39440  -0.39047  -0.38751
 Alpha  occ. eigenvalues --   -0.38622  -0.38510  -0.37988  -0.37567  -0.37471
 Alpha  occ. eigenvalues --   -0.36740  -0.35844  -0.35475  -0.34833  -0.34286
 Alpha  occ. eigenvalues --   -0.34102  -0.33904  -0.33355  -0.31547  -0.31387
 Alpha  occ. eigenvalues --   -0.31065  -0.30638  -0.28737  -0.28498  -0.27760
 Alpha  occ. eigenvalues --   -0.27042  -0.26484  -0.25990  -0.25659  -0.24905
 Alpha  occ. eigenvalues --   -0.24336  -0.23924  -0.23432  -0.22292  -0.19574
 Alpha virt. eigenvalues --   -0.11398  -0.06835  -0.06395  -0.00979  -0.00361
 Alpha virt. eigenvalues --   -0.00157   0.00566   0.00812   0.02616   0.03803
 Alpha virt. eigenvalues --    0.03965   0.04400   0.04621   0.05498   0.05666

 Mulliken charges:
               1
     1  O   -0.183506
     2  O   -0.208188
     3  O   -0.215880
     4  O   -0.050012
     5  O   -0.243326
     6  O   -0.186535
     7  N   -0.065965
     8  N   -0.181226
     9  N   -0.159672
    10  N   -0.311549
    11  C    0.118045
    12  C    0.207818
    13  C   -0.121268
    14  C   -0.116378
    15  C   -0.148270
    16  C    0.104578
    17  C   -0.168309
    18  C   -0.019186
    19  C   -0.041529
    20  C   -0.060598
    21  C    0.110783
    22  C    0.158632
    23  C   -0.132765
    24  C    0.163554
    25  C    0.134487
    26  C   -0.128718
    27  C    0.071577
    28  C    0.102109
    29  C    0.231706
    30  C    0.025623
    31  C    0.096078
    32  C    0.025278
    33  C   -0.164930
    34  C    0.161090
    35  C    0.136843
    36  C   -0.045164
    37  C    0.073293
    38  C    0.035363
    39  C   -0.152450
    40  C    0.124861
    41  C   -0.020388
    42  C    0.009048
    43  C   -0.033143
    44  H   -0.006540
    45  H   -0.012612
    46  H    0.016344
    47  H    0.096111
    48  H    0.071014
    49  H    0.039530
    50  H    0.034262
    51  H   -0.036978
    52  H   -0.027399
    53  H    0.005835
    54  H    0.005485
    55  H    0.000961
    56  H    0.052705
    57  H   -0.007505
    58  H   -0.000569
    59  H    0.071912
    60  H    0.225105
    61  H   -0.027927
    62  H   -0.027062
    63  H   -0.025220
    64  H    0.020961
    65  H   -0.017644
    66  H    0.043808
    67  H    0.044145
    68  H    0.049700
    69  H   -0.001737
    70  H    0.000971
    71  H    0.052832
    72  H    0.153880
    73  H    0.012041
    74  H    0.051224
    75  H   -0.010935
    76  H    0.045174
    77  H    0.119833
    78  H    0.044310
    79  H    0.012175
 Sum of Mulliken charges =   0.00000

 Dipole moment (field-independent basis, Debye):
    X=              1.3812    Y=              4.5107    Z=              4.2012  Tot=              6.3170
 Quadrupole moment (field-independent basis, Debye-Ang):
   XX=           -217.3724   YY=           -246.8020   ZZ=           -263.1325
   XY=            -15.7478   XZ=             32.7499   YZ=              5.1632

 Normal termination of Gaussian 09 at Tue Jul  9 05:56:38 2019.
