 Gaussian 09, Revision D.01,
 Gaussian 09:  ES64L-G09RevD.01 24-Apr-2013

 --------------------------
 # td=(NStates=1) B3LYP/SVP
 --------------------------

 --
 TD
 --
 Symbolic Z-matrix:
 Charge =  0 Multiplicity = 1

                         Standard orientation:
 ---------------------------------------------------------------------
 Center     Atomic      Atomic             Coordinates (Angstroms)
 Number     Number       Type             X           Y           Z
 ---------------------------------------------------------------------
      1          8           0        5.476062   -0.207948   -3.252848
      2          8           0       -3.153624   -3.008973    2.996379
      3          8           0       -3.332190   -0.829589    3.004500
      4          8           0       -1.141096    7.306130    1.473292
      5          8           0        0.060517    6.829563   -0.314830
      6          8           0       -2.357832   -3.958045    0.019244
      7          7           0        2.461403    0.817226    0.719753
      8          7           0        4.546899   -0.751322   -1.271532
      9          7           0       -1.913645    0.716958   -0.385591
     10          7           0       -2.817847   -1.742445   -0.637133
     11          6           0        4.975922   -1.318345   -0.037185
     12          6           0        4.444636   -0.507733    1.336794
     13          6           0        3.059169   -0.232722    1.417986
     14          6           0        2.027232   -0.820999    2.099287
     15          6           0        0.797371   -0.095503    1.692829
     16          6           0        1.110240    0.810042    0.817908
     17          6           0        6.412935   -1.546135   -0.095462
     18          6           0       -0.561909   -0.346174    2.416160
     19          6           0        6.798975   -1.049057   -1.380466
     20          6           0        0.204298    1.832392    0.213923
     21          6           0       -1.038479    1.848124   -0.300725
     22          6           0        5.621789   -0.621280   -2.152203
     23          6           0       -1.778944    2.936435   -0.762662
     24          6           0        2.018702   -1.936817    3.054883
     25          6           0        7.300257   -2.062140    0.861509
     26          6           0       -3.086432    2.538635   -1.174128
     27          6           0       -1.147615   -1.782097    2.364119
     28          6           0       -3.143104    1.078021   -0.913801
     29          6           0       -1.307528    4.391205   -0.823252
     30          6           0        8.115829   -1.073443   -2.065073
     31          6           0       -1.405238    5.099830    0.563608
     32          6           0       -4.248669    3.226631   -1.778916
     33          6           0       -4.156944    0.200567   -1.329462
     34          6           0       -2.602505   -1.780455    2.748467
     35          6           0       -3.927269   -1.204477   -1.182780
     36          6           0        9.386738   -0.958414   -1.521604
     37          6           0       -0.773355    6.484983    0.469119
     38          6           0       -4.998623   -2.320649   -1.437569
     39          6           0       -4.411160   -3.437280   -1.173917
     40          6           0       -3.043434   -3.165946   -0.519290
     41          6           0       -6.290935   -1.960219   -1.978515
     42          6           0       -4.945618   -4.917386   -1.229056
     43          6           0       -7.328480   -2.803380   -2.187530
     44          1           0        4.479591   -2.314378    0.043100
     45          1           0        5.158457    0.468174    1.499688
     46          1           0        4.517069   -1.456733    2.068665
     47          1           0        3.094027    1.236147    0.026442
     48          1           0        3.668556   -0.810075   -1.818414
     49          1           0       -0.386987   -0.159988    3.472937
     50          1           0       -1.212592    0.259042    1.936931
     51          1           0        0.788320    2.640234   -0.120611
     52          1           0        3.138156   -2.433730    3.344734
     53          1           0        1.608398   -1.707405    3.926171
     54          1           0        1.376532   -2.777852    2.487957
     55          1           0        6.723929   -2.821662    1.334887
     56          1           0        7.545407   -1.222499    1.525797
     57          1           0        8.193966   -2.594862    0.327558
     58          1           0       -1.028224   -2.055071    1.280342
     59          1           0       -0.604839   -2.508567    2.965098
     60          1           0       -1.864722   -0.327186   -0.274289
     61          1           0       -2.148468    4.824086   -1.718950
     62          1           0       -0.331474    4.277668   -1.211883
     63          1           0        8.110896   -1.310606   -3.260415
     64          1           0       -0.793631    4.495778    1.367028
     65          1           0       -2.357690    5.192141    0.844563
     66          1           0       -4.045871    4.408892   -2.028247
     67          1           0       -5.202411    3.287716   -0.914375
     68          1           0       -4.504608    2.702706   -2.714119
     69          1           0       -4.990349    0.602579   -1.873028
     70          1           0        9.490834   -0.727761   -0.466473
     71          1           0       10.211456   -0.927151   -2.168186
     72          1           0       -3.972575   -2.855674    3.330707
     73          1           0       -6.518599   -0.927722   -2.195101
     74          1           0       -5.088657   -5.262663   -2.286758
     75          1           0       -4.035550   -5.464236   -0.898233
     76          1           0       -5.867870   -5.145695   -0.571163
     77          1           0       -0.631672    8.260513    1.323832
     78          1           0       -8.304406   -2.388089   -2.761106
     79          1           0       -7.033879   -3.825364   -2.287444
 ---------------------------------------------------------------------

 SCF Done:  E(RB3LYP) =  -1947.85427730     A.U. after   16 cycles

 Excitation energies and oscillator strengths:

 Excited State   1:      Singlet-A      2.3233 eV  533.66 nm  f=0.5512  <S**2>=0.000
     155 ->156         0.69857
 This state for optimization and/or second-order correction.
 Total Energy, E(TD-HF/TD-KS) =  -1947.76889761
 Copying the excited state density for this state as the 1-particle RhoCI density.

 The electronic state is 1-A.
 Alpha  occ. eigenvalues --  -19.18814 -19.15262 -19.12764 -19.11933 -19.10943
 Alpha  occ. eigenvalues --  -19.09799 -14.37147 -14.35626 -14.34673 -14.30163
 Alpha  occ. eigenvalues --  -10.32137 -10.30763 -10.27610 -10.27547 -10.25635
 Alpha  occ. eigenvalues --  -10.24748 -10.24623 -10.24267 -10.23797 -10.23372
 Alpha  occ. eigenvalues --  -10.22680 -10.22597 -10.22497 -10.22076 -10.21986
 Alpha  occ. eigenvalues --  -10.21969 -10.21687 -10.21530 -10.21498 -10.21138
 Alpha  occ. eigenvalues --  -10.20640 -10.20604 -10.20165 -10.19918 -10.19752
 Alpha  occ. eigenvalues --  -10.19749 -10.19565 -10.19464 -10.19352 -10.19291
 Alpha  occ. eigenvalues --  -10.18678 -10.18463 -10.18144  -1.09549  -1.08501
 Alpha  occ. eigenvalues --   -1.04500  -1.04105  -1.00105  -0.98833  -0.97975
 Alpha  occ. eigenvalues --   -0.96728  -0.94430  -0.91546  -0.83015  -0.82945
 Alpha  occ. eigenvalues --   -0.81743  -0.80794  -0.80677  -0.79681  -0.77772
 Alpha  occ. eigenvalues --   -0.77130  -0.76637  -0.75777  -0.74320  -0.72873
 Alpha  occ. eigenvalues --   -0.72073  -0.71305  -0.69560  -0.68794  -0.67507
 Alpha  occ. eigenvalues --   -0.67283  -0.66220  -0.63866  -0.60693  -0.60110
 Alpha  occ. eigenvalues --   -0.59286  -0.59037  -0.58195  -0.57083  -0.56148
 Alpha  occ. eigenvalues --   -0.55867  -0.54903  -0.54519  -0.54154  -0.53463
 Alpha  occ. eigenvalues --   -0.52290  -0.51551  -0.50876  -0.50760  -0.49635
 Alpha  occ. eigenvalues --   -0.49119  -0.48369  -0.48021  -0.47942  -0.47812
 Alpha  occ. eigenvalues --   -0.47259  -0.47030  -0.46698  -0.46023  -0.45484
 Alpha  occ. eigenvalues --   -0.45329  -0.44911  -0.44661  -0.44162  -0.44003
 Alpha  occ. eigenvalues --   -0.43683  -0.43324  -0.43237  -0.42696  -0.42366
 Alpha  occ. eigenvalues --   -0.42031  -0.41897  -0.41804  -0.41406  -0.41375
 Alpha  occ. eigenvalues --   -0.41123  -0.40774  -0.40351  -0.40133  -0.39743
 Alpha  occ. eigenvalues --   -0.39662  -0.39191  -0.39131  -0.38904  -0.38679
 Alpha  occ. eigenvalues --   -0.38216  -0.38000  -0.37465  -0.37351  -0.36788
 Alpha  occ. eigenvalues --   -0.36316  -0.35611  -0.35358  -0.35084  -0.34666
 Alpha  occ. eigenvalues --   -0.34309  -0.34094  -0.32804  -0.32506  -0.31822
 Alpha  occ. eigenvalues --   -0.30227  -0.30165  -0.29226  -0.28607  -0.28498
 Alpha  occ. eigenvalues --   -0.26441  -0.26327  -0.25660  -0.25388  -0.24933
 Alpha  occ. eigenvalues --   -0.24696  -0.23852  -0.23710  -0.23049  -0.19946
 Alpha virt. eigenvalues --   -0.10720  -0.06594  -0.06246  -0.01191  -0.00063
 Alpha virt. eigenvalues --    0.00315   0.00576   0.01012   0.01571   0.02115
 Alpha virt. eigenvalues --    0.03100   0.04331   0.04577   0.04890   0.05525

 Mulliken charges:
               1
     1  O   -0.181493
     2  O   -0.149401
     3  O   -0.253084
     4  O   -0.246129
     5  O   -0.214203
     6  O   -0.148040
     7  N   -0.069330
     8  N   -0.212191
     9  N   -0.149734
    10  N   -0.340247
    11  C    0.132946
    12  C    0.049185
    13  C   -0.061526
    14  C   -0.111547
    15  C   -0.140303
    16  C    0.023851
    17  C   -0.173533
    18  C    0.200426
    19  C   -0.084300
    20  C   -0.083243
    21  C    0.201486
    22  C    0.107375
    23  C   -0.122390
    24  C    0.056132
    25  C    0.110351
    26  C   -0.102062
    27  C   -0.027036
    28  C    0.101078
    29  C    0.065928
    30  C   -0.084578
    31  C    0.072603
    32  C   -0.023597
    33  C   -0.093851
    34  C    0.143420
    35  C    0.093438
    36  C   -0.012611
    37  C    0.121718
    38  C    0.101497
    39  C   -0.245176
    40  C    0.172241
    41  C   -0.043742
    42  C    0.051938
    43  C   -0.035195
    44  H    0.013145
    45  H    0.039542
    46  H    0.018985
    47  H    0.114392
    48  H    0.138913
    49  H    0.005563
    50  H   -0.033949
    51  H   -0.028760
    52  H    0.022992
    53  H   -0.007883
    54  H    0.066737
    55  H    0.005737
    56  H    0.053162
    57  H    0.059349
    58  H    0.072654
    59  H    0.028461
    60  H    0.155982
    61  H    0.047644
    62  H    0.014083
    63  H    0.052600
    64  H    0.073998
    65  H   -0.009119
    66  H    0.039447
    67  H    0.068699
    68  H    0.055808
    69  H   -0.026414
    70  H    0.016239
    71  H    0.018716
    72  H    0.131856
    73  H   -0.015420
    74  H    0.033057
    75  H    0.025599
    76  H    0.056412
    77  H    0.234180
    78  H    0.045961
    79  H    0.014562
 Sum of Mulliken charges =   0.00000

 Dipole moment (field-independent basis, Debye):
    X=              0.8509    Y=              1.8151    Z=              2.1691  Tot=              2.9536
 Quadrupole moment (field-independent basis, Debye-Ang):
   XX=           -226.5284   YY=           -243.0729   ZZ=           -262.5230
   XY=            -17.9743   XZ=             35.4142   YZ=              3.9889

 Normal termination of Gaussian 09 at Mon Jul  8 16:16:14 2019.
