 Gaussian 09, Revision D.01,
 Gaussian 09:  ES64L-G09RevD.01 24-Apr-2013

 --------------------------
 # td=(NStates=1) B3LYP/SVP
 --------------------------

 --
 TD
 --
 Symbolic Z-matrix:
 Charge =  0 Multiplicity = 1

                         Standard orientation:
 ---------------------------------------------------------------------
 Center     Atomic      Atomic             Coordinates (Angstroms)
 Number     Number       Type             X           Y           Z
 ---------------------------------------------------------------------
      1          8           0        5.408125   -0.191192   -3.279240
      2          8           0       -2.934472   -3.077820    3.177498
      3          8           0       -3.288425   -0.778533    2.952419
      4          8           0       -1.445008    7.447763    1.408128
      5          8           0       -0.079197    6.816884   -0.285125
      6          8           0       -1.842159   -3.965045   -0.242387
      7          7           0        2.354841    0.822874    0.626262
      8          7           0        4.386925   -0.650633   -1.265376
      9          7           0       -1.873492    0.682966   -0.429126
     10          7           0       -2.613829   -1.824111   -0.568557
     11          6           0        4.809187   -1.281991    0.012488
     12          6           0        4.467161   -0.397381    1.248135
     13          6           0        3.065058   -0.076569    1.403179
     14          6           0        1.989537   -0.696648    2.064582
     15          6           0        0.762887   -0.105385    1.758852
     16          6           0        1.044702    0.917457    0.766948
     17          6           0        6.304346   -1.373139   -0.131368
     18          6           0       -0.620225   -0.413877    2.441493
     19          6           0        6.703416   -0.855808   -1.325707
     20          6           0        0.182252    1.855062    0.100103
     21          6           0       -1.089353    1.827951   -0.378835
     22          6           0        5.484920   -0.554802   -2.102299
     23          6           0       -1.853766    2.960157   -0.821633
     24          6           0        2.110416   -1.828906    3.109224
     25          6           0        7.175519   -2.033179    0.917918
     26          6           0       -3.181171    2.517571   -1.177450
     27          6           0       -1.190198   -1.669955    2.443226
     28          6           0       -3.061894    0.949977   -0.996319
     29          6           0       -1.396706    4.361899   -0.884371
     30          6           0        7.905497   -0.858484   -2.074111
     31          6           0       -1.755181    5.203626    0.383317
     32          6           0       -4.341049    3.168082   -1.753963
     33          6           0       -4.016843   -0.008668   -1.197839
     34          6           0       -2.584338   -1.775877    3.001247
     35          6           0       -3.775120   -1.403933   -1.115192
     36          6           0        9.176578   -0.975151   -1.516517
     37          6           0       -1.062607    6.539211    0.453197
     38          6           0       -4.804348   -2.535473   -1.450497
     39          6           0       -4.108784   -3.629245   -1.057797
     40          6           0       -2.702549   -3.249832   -0.639436
     41          6           0       -6.158246   -2.163357   -1.873493
     42          6           0       -4.567284   -5.056048   -1.255607
     43          6           0       -7.027197   -3.178517   -2.319108
     44          1           0        4.032038   -2.134633    0.196979
     45          1           0        5.074175    0.711573    1.313441
     46          1           0        4.803170   -0.945175    2.197083
     47          1           0        2.947164    1.598147   -0.050810
     48          1           0        3.489342   -0.541483   -1.529059
     49          1           0       -0.154495   -0.084029    3.508207
     50          1           0       -1.354278    0.570565    2.209357
     51          1           0        0.591185    2.921076    0.116605
     52          1           0        3.139590   -1.958016    3.555578
     53          1           0        1.357135   -1.964848    3.996689
     54          1           0        1.779234   -2.840009    2.575474
     55          1           0        6.538678   -2.418030    1.583343
     56          1           0        7.870295   -1.250616    1.425694
     57          1           0        7.994393   -2.566807    0.368561
     58          1           0       -1.239249   -2.183409    1.404982
     59          1           0       -0.578282   -2.397920    2.973006
     60          1           0       -1.568289   -0.264450    0.047825
     61          1           0       -1.732752    4.895125   -1.844651
     62          1           0       -0.244961    4.200295   -0.898858
     63          1           0        7.839178   -0.486689   -3.199984
     64          1           0       -1.463384    4.398108    1.189343
     65          1           0       -2.823542    5.429616    0.557143
     66          1           0       -4.000392    4.255087   -2.221230
     67          1           0       -5.270801    3.457384   -1.127216
     68          1           0       -4.861065    2.645122   -2.630268
     69          1           0       -5.158832    0.169001   -1.661131
     70          1           0        9.296473   -1.212244   -0.461459
     71          1           0       10.129732   -0.808825   -1.914172
     72          1           0       -3.871993   -3.108824    3.529532
     73          1           0       -6.342749   -1.245921   -2.037964
     74          1           0       -5.029543   -5.107244   -2.325041
     75          1           0       -3.584255   -5.847703   -0.991241
     76          1           0       -5.353802   -5.393879   -0.232281
     77          1           0       -0.985532    8.269689    1.074236
     78          1           0       -7.980459   -2.886995   -2.929962
     79          1           0       -6.922858   -4.179774   -2.354711
 ---------------------------------------------------------------------

 SCF Done:  E(RB3LYP) =  -1947.78353815     A.U. after   16 cycles

 Excitation energies and oscillator strengths:

 Excited State   1:      Singlet-A      2.1396 eV  579.48 nm  f=0.4324  <S**2>=0.000
     155 ->156         0.69731
 This state for optimization and/or second-order correction.
 Total Energy, E(TD-HF/TD-KS) =  -1947.70491002
 Copying the excited state density for this state as the 1-particle RhoCI density.

 The electronic state is 1-A.
 Alpha  occ. eigenvalues --  -19.19477 -19.18546 -19.13197 -19.11835 -19.10862
 Alpha  occ. eigenvalues --  -19.09122 -14.39451 -14.36887 -14.34515 -14.29077
 Alpha  occ. eigenvalues --  -10.33422 -10.31182 -10.27797 -10.26651 -10.26092
 Alpha  occ. eigenvalues --  -10.25310 -10.24342 -10.23527 -10.23305 -10.23121
 Alpha  occ. eigenvalues --  -10.22961 -10.22788 -10.22765 -10.22659 -10.22574
 Alpha  occ. eigenvalues --  -10.22571 -10.22256 -10.22032 -10.21877 -10.21180
 Alpha  occ. eigenvalues --  -10.21107 -10.21077 -10.21034 -10.20945 -10.20817
 Alpha  occ. eigenvalues --  -10.20510 -10.20039 -10.20009 -10.19836 -10.19623
 Alpha  occ. eigenvalues --  -10.19101 -10.19044 -10.18198  -1.09248  -1.07993
 Alpha  occ. eigenvalues --   -1.03313  -1.01308  -0.99915  -0.99053  -0.98947
 Alpha  occ. eigenvalues --   -0.97979  -0.93433  -0.91012  -0.83154  -0.82960
 Alpha  occ. eigenvalues --   -0.81479  -0.80779  -0.80583  -0.79648  -0.77630
 Alpha  occ. eigenvalues --   -0.77109  -0.76282  -0.75680  -0.74196  -0.72582
 Alpha  occ. eigenvalues --   -0.72434  -0.70467  -0.68572  -0.68048  -0.67526
 Alpha  occ. eigenvalues --   -0.66104  -0.65608  -0.63452  -0.62212  -0.61390
 Alpha  occ. eigenvalues --   -0.59438  -0.59186  -0.59020  -0.58125  -0.57122
 Alpha  occ. eigenvalues --   -0.55475  -0.54649  -0.54345  -0.53708  -0.53507
 Alpha  occ. eigenvalues --   -0.52102  -0.51039  -0.50622  -0.50421  -0.49358
 Alpha  occ. eigenvalues --   -0.49275  -0.48876  -0.48734  -0.48162  -0.47582
 Alpha  occ. eigenvalues --   -0.47336  -0.47043  -0.46626  -0.46233  -0.45682
 Alpha  occ. eigenvalues --   -0.45181  -0.44500  -0.44410  -0.44214  -0.43735
 Alpha  occ. eigenvalues --   -0.43603  -0.43199  -0.43023  -0.42300  -0.42124
 Alpha  occ. eigenvalues --   -0.41933  -0.41535  -0.41409  -0.40684  -0.40611
 Alpha  occ. eigenvalues --   -0.40578  -0.40305  -0.40073  -0.39879  -0.39853
 Alpha  occ. eigenvalues --   -0.39559  -0.39353  -0.38664  -0.38500  -0.38139
 Alpha  occ. eigenvalues --   -0.37854  -0.37624  -0.37176  -0.36363  -0.36030
 Alpha  occ. eigenvalues --   -0.35520  -0.35266  -0.35110  -0.34699  -0.34137
 Alpha  occ. eigenvalues --   -0.33573  -0.33202  -0.32258  -0.31896  -0.31741
 Alpha  occ. eigenvalues --   -0.31301  -0.30695  -0.28623  -0.28395  -0.27946
 Alpha  occ. eigenvalues --   -0.26869  -0.25831  -0.25533  -0.24915  -0.24415
 Alpha  occ. eigenvalues --   -0.23969  -0.23754  -0.23358  -0.22332  -0.19092
 Alpha virt. eigenvalues --   -0.10430  -0.06971  -0.06606  -0.02902  -0.02087
 Alpha virt. eigenvalues --    0.00252   0.00468   0.00799   0.02372   0.02924
 Alpha virt. eigenvalues --    0.03117   0.03725   0.04067   0.04239   0.04809

 Mulliken charges:
               1
     1  O   -0.245203
     2  O   -0.194530
     3  O   -0.235607
     4  O   -0.199570
     5  O   -0.276539
     6  O   -0.163441
     7  N   -0.109825
     8  N   -0.165540
     9  N   -0.099968
    10  N   -0.313962
    11  C    0.094031
    12  C    0.072860
    13  C   -0.079001
    14  C   -0.093374
    15  C   -0.084969
    16  C    0.047392
    17  C   -0.164745
    18  C   -0.045605
    19  C   -0.003694
    20  C   -0.144712
    21  C    0.111939
    22  C    0.139903
    23  C   -0.104818
    24  C   -0.018334
    25  C    0.139793
    26  C   -0.030974
    27  C    0.035699
    28  C    0.143903
    29  C    0.041342
    30  C   -0.046184
    31  C   -0.012711
    32  C   -0.036993
    33  C   -0.159420
    34  C    0.145964
    35  C    0.015453
    36  C   -0.028100
    37  C    0.171721
    38  C    0.081193
    39  C   -0.200674
    40  C    0.176985
    41  C    0.112677
    42  C   -0.087624
    43  C   -0.019838
    44  H    0.047056
    45  H    0.027773
    46  H    0.018094
    47  H    0.166074
    48  H    0.086551
    49  H    0.029647
    50  H    0.056074
    51  H    0.010228
    52  H    0.016066
    53  H    0.035742
    54  H    0.040805
    55  H   -0.009059
    56  H    0.042563
    57  H    0.046594
    58  H    0.089955
    59  H   -0.005414
    60  H    0.213550
    61  H    0.040273
    62  H    0.039710
    63  H    0.059506
    64  H    0.073994
    65  H    0.038610
    66  H    0.030758
    67  H    0.050372
    68  H    0.045000
    69  H    0.017950
    70  H   -0.005151
    71  H    0.014887
    72  H    0.194789
    73  H   -0.099755
    74  H    0.072161
    75  H    0.067178
    76  H    0.052189
    77  H    0.199131
    78  H    0.035401
    79  H   -0.004204
 Sum of Mulliken charges =   0.00000

 Dipole moment (field-independent basis, Debye):
    X=             -1.5112    Y=              1.6997    Z=              3.3822  Tot=              4.0758
 Quadrupole moment (field-independent basis, Debye-Ang):
   XX=           -214.0520   YY=           -244.4983   ZZ=           -263.4444
   XY=             -9.2353   XZ=             34.6079   YZ=             -5.5005

 Normal termination of Gaussian 09 at Wed Jul 10 18:05:26 2019.
