 Gaussian 09, Revision D.01,
 Gaussian 09:  ES64L-G09RevD.01 24-Apr-2013

 --------------------------
 # td=(NStates=1) B3LYP/SVP
 --------------------------

 --
 TD
 --
 Symbolic Z-matrix:
 Charge =  0 Multiplicity = 1

                         Standard orientation:
 ---------------------------------------------------------------------
 Center     Atomic      Atomic             Coordinates (Angstroms)
 Number     Number       Type             X           Y           Z
 ---------------------------------------------------------------------
      1          8           0        5.442676   -0.107632   -3.314385
      2          8           0       -2.790249   -3.130191    3.252391
      3          8           0       -3.076436   -0.895695    3.432521
      4          8           0       -1.781877    7.178789    1.382659
      5          8           0       -0.382706    6.936819   -0.388753
      6          8           0       -1.905055   -3.909198    0.076496
      7          7           0        2.345615    0.907007    0.462362
      8          7           0        4.397317   -0.750926   -1.329188
      9          7           0       -1.908248    0.656559   -0.404983
     10          7           0       -2.668065   -1.807891   -0.575338
     11          6           0        4.797104   -1.329310   -0.025972
     12          6           0        4.361068   -0.346389    1.015022
     13          6           0        2.952947   -0.082387    1.217620
     14          6           0        1.916070   -0.610671    2.138948
     15          6           0        0.669765    0.045773    1.705633
     16          6           0        0.913894    0.894547    0.629277
     17          6           0        6.344697   -1.211369   -0.103057
     18          6           0       -0.578284   -0.208356    2.537635
     19          6           0        6.690712   -0.689152   -1.343989
     20          6           0        0.091749    1.851996    0.033738
     21          6           0       -1.112904    1.761183   -0.310699
     22          6           0        5.468426   -0.519130   -2.171614
     23          6           0       -2.041663    2.892563   -0.788621
     24          6           0        2.313589   -1.559541    3.233729
     25          6           0        7.206885   -1.775279    0.890991
     26          6           0       -3.295977    2.335881   -1.145786
     27          6           0       -0.995889   -1.705840    2.501836
     28          6           0       -3.147698    0.998920   -0.826876
     29          6           0       -1.518581    4.285421   -0.884481
     30          6           0        8.034619   -0.653203   -2.054004
     31          6           0       -1.743758    5.072195    0.316573
     32          6           0       -4.458031    2.990859   -1.741525
     33          6           0       -4.093964   -0.008320   -1.220522
     34          6           0       -2.363747   -1.829404    3.181782
     35          6           0       -3.836742   -1.474647   -1.019211
     36          6           0        9.222354   -0.776728   -1.439291
     37          6           0       -1.314515    6.490440    0.310245
     38          6           0       -4.688487   -2.642519   -1.454813
     39          6           0       -3.998731   -3.728348   -1.073613
     40          6           0       -2.695468   -3.213092   -0.515357
     41          6           0       -5.927086   -2.470692   -2.137582
     42          6           0       -4.300633   -5.110944   -1.312902
     43          6           0       -6.748652   -3.323790   -2.795268
     44          1           0        4.572450   -2.213499    0.191203
     45          1           0        5.003408    0.492864    0.815279
     46          1           0        4.555500   -0.732723    2.014519
     47          1           0        2.945011    1.090677   -0.309926
     48          1           0        3.503163   -0.840169   -1.457966
     49          1           0       -0.344331   -0.003021    3.617138
     50          1           0       -1.447498    0.409070    2.055694
     51          1           0        0.442392    2.867149   -0.000294
     52          1           0        3.414596   -1.461832    3.566044
     53          1           0        1.620607   -1.625360    4.172531
     54          1           0        2.425647   -2.590017    2.928546
     55          1           0        6.485922   -2.517251    1.434467
     56          1           0        7.338172   -0.919753    1.684393
     57          1           0        8.169210   -2.270645    0.476952
     58          1           0       -1.226711   -2.024902    1.501994
     59          1           0       -0.315953   -2.420601    3.167568
     60          1           0       -1.635728   -0.186090   -0.001709
     61          1           0       -1.888573    4.738967   -1.784554
     62          1           0       -0.442086    4.346270   -1.134693
     63          1           0        7.970293   -0.303232   -3.027164
     64          1           0       -1.412609    4.504830    1.179140
     65          1           0       -2.842618    5.131324    0.538285
     66          1           0       -4.501326    4.131358   -1.767307
     67          1           0       -5.363701    3.000550   -0.902332
     68          1           0       -4.608556    2.545612   -2.724497
     69          1           0       -5.013071    0.461676   -1.297522
     70          1           0        9.149754   -0.925994   -0.281745
     71          1           0       10.296768   -0.693088   -1.875577
     72          1           0       -3.793603   -3.129801    3.392700
     73          1           0       -6.353931   -1.392843   -2.183232
     74          1           0       -3.980622   -5.290918   -2.456004
     75          1           0       -3.631798   -5.479107   -0.467814
     76          1           0       -5.350763   -5.272029   -1.121593
     77          1           0       -1.480678    8.052111    1.446360
     78          1           0       -7.707543   -3.028972   -3.116167
     79          1           0       -6.506738   -4.171014   -2.957198
 ---------------------------------------------------------------------

 SCF Done:  E(RB3LYP) =  -1947.81364886     A.U. after   16 cycles

 Excitation energies and oscillator strengths:

 Excited State   1:      Singlet-A      2.1514 eV  576.30 nm  f=0.4254  <S**2>=0.000
     155 ->156         0.70118
 This state for optimization and/or second-order correction.
 Total Energy, E(TD-HF/TD-KS) =  -1947.73458677
 Copying the excited state density for this state as the 1-particle RhoCI density.

 The electronic state is 1-A.
 Alpha  occ. eigenvalues --  -19.18787 -19.16680 -19.13192 -19.11439 -19.11215
 Alpha  occ. eigenvalues --  -19.10214 -14.37507 -14.35586 -14.35258 -14.29188
 Alpha  occ. eigenvalues --  -10.33246 -10.30387 -10.29019 -10.26754 -10.24152
 Alpha  occ. eigenvalues --  -10.23990 -10.23820 -10.22986 -10.22979 -10.22832
 Alpha  occ. eigenvalues --  -10.22593 -10.22447 -10.22164 -10.22159 -10.21297
 Alpha  occ. eigenvalues --  -10.21207 -10.20998 -10.20925 -10.20840 -10.20674
 Alpha  occ. eigenvalues --  -10.20444 -10.20271 -10.20220 -10.20160 -10.20156
 Alpha  occ. eigenvalues --  -10.20092 -10.19623 -10.19480 -10.19453 -10.19435
 Alpha  occ. eigenvalues --  -10.18993 -10.18371 -10.17412  -1.09993  -1.07409
 Alpha  occ. eigenvalues --   -1.02843  -1.02815  -1.00001  -0.99192  -0.98993
 Alpha  occ. eigenvalues --   -0.97017  -0.95059  -0.93317  -0.83939  -0.83829
 Alpha  occ. eigenvalues --   -0.83248  -0.81599  -0.81079  -0.80403  -0.79524
 Alpha  occ. eigenvalues --   -0.77021  -0.76649  -0.75703  -0.74969  -0.72696
 Alpha  occ. eigenvalues --   -0.72550  -0.71989  -0.70489  -0.70035  -0.69090
 Alpha  occ. eigenvalues --   -0.66609  -0.66101  -0.64288  -0.62185  -0.62115
 Alpha  occ. eigenvalues --   -0.60930  -0.59042  -0.58865  -0.58211  -0.57771
 Alpha  occ. eigenvalues --   -0.56681  -0.55822  -0.55029  -0.54366  -0.53879
 Alpha  occ. eigenvalues --   -0.53389  -0.52821  -0.51799  -0.51416  -0.50042
 Alpha  occ. eigenvalues --   -0.49344  -0.48704  -0.48404  -0.48196  -0.47834
 Alpha  occ. eigenvalues --   -0.47627  -0.47018  -0.46728  -0.46512  -0.46117
 Alpha  occ. eigenvalues --   -0.45676  -0.44885  -0.44584  -0.44436  -0.44073
 Alpha  occ. eigenvalues --   -0.43882  -0.43572  -0.43504  -0.43039  -0.42794
 Alpha  occ. eigenvalues --   -0.42512  -0.42379  -0.42041  -0.41926  -0.41455
 Alpha  occ. eigenvalues --   -0.40932  -0.40685  -0.40369  -0.40224  -0.39963
 Alpha  occ. eigenvalues --   -0.39763  -0.39561  -0.39307  -0.39007  -0.38621
 Alpha  occ. eigenvalues --   -0.38124  -0.37457  -0.37242  -0.36910  -0.36737
 Alpha  occ. eigenvalues --   -0.36620  -0.35814  -0.35178  -0.34752  -0.34283
 Alpha  occ. eigenvalues --   -0.33832  -0.33730  -0.32672  -0.32622  -0.31504
 Alpha  occ. eigenvalues --   -0.31276  -0.31100  -0.29506  -0.28570  -0.28361
 Alpha  occ. eigenvalues --   -0.27633  -0.26692  -0.26120  -0.25899  -0.24706
 Alpha  occ. eigenvalues --   -0.24559  -0.24190  -0.23052  -0.22256  -0.18936
 Alpha virt. eigenvalues --   -0.10258  -0.06255  -0.05991  -0.02477  -0.00754
 Alpha virt. eigenvalues --   -0.00033   0.00728   0.01514   0.02573   0.02972
 Alpha virt. eigenvalues --    0.03507   0.04974   0.05390   0.05600   0.05809

 Mulliken charges:
               1
     1  O   -0.216022
     2  O   -0.223762
     3  O   -0.224791
     4  O   -0.160529
     5  O   -0.255088
     6  O   -0.189612
     7  N   -0.088414
     8  N   -0.155790
     9  N   -0.005788
    10  N   -0.247647
    11  C    0.217918
    12  C    0.185072
    13  C   -0.127098
    14  C   -0.077410
    15  C   -0.097267
    16  C    0.098884
    17  C   -0.219934
    18  C    0.064656
    19  C   -0.062876
    20  C   -0.098981
    21  C    0.082772
    22  C    0.174887
    23  C   -0.100184
    24  C    0.035476
    25  C    0.041443
    26  C   -0.093417
    27  C   -0.028277
    28  C    0.061033
    29  C    0.106273
    30  C    0.047396
    31  C    0.022829
    32  C    0.038791
    33  C   -0.070543
    34  C    0.120876
    35  C    0.054798
    36  C   -0.081522
    37  C    0.159937
    38  C    0.145949
    39  C   -0.258473
    40  C    0.152556
    41  C   -0.110953
    42  C    0.052501
    43  C    0.116361
    44  H   -0.076051
    45  H   -0.006076
    46  H   -0.020775
    47  H    0.101301
    48  H    0.068851
    49  H    0.019645
    50  H    0.034687
    51  H   -0.016724
    52  H    0.012628
    53  H    0.035159
    54  H    0.013051
    55  H    0.022576
    56  H    0.059673
    57  H    0.077853
    58  H    0.068401
    59  H    0.049903
    60  H    0.117466
    61  H   -0.006119
    62  H    0.015939
    63  H   -0.008831
    64  H    0.040850
    65  H    0.019201
    66  H    0.022199
    67  H    0.048987
    68  H    0.055942
    69  H   -0.038791
    70  H    0.028894
    71  H    0.054745
    72  H    0.196366
    73  H    0.007280
    74  H    0.068666
    75  H    0.050730
    76  H    0.023950
    77  H    0.164946
    78  H    0.011994
    79  H   -0.104548
 Sum of Mulliken charges =   0.00000

 Dipole moment (field-independent basis, Debye):
    X=             -0.4402    Y=              1.5326    Z=              2.9871  Tot=              3.3861
 Quadrupole moment (field-independent basis, Debye-Ang):
   XX=           -217.7582   YY=           -244.0740   ZZ=           -265.4150
   XY=            -18.7967   XZ=             32.1649   YZ=              4.6899

 Normal termination of Gaussian 09 at Tue Jul  9 13:56:29 2019.
