 Gaussian 09, Revision D.01,
 Gaussian 09:  ES64L-G09RevD.01 24-Apr-2013

 --------------------------
 # td=(NStates=1) B3LYP/SVP
 --------------------------

 --
 TD
 --
 Symbolic Z-matrix:
 Charge =  0 Multiplicity = 1

                         Standard orientation:
 ---------------------------------------------------------------------
 Center     Atomic      Atomic             Coordinates (Angstroms)
 Number     Number       Type             X           Y           Z
 ---------------------------------------------------------------------
      1          8           0        5.114860   -0.241818   -3.364381
      2          8           0       -2.803025   -3.127601    3.079455
      3          8           0       -3.186636   -0.924544    3.314795
      4          8           0       -1.637566    7.271313    1.462489
      5          8           0       -0.687277    7.006589   -0.551492
      6          8           0       -1.800308   -4.006109   -0.038661
      7          7           0        2.421605    0.929905    0.506596
      8          7           0        4.386199   -0.572375   -1.155825
      9          7           0       -1.915716    0.617644   -0.325797
     10          7           0       -2.675516   -1.890856   -0.267218
     11          6           0        4.798852   -1.124715    0.095180
     12          6           0        4.446301   -0.228595    1.247124
     13          6           0        3.016983   -0.010719    1.310276
     14          6           0        2.056471   -0.584200    2.150438
     15          6           0        0.731576    0.045730    1.829713
     16          6           0        0.977691    0.885161    0.822854
     17          6           0        6.291399   -1.303115   -0.111910
     18          6           0       -0.489526   -0.242160    2.684856
     19          6           0        6.588650   -0.892838   -1.483547
     20          6           0        0.161263    1.862944    0.192618
     21          6           0       -1.089678    1.814092   -0.324591
     22          6           0        5.411780   -0.520081   -2.188529
     23          6           0       -1.951489    2.897042   -0.848205
     24          6           0        2.120645   -1.572459    3.264427
     25          6           0        7.167344   -1.770934    0.923138
     26          6           0       -3.148572    2.325666   -1.281980
     27          6           0       -0.961511   -1.708516    2.588626
     28          6           0       -3.124442    0.863760   -1.001595
     29          6           0       -1.527326    4.345004   -0.942451
     30          6           0        7.848663   -0.789906   -2.245055
     31          6           0       -1.773188    5.121904    0.442788
     32          6           0       -4.252884    3.095477   -1.865668
     33          6           0       -3.949649   -0.134607   -1.294062
     34          6           0       -2.377702   -1.828606    3.059577
     35          6           0       -3.803746   -1.492490   -0.938876
     36          6           0        9.062610   -0.757223   -1.723893
     37          6           0       -1.303475    6.520840    0.373895
     38          6           0       -4.568516   -2.626754   -1.430728
     39          6           0       -3.995851   -3.770658   -1.062037
     40          6           0       -2.715187   -3.275132   -0.367528
     41          6           0       -5.867912   -2.311917   -2.189780
     42          6           0       -4.353103   -5.203666   -1.229358
     43          6           0       -6.707562   -3.179723   -2.832895
     44          1           0        4.340116   -2.033803    0.248605
     45          1           0        5.038659    0.757901    0.922094
     46          1           0        4.776182   -0.557334    2.077586
     47          1           0        2.688215    1.576219   -0.082171
     48          1           0        3.465033   -0.779632   -1.430296
     49          1           0       -0.424911    0.224013    3.750911
     50          1           0       -1.279033    0.294761    2.101814
     51          1           0        0.690667    2.909443   -0.017520
     52          1           0        3.158504   -2.026663    3.680375
     53          1           0        1.588690   -1.335404    4.188925
     54          1           0        1.746791   -2.698877    3.202647
     55          1           0        6.737513   -2.715577    1.347569
     56          1           0        7.310871   -0.877732    1.708501
     57          1           0        8.326182   -1.876559    0.472170
     58          1           0       -0.854191   -2.109201    1.526854
     59          1           0       -0.338643   -2.157715    3.375981
     60          1           0       -1.522732   -0.376664   -0.346628
     61          1           0       -1.975043    4.805922   -1.736797
     62          1           0       -0.358368    4.647421   -1.259839
     63          1           0        7.738672   -0.967877   -3.320439
     64          1           0       -1.271205    4.430165    1.387044
     65          1           0       -2.929422    5.145471    0.855820
     66          1           0       -4.071948    4.168935   -2.214410
     67          1           0       -5.240889    2.815901   -1.436169
     68          1           0       -4.254405    2.385237   -2.805814
     69          1           0       -4.947291    0.101664   -2.042738
     70          1           0        9.201814   -0.556835   -0.606327
     71          1           0       10.013038   -1.084447   -2.439393
     72          1           0       -3.681713   -3.201747    3.455113
     73          1           0       -6.176040   -1.322028   -2.052669
     74          1           0       -4.008354   -5.615065   -2.301439
     75          1           0       -3.935366   -5.705172   -0.366823
     76          1           0       -5.507865   -5.219081   -1.251737
     77          1           0       -1.796649    8.105072    1.121873
     78          1           0       -7.595235   -3.126272   -3.295948
     79          1           0       -6.481474   -4.128932   -2.675601
 ---------------------------------------------------------------------

 SCF Done:  E(RB3LYP) =  -1947.80792644     A.U. after   16 cycles

 Excitation energies and oscillator strengths:

 Excited State   1:      Singlet-A      2.1821 eV  568.19 nm  f=0.3841  <S**2>=0.000
     155 ->156         0.69891
 This state for optimization and/or second-order correction.
 Total Energy, E(TD-HF/TD-KS) =  -1947.72773582
 Copying the excited state density for this state as the 1-particle RhoCI density.

 The electronic state is 1-A.
 Alpha  occ. eigenvalues --  -19.17876 -19.15874 -19.13854 -19.10651 -19.10444
 Alpha  occ. eigenvalues --  -19.10225 -14.36734 -14.36073 -14.33182 -14.29603
 Alpha  occ. eigenvalues --  -10.33036 -10.30399 -10.28322 -10.26431 -10.25314
 Alpha  occ. eigenvalues --  -10.24335 -10.24236 -10.23946 -10.23607 -10.23370
 Alpha  occ. eigenvalues --  -10.23363 -10.23284 -10.22424 -10.22419 -10.22320
 Alpha  occ. eigenvalues --  -10.21949 -10.21945 -10.21862 -10.21288 -10.20939
 Alpha  occ. eigenvalues --  -10.20847 -10.20801 -10.20668 -10.20452 -10.20391
 Alpha  occ. eigenvalues --  -10.20324 -10.19995 -10.19981 -10.19413 -10.19381
 Alpha  occ. eigenvalues --  -10.19151 -10.19074 -10.18286  -1.10877  -1.06741
 Alpha  occ. eigenvalues --   -1.01716  -1.01679  -1.00815  -0.97178  -0.97141
 Alpha  occ. eigenvalues --   -0.95851  -0.93363  -0.92128  -0.82436  -0.82255
 Alpha  occ. eigenvalues --   -0.81756  -0.81221  -0.80574  -0.80187  -0.77811
 Alpha  occ. eigenvalues --   -0.77586  -0.76532  -0.76074  -0.75228  -0.73025
 Alpha  occ. eigenvalues --   -0.71968  -0.71056  -0.70562  -0.69157  -0.68529
 Alpha  occ. eigenvalues --   -0.66830  -0.66248  -0.64342  -0.61300  -0.60115
 Alpha  occ. eigenvalues --   -0.60045  -0.59544  -0.58081  -0.57713  -0.56478
 Alpha  occ. eigenvalues --   -0.55834  -0.55366  -0.54363  -0.53629  -0.53230
 Alpha  occ. eigenvalues --   -0.52271  -0.51763  -0.51608  -0.50789  -0.49550
 Alpha  occ. eigenvalues --   -0.49109  -0.48451  -0.48167  -0.47755  -0.47489
 Alpha  occ. eigenvalues --   -0.46897  -0.46811  -0.46596  -0.45908  -0.45505
 Alpha  occ. eigenvalues --   -0.45098  -0.44918  -0.44674  -0.44362  -0.43976
 Alpha  occ. eigenvalues --   -0.43540  -0.43080  -0.42398  -0.42191  -0.41765
 Alpha  occ. eigenvalues --   -0.41506  -0.41448  -0.41365  -0.41074  -0.40991
 Alpha  occ. eigenvalues --   -0.40638  -0.40343  -0.39701  -0.39577  -0.39495
 Alpha  occ. eigenvalues --   -0.39140  -0.39051  -0.38516  -0.38504  -0.38302
 Alpha  occ. eigenvalues --   -0.38116  -0.37886  -0.37319  -0.36843  -0.36537
 Alpha  occ. eigenvalues --   -0.35830  -0.35599  -0.35532  -0.35083  -0.34368
 Alpha  occ. eigenvalues --   -0.33949  -0.33845  -0.33265  -0.31166  -0.30726
 Alpha  occ. eigenvalues --   -0.30508  -0.29954  -0.29313  -0.28411  -0.28146
 Alpha  occ. eigenvalues --   -0.26127  -0.26007  -0.25637  -0.25269  -0.25024
 Alpha  occ. eigenvalues --   -0.24208  -0.23967  -0.23431  -0.22761  -0.19639
 Alpha virt. eigenvalues --   -0.10900  -0.07397  -0.05925  -0.02638  -0.01447
 Alpha virt. eigenvalues --    0.00317   0.00609   0.01338   0.02693   0.02823
 Alpha virt. eigenvalues --    0.03701   0.04193   0.04978   0.05182   0.05276

 Mulliken charges:
               1
     1  O   -0.239084
     2  O   -0.191835
     3  O   -0.259558
     4  O   -0.163923
     5  O   -0.219148
     6  O   -0.193933
     7  N   -0.057556
     8  N   -0.225300
     9  N   -0.171253
    10  N   -0.289766
    11  C    0.117056
    12  C    0.298887
    13  C   -0.073536
    14  C   -0.045878
    15  C   -0.068542
    16  C    0.042161
    17  C   -0.140873
    18  C    0.053681
    19  C   -0.070484
    20  C   -0.127582
    21  C    0.097195
    22  C    0.183680
    23  C   -0.032690
    24  C   -0.032782
    25  C   -0.014185
    26  C   -0.094515
    27  C    0.015798
    28  C    0.169894
    29  C    0.058222
    30  C    0.012810
    31  C   -0.129688
    32  C    0.043442
    33  C   -0.180898
    34  C    0.143618
    35  C    0.074751
    36  C   -0.091437
    37  C    0.162759
    38  C    0.041160
    39  C   -0.206016
    40  C    0.125900
    41  C   -0.014298
    42  C    0.058071
    43  C    0.089192
    44  H   -0.012904
    45  H    0.006797
    46  H   -0.089165
    47  H    0.057054
    48  H    0.107080
    49  H    0.042906
    50  H    0.014708
    51  H    0.016451
    52  H    0.001752
    53  H    0.018931
    54  H    0.036883
    55  H    0.054203
    56  H    0.069623
    57  H    0.056679
    58  H    0.098110
    59  H    0.017586
    60  H    0.178851
    61  H   -0.018659
    62  H    0.061924
    63  H    0.022748
    64  H    0.093624
    65  H    0.069766
    66  H    0.051345
    67  H    0.039819
    68  H    0.040986
    69  H    0.025658
    70  H    0.036011
    71  H    0.056786
    72  H    0.170107
    73  H   -0.021170
    74  H    0.064629
    75  H    0.040606
    76  H    0.038380
    77  H    0.153052
    78  H   -0.010441
    79  H   -0.044230
 Sum of Mulliken charges =   0.00000

 Dipole moment (field-independent basis, Debye):
    X=             -0.8478    Y=              1.3398    Z=              2.3301  Tot=              2.8184
 Quadrupole moment (field-independent basis, Debye-Ang):
   XX=           -212.4730   YY=           -242.8631   ZZ=           -264.4933
   XY=            -15.4218   XZ=             35.2957   YZ=             -1.0716

 Normal termination of Gaussian 09 at Tue Jul  9 14:48:41 2019.
