 Gaussian 09, Revision D.01,
 Gaussian 09:  ES64L-G09RevD.01 24-Apr-2013

 --------------------------
 # td=(NStates=1) B3LYP/SVP
 --------------------------

 --
 TD
 --
 Symbolic Z-matrix:
 Charge =  0 Multiplicity = 1

                         Standard orientation:
 ---------------------------------------------------------------------
 Center     Atomic      Atomic             Coordinates (Angstroms)
 Number     Number       Type             X           Y           Z
 ---------------------------------------------------------------------
      1          8           0        5.374022   -0.603534   -3.375783
      2          8           0       -2.768243   -3.067573    3.410442
      3          8           0       -3.234112   -0.907267    3.279919
      4          8           0       -1.515305    7.153493    1.484956
      5          8           0       -0.171340    6.956903   -0.340783
      6          8           0       -2.147466   -4.020714    0.010866
      7          7           0        2.336122    0.899771    0.435840
      8          7           0        4.457535   -0.790592   -1.332846
      9          7           0       -1.838153    0.707501   -0.375285
     10          7           0       -2.702217   -1.880635   -0.631850
     11          6           0        4.894497   -1.285956    0.048912
     12          6           0        4.412957   -0.319461    1.177615
     13          6           0        2.987914    0.062254    1.221731
     14          6           0        2.040953   -0.518209    2.017017
     15          6           0        0.781384   -0.047590    1.777034
     16          6           0        0.983452    0.914667    0.765628
     17          6           0        6.395055   -1.437503   -0.074045
     18          6           0       -0.574207   -0.370370    2.468408
     19          6           0        6.673040   -1.099779   -1.439271
     20          6           0        0.150759    1.870273    0.091989
     21          6           0       -1.099621    1.717150   -0.292774
     22          6           0        5.465342   -0.733114   -2.177806
     23          6           0       -1.836205    2.930261   -0.810292
     24          6           0        2.339834   -1.597551    3.112145
     25          6           0        7.147511   -1.839729    1.045110
     26          6           0       -3.108939    2.499651   -1.280206
     27          6           0       -1.059664   -1.678309    2.446480
     28          6           0       -3.116882    0.961355   -0.990584
     29          6           0       -1.419712    4.353147   -0.957412
     30          6           0        7.969292   -0.977610   -2.053889
     31          6           0       -1.526106    5.115799    0.448653
     32          6           0       -4.130704    3.222792   -1.962238
     33          6           0       -4.110943    0.109742   -1.285669
     34          6           0       -2.459894   -1.762044    3.082400
     35          6           0       -3.880011   -1.325383   -1.047582
     36          6           0        9.245504   -0.910499   -1.561351
     37          6           0       -0.983943    6.489334    0.417921
     38          6           0       -4.878289   -2.411206   -1.481317
     39          6           0       -4.255496   -3.553701   -1.133579
     40          6           0       -2.970790   -3.162525   -0.484835
     41          6           0       -6.117618   -2.120116   -2.027716
     42          6           0       -4.700420   -4.944512   -1.183424
     43          6           0       -7.029524   -3.133752   -2.360279
     44          1           0        4.429403   -2.268756    0.278889
     45          1           0        4.715296    0.750207    0.940065
     46          1           0        4.739316   -0.674205    2.194616
     47          1           0        2.570969    1.511231   -0.257342
     48          1           0        3.455525   -0.822970   -1.623651
     49          1           0       -0.639906    0.023911    3.443370
     50          1           0       -1.343585    0.347578    2.112484
     51          1           0        0.584459    2.911560   -0.007588
     52          1           0        3.439479   -1.793594    3.450196
     53          1           0        1.781135   -1.147313    4.194937
     54          1           0        1.933508   -2.670990    2.867917
     55          1           0        6.431035   -2.519641    1.598203
     56          1           0        7.361072   -0.960022    1.761272
     57          1           0        8.070604   -2.273687    0.834199
     58          1           0       -1.257083   -2.225727    1.473573
     59          1           0       -0.374877   -2.278342    3.050127
     60          1           0       -1.574389   -0.353359   -0.360847
     61          1           0       -2.094392    4.895221   -1.695438
     62          1           0       -0.454829    4.388156   -1.437131
     63          1           0        7.826284   -0.988468   -3.240928
     64          1           0       -0.927047    4.562301    1.208838
     65          1           0       -2.661686    5.059701    0.776703
     66          1           0       -3.778855    4.367843   -1.865583
     67          1           0       -5.156144    2.835920   -1.432536
     68          1           0       -4.101064    3.077600   -3.145904
     69          1           0       -4.912691    0.644217   -1.760853
     70          1           0        9.466204   -0.635747   -0.490096
     71          1           0        9.896526   -0.813643   -2.403292
     72          1           0       -3.725911   -3.101611    3.571808
     73          1           0       -6.499652   -1.130803   -2.434392
     74          1           0       -5.022101   -5.323957   -2.243214
     75          1           0       -3.964474   -5.590791   -0.785402
     76          1           0       -5.759496   -5.245682   -0.641342
     77          1           0       -0.813153    7.963915    1.665261
     78          1           0       -8.046794   -2.886071   -2.911359
     79          1           0       -7.037292   -4.381809   -2.214169
 ---------------------------------------------------------------------

 SCF Done:  E(RB3LYP) =  -1947.84407804     A.U. after   17 cycles

 Excitation energies and oscillator strengths:

 Excited State   1:      Singlet-A      1.9799 eV  626.23 nm  f=0.4116  <S**2>=0.000
     155 ->156         0.70234
     155 <-156        -0.10437
 This state for optimization and/or second-order correction.
 Total Energy, E(TD-HF/TD-KS) =  -1947.77131958
 Copying the excited state density for this state as the 1-particle RhoCI density.

 The electronic state is 1-A.
 Alpha  occ. eigenvalues --  -19.19380 -19.15316 -19.14107 -19.11879 -19.10160
 Alpha  occ. eigenvalues --  -19.08675 -14.38235 -14.37334 -14.35607 -14.31066
 Alpha  occ. eigenvalues --  -10.32917 -10.30169 -10.27230 -10.26714 -10.26123
 Alpha  occ. eigenvalues --  -10.25895 -10.25696 -10.23810 -10.23374 -10.22900
 Alpha  occ. eigenvalues --  -10.22747 -10.22445 -10.22374 -10.22350 -10.22340
 Alpha  occ. eigenvalues --  -10.22257 -10.22015 -10.21906 -10.21887 -10.21790
 Alpha  occ. eigenvalues --  -10.21319 -10.20731 -10.20683 -10.20513 -10.20164
 Alpha  occ. eigenvalues --  -10.20089 -10.20049 -10.19861 -10.19354 -10.18950
 Alpha  occ. eigenvalues --  -10.18255 -10.18092 -10.18042  -1.09485  -1.08554
 Alpha  occ. eigenvalues --   -1.02665  -1.01029  -1.00707  -0.99958  -0.99498
 Alpha  occ. eigenvalues --   -0.99422  -0.93371  -0.92706  -0.83168  -0.82908
 Alpha  occ. eigenvalues --   -0.82660  -0.82202  -0.82001  -0.80616  -0.78286
 Alpha  occ. eigenvalues --   -0.77934  -0.77667  -0.76247  -0.75202  -0.72700
 Alpha  occ. eigenvalues --   -0.71796  -0.70742  -0.69770  -0.68714  -0.68306
 Alpha  occ. eigenvalues --   -0.66658  -0.66222  -0.64399  -0.61524  -0.61023
 Alpha  occ. eigenvalues --   -0.60055  -0.59032  -0.58436  -0.57699  -0.57254
 Alpha  occ. eigenvalues --   -0.55923  -0.55667  -0.55235  -0.54533  -0.53316
 Alpha  occ. eigenvalues --   -0.52449  -0.51595  -0.50617  -0.50540  -0.50056
 Alpha  occ. eigenvalues --   -0.49749  -0.48915  -0.48771  -0.48328  -0.47869
 Alpha  occ. eigenvalues --   -0.47635  -0.47442  -0.46790  -0.46613  -0.46092
 Alpha  occ. eigenvalues --   -0.45770  -0.45537  -0.44990  -0.44469  -0.43992
 Alpha  occ. eigenvalues --   -0.43790  -0.43439  -0.42978  -0.42607  -0.42397
 Alpha  occ. eigenvalues --   -0.42180  -0.41924  -0.41738  -0.41258  -0.40907
 Alpha  occ. eigenvalues --   -0.40801  -0.40691  -0.40354  -0.40150  -0.39648
 Alpha  occ. eigenvalues --   -0.39386  -0.39131  -0.39082  -0.38876  -0.38598
 Alpha  occ. eigenvalues --   -0.38403  -0.37782  -0.37517  -0.36919  -0.36394
 Alpha  occ. eigenvalues --   -0.36131  -0.35979  -0.34835  -0.34581  -0.34395
 Alpha  occ. eigenvalues --   -0.34107  -0.33357  -0.33020  -0.32174  -0.31528
 Alpha  occ. eigenvalues --   -0.30950  -0.30868  -0.29619  -0.28927  -0.27970
 Alpha  occ. eigenvalues --   -0.27074  -0.26502  -0.25977  -0.25713  -0.24859
 Alpha  occ. eigenvalues --   -0.24571  -0.24320  -0.22961  -0.22861  -0.19313
 Alpha virt. eigenvalues --   -0.11616  -0.06764  -0.06449  -0.02588  -0.01423
 Alpha virt. eigenvalues --    0.01232   0.01558   0.01755   0.02144   0.02759
 Alpha virt. eigenvalues --    0.02771   0.03573   0.04487   0.04623   0.04885

 Mulliken charges:
               1
     1  O   -0.225264
     2  O   -0.210350
     3  O   -0.185554
     4  O   -0.252798
     5  O   -0.211541
     6  O   -0.272389
     7  N    0.013108
     8  N   -0.185182
     9  N   -0.035761
    10  N   -0.222889
    11  C    0.089120
    12  C    0.163516
    13  C   -0.108526
    14  C   -0.111531
    15  C   -0.019006
    16  C   -0.007567
    17  C   -0.127354
    18  C    0.127833
    19  C   -0.081209
    20  C   -0.187441
    21  C    0.115468
    22  C    0.130765
    23  C   -0.122320
    24  C   -0.055445
    25  C    0.104838
    26  C   -0.086083
    27  C    0.006063
    28  C    0.091417
    29  C    0.073638
    30  C   -0.083771
    31  C   -0.040523
    32  C   -0.034629
    33  C   -0.080918
    34  C    0.086387
    35  C    0.108568
    36  C   -0.020976
    37  C    0.155095
    38  C    0.117014
    39  C   -0.132186
    40  C    0.141281
    41  C   -0.061832
    42  C    0.022425
    43  C   -0.136196
    44  H    0.031949
    45  H   -0.002453
    46  H    0.012753
    47  H    0.075320
    48  H    0.139564
    49  H   -0.024223
    50  H   -0.012496
    51  H    0.006996
    52  H    0.017530
    53  H    0.041981
    54  H    0.064746
    55  H    0.024679
    56  H    0.052328
    57  H    0.017701
    58  H    0.077449
    59  H    0.014044
    60  H    0.192900
    61  H    0.016664
    62  H    0.021048
    63  H    0.041914
    64  H    0.058885
    65  H    0.065892
    66  H    0.041084
    67  H    0.069416
    68  H    0.064695
    69  H   -0.035083
    70  H    0.030172
    71  H    0.028118
    72  H    0.170201
    73  H    0.026874
    74  H    0.035002
    75  H    0.020612
    76  H    0.037946
    77  H    0.227164
    78  H    0.038578
    79  H    0.062756
 Sum of Mulliken charges =   0.00000

 Dipole moment (field-independent basis, Debye):
    X=             -1.3152    Y=              3.6211    Z=              2.5815  Tot=              4.6375
 Quadrupole moment (field-independent basis, Debye-Ang):
   XX=           -226.4236   YY=           -251.5716   ZZ=           -266.2345
   XY=             -2.5781   XZ=             43.2097   YZ=              3.8960

 Normal termination of Gaussian 09 at Tue Jul  9 02:05:41 2019.
