 Gaussian 09, Revision D.01,
 Gaussian 09:  ES64L-G09RevD.01 24-Apr-2013

 --------------------------
 # td=(NStates=1) B3LYP/SVP
 --------------------------

 --
 TD
 --
 Symbolic Z-matrix:
 Charge =  0 Multiplicity = 1

                         Standard orientation:
 ---------------------------------------------------------------------
 Center     Atomic      Atomic             Coordinates (Angstroms)
 Number     Number       Type             X           Y           Z
 ---------------------------------------------------------------------
      1          8           0        5.203258   -0.193036   -3.287883
      2          8           0       -2.760954   -3.220213    3.218470
      3          8           0       -3.339234   -0.985529    3.221195
      4          8           0       -1.153253    7.283755    1.502499
      5          8           0       -0.398886    7.099943   -0.631308
      6          8           0       -1.934173   -4.009815   -0.141344
      7          7           0        2.347234    0.860818    0.734527
      8          7           0        4.378826   -0.702012   -1.135598
      9          7           0       -2.004519    0.730058   -0.310136
     10          7           0       -2.618486   -1.824510   -0.594668
     11          6           0        4.790318   -1.241137    0.049853
     12          6           0        4.416513   -0.316543    1.283172
     13          6           0        2.935154   -0.000687    1.413082
     14          6           0        2.011428   -0.671599    2.183248
     15          6           0        0.652057    0.030183    1.814925
     16          6           0        0.945028    0.955586    0.940109
     17          6           0        6.309992   -1.364266   -0.138227
     18          6           0       -0.701925   -0.238560    2.484276
     19          6           0        6.550181   -0.996581   -1.376188
     20          6           0        0.212957    1.935018    0.276204
     21          6           0       -1.086876    1.847685   -0.239278
     22          6           0        5.384345   -0.612666   -2.145843
     23          6           0       -1.901884    2.934692   -0.814576
     24          6           0        2.145531   -1.666480    3.145767
     25          6           0        7.201571   -2.026645    0.872172
     26          6           0       -3.091258    2.440064   -1.256276
     27          6           0       -1.121643   -1.676469    2.494486
     28          6           0       -3.094723    0.993135   -0.996212
     29          6           0       -1.406695    4.296018   -0.861402
     30          6           0        7.913520   -0.974451   -2.233288
     31          6           0       -1.356576    5.105214    0.546449
     32          6           0       -4.212591    3.165574   -1.908052
     33          6           0       -3.981212    0.055889   -1.301515
     34          6           0       -2.570006   -1.896486    3.002768
     35          6           0       -3.791787   -1.340215   -1.097669
     36          6           0        9.117631   -1.083433   -1.700370
     37          6           0       -0.954205    6.568792    0.300062
     38          6           0       -4.729462   -2.430869   -1.492053
     39          6           0       -4.196385   -3.609245   -1.135762
     40          6           0       -2.832321   -3.221141   -0.547558
     41          6           0       -6.090358   -2.188431   -2.005576
     42          6           0       -4.424537   -5.016072   -1.463531
     43          6           0       -7.060632   -3.062945   -2.422387
     44          1           0        4.279684   -2.252561    0.418379
     45          1           0        4.994070    0.688778    1.085722
     46          1           0        4.647961   -0.837051    2.102168
     47          1           0        2.707105    1.395844    0.008855
     48          1           0        3.336902   -0.573891   -1.380582
     49          1           0       -0.823677    0.166914    3.546575
     50          1           0       -1.506928    0.398826    2.104486
     51          1           0        0.764137    2.811373    0.160734
     52          1           0        3.168804   -2.009942    3.300733
     53          1           0        1.662543   -1.624656    4.207877
     54          1           0        1.701953   -2.745452    2.636683
     55          1           0        6.630986   -2.819303    1.241862
     56          1           0        7.758379   -1.451716    1.426573
     57          1           0        7.886863   -2.456593    0.061721
     58          1           0       -1.112338   -2.558053    1.504746
     59          1           0       -0.582313   -2.203088    3.356882
     60          1           0       -1.929717   -0.309147   -0.127142
     61          1           0       -1.786292    4.870708   -1.572065
     62          1           0       -0.322417    3.905750   -1.381329
     63          1           0        8.036073   -0.873337   -3.304727
     64          1           0       -0.718533    4.643970    1.239896
     65          1           0       -2.340684    5.234305    1.009072
     66          1           0       -4.244057    4.295430   -1.859899
     67          1           0       -5.108554    2.863334   -1.471057
     68          1           0       -4.165423    2.911031   -3.021052
     69          1           0       -4.948348    0.280834   -1.664519
     70          1           0        9.476979   -1.041671   -0.705172
     71          1           0       10.164271   -1.047727   -2.218392
     72          1           0       -3.687682   -3.147644    3.592687
     73          1           0       -6.264004   -1.225288   -2.055578
     74          1           0       -4.347155   -5.145868   -2.427762
     75          1           0       -3.709147   -5.629805   -1.147489
     76          1           0       -5.326330   -5.454954   -0.803601
     77          1           0       -0.870684    8.140436    1.375218
     78          1           0       -8.141472   -2.609314   -2.766847
     79          1           0       -6.823309   -3.999358   -2.410414
 ---------------------------------------------------------------------

 SCF Done:  E(RB3LYP) =  -1947.76991558     A.U. after   16 cycles

 Excitation energies and oscillator strengths:

 Excited State   1:      Singlet-A      2.0978 eV  591.02 nm  f=0.3459  <S**2>=0.000
     153 ->156        -0.10459
     154 ->156         0.10373
     155 ->156         0.69151
 This state for optimization and/or second-order correction.
 Total Energy, E(TD-HF/TD-KS) =  -1947.69282233
 Copying the excited state density for this state as the 1-particle RhoCI density.

 The electronic state is 1-A.
 Alpha  occ. eigenvalues --  -19.17772 -19.17438 -19.14569 -19.11753 -19.10854
 Alpha  occ. eigenvalues --  -19.10607 -14.37250 -14.35882 -14.35330 -14.29999
 Alpha  occ. eigenvalues --  -10.33548 -10.30476 -10.29005 -10.26943 -10.25206
 Alpha  occ. eigenvalues --  -10.25201 -10.24044 -10.23965 -10.22730 -10.22352
 Alpha  occ. eigenvalues --  -10.22298 -10.21890 -10.21809 -10.21506 -10.21462
 Alpha  occ. eigenvalues --  -10.21167 -10.21151 -10.20987 -10.20601 -10.20524
 Alpha  occ. eigenvalues --  -10.20444 -10.20083 -10.20039 -10.19909 -10.19908
 Alpha  occ. eigenvalues --  -10.19733 -10.19631 -10.19556 -10.19127 -10.18937
 Alpha  occ. eigenvalues --  -10.18443 -10.18054 -10.17848  -1.09538  -1.08444
 Alpha  occ. eigenvalues --   -1.02223  -1.01487  -1.01394  -0.99771  -0.99561
 Alpha  occ. eigenvalues --   -0.98412  -0.95327  -0.91535  -0.83970  -0.82612
 Alpha  occ. eigenvalues --   -0.82294  -0.81134  -0.80447  -0.79703  -0.78266
 Alpha  occ. eigenvalues --   -0.77602  -0.76698  -0.75972  -0.75710  -0.73661
 Alpha  occ. eigenvalues --   -0.72951  -0.71814  -0.71218  -0.69669  -0.68947
 Alpha  occ. eigenvalues --   -0.66809  -0.66224  -0.64881  -0.61724  -0.60855
 Alpha  occ. eigenvalues --   -0.59896  -0.59774  -0.58687  -0.57658  -0.56983
 Alpha  occ. eigenvalues --   -0.56221  -0.55853  -0.55003  -0.54829  -0.53661
 Alpha  occ. eigenvalues --   -0.52678  -0.52215  -0.51823  -0.51113  -0.49925
 Alpha  occ. eigenvalues --   -0.49391  -0.48392  -0.48185  -0.47925  -0.47894
 Alpha  occ. eigenvalues --   -0.47751  -0.47226  -0.46515  -0.46348  -0.46231
 Alpha  occ. eigenvalues --   -0.45871  -0.45735  -0.45111  -0.44784  -0.44631
 Alpha  occ. eigenvalues --   -0.43978  -0.43617  -0.43017  -0.42755  -0.42584
 Alpha  occ. eigenvalues --   -0.42321  -0.42009  -0.41710  -0.41557  -0.41417
 Alpha  occ. eigenvalues --   -0.41311  -0.40905  -0.40648  -0.40542  -0.40218
 Alpha  occ. eigenvalues --   -0.39803  -0.39729  -0.39289  -0.39247  -0.38738
 Alpha  occ. eigenvalues --   -0.38074  -0.37841  -0.37673  -0.37318  -0.37187
 Alpha  occ. eigenvalues --   -0.36816  -0.36279  -0.34989  -0.34502  -0.33900
 Alpha  occ. eigenvalues --   -0.33489  -0.33231  -0.32789  -0.31640  -0.31580
 Alpha  occ. eigenvalues --   -0.31000  -0.30404  -0.29487  -0.29189  -0.28272
 Alpha  occ. eigenvalues --   -0.26578  -0.26462  -0.26017  -0.25851  -0.25575
 Alpha  occ. eigenvalues --   -0.24821  -0.24284  -0.23197  -0.21931  -0.19512
 Alpha virt. eigenvalues --   -0.10986  -0.06469  -0.05616  -0.01596  -0.01043
 Alpha virt. eigenvalues --    0.00626   0.02233   0.02349   0.02840   0.03462
 Alpha virt. eigenvalues --    0.04587   0.04808   0.05388   0.05681   0.05830

 Mulliken charges:
               1
     1  O   -0.218368
     2  O   -0.183769
     3  O   -0.240693
     4  O   -0.202924
     5  O   -0.201479
     6  O   -0.244568
     7  N    0.059826
     8  N   -0.221184
     9  N   -0.095921
    10  N   -0.292907
    11  C    0.010399
    12  C    0.260110
    13  C   -0.164079
    14  C   -0.102306
    15  C   -0.035917
    16  C    0.076037
    17  C   -0.186495
    18  C    0.084349
    19  C   -0.054029
    20  C   -0.110428
    21  C    0.157434
    22  C    0.183619
    23  C   -0.060545
    24  C   -0.013832
    25  C    0.200894
    26  C   -0.116140
    27  C   -0.129990
    28  C    0.130162
    29  C    0.060203
    30  C    0.068110
    31  C    0.061700
    32  C    0.102646
    33  C   -0.113655
    34  C    0.128748
    35  C    0.069182
    36  C   -0.101506
    37  C    0.134531
    38  C    0.055905
    39  C   -0.231531
    40  C    0.165360
    41  C    0.029354
    42  C    0.225544
    43  C    0.051151
    44  H    0.031051
    45  H    0.001144
    46  H   -0.055230
    47  H    0.076046
    48  H    0.147374
    49  H    0.009113
    50  H   -0.001002
    51  H   -0.027131
    52  H   -0.019122
    53  H    0.044606
    54  H    0.038743
    55  H    0.009186
    56  H    0.001663
    57  H    0.035529
    58  H    0.132372
    59  H    0.033457
    60  H    0.166808
    61  H   -0.039411
    62  H    0.048626
    63  H    0.020113
    64  H    0.038167
    65  H    0.044401
    66  H    0.018174
    67  H    0.012871
    68  H    0.040540
    69  H   -0.051658
    70  H   -0.005658
    71  H    0.029495
    72  H    0.175548
    73  H   -0.091596
    74  H   -0.008041
    75  H   -0.037696
    76  H    0.037114
    77  H    0.146056
    78  H    0.056605
    79  H   -0.051251
 Sum of Mulliken charges =   0.00000

 Dipole moment (field-independent basis, Debye):
    X=              0.1499    Y=              2.1419    Z=              2.6134  Tot=              3.3823
 Quadrupole moment (field-independent basis, Debye-Ang):
   XX=           -212.9077   YY=           -247.1087   ZZ=           -264.3626
   XY=             -8.8322   XZ=             30.0866   YZ=              3.0470

 Normal termination of Gaussian 09 at Tue Jul  9 09:58:36 2019.
