 Gaussian 09, Revision D.01,
 Gaussian 09:  ES64L-G09RevD.01 24-Apr-2013

 --------------------------
 # td=(NStates=1) B3LYP/SVP
 --------------------------

 --
 TD
 --
 Symbolic Z-matrix:
 Charge =  0 Multiplicity = 1

                         Standard orientation:
 ---------------------------------------------------------------------
 Center     Atomic      Atomic             Coordinates (Angstroms)
 Number     Number       Type             X           Y           Z
 ---------------------------------------------------------------------
      1          8           0        5.252261   -0.263779   -3.342176
      2          8           0       -3.094531   -3.126439    2.946902
      3          8           0       -3.127903   -0.775368    3.291813
      4          8           0       -1.446613    7.206311    1.428316
      5          8           0       -0.384986    6.907796   -0.485995
      6          8           0       -1.980153   -4.039438   -0.146489
      7          7           0        2.396717    0.900658    0.561280
      8          7           0        4.359365   -0.546173   -1.280605
      9          7           0       -1.920386    0.658906   -0.274637
     10          7           0       -2.633355   -1.845768   -0.509162
     11          6           0        4.870744   -1.219484    0.032601
     12          6           0        4.497794   -0.318940    1.237212
     13          6           0        2.975370   -0.018123    1.360957
     14          6           0        2.038842   -0.646176    2.081785
     15          6           0        0.807055   -0.106669    1.787411
     16          6           0        0.996394    0.881312    0.851047
     17          6           0        6.349438   -1.312825   -0.142462
     18          6           0       -0.452385   -0.323492    2.514497
     19          6           0        6.702175   -0.951097   -1.404176
     20          6           0        0.229831    1.967554    0.177294
     21          6           0       -1.164957    1.878339   -0.313859
     22          6           0        5.329519   -0.579675   -2.172769
     23          6           0       -2.004750    2.978210   -0.851261
     24          6           0        2.262417   -1.637866    3.213473
     25          6           0        7.145222   -1.904006    0.910249
     26          6           0       -3.206194    2.386357   -1.218859
     27          6           0       -1.116791   -1.696601    2.475217
     28          6           0       -3.110741    0.965284   -0.911359
     29          6           0       -1.569218    4.470038   -0.932114
     30          6           0        7.902141   -0.818542   -2.184121
     31          6           0       -1.751933    5.176701    0.422652
     32          6           0       -4.293016    3.094116   -1.871769
     33          6           0       -3.969530   -0.016945   -1.267116
     34          6           0       -2.530435   -1.825779    3.014317
     35          6           0       -3.708234   -1.359576   -1.064018
     36          6           0        9.141369   -0.987969   -1.572709
     37          6           0       -1.090575    6.506676    0.446443
     38          6           0       -4.739753   -2.457764   -1.412318
     39          6           0       -4.177578   -3.669111   -0.981916
     40          6           0       -2.767189   -3.288557   -0.514497
     41          6           0       -5.945434   -2.225250   -2.087465
     42          6           0       -4.490604   -5.116756   -1.117129
     43          6           0       -6.833369   -3.233552   -2.525069
     44          1           0        4.464637   -2.266252    0.236441
     45          1           0        5.289027    0.512619    0.860806
     46          1           0        4.967958   -0.752987    2.187739
     47          1           0        2.790022    1.419569   -0.106174
     48          1           0        3.511959   -1.151760   -1.793977
     49          1           0       -0.252038   -0.062744    3.525713
     50          1           0       -1.303070    0.310143    2.368397
     51          1           0        0.683402    2.960013   -0.176403
     52          1           0        3.412201   -1.822924    3.622464
     53          1           0        1.734915   -1.209360    4.099468
     54          1           0        2.105290   -2.593824    2.934999
     55          1           0        6.561059   -2.324470    1.658768
     56          1           0        7.590859   -1.015962    1.616158
     57          1           0        8.026995   -2.402888    0.578413
     58          1           0       -1.355190   -2.156157    1.352794
     59          1           0       -0.583729   -2.294679    3.167965
     60          1           0       -1.692607   -0.389352    0.028697
     61          1           0       -1.941647    5.073747   -1.880017
     62          1           0       -0.288659    4.452375   -1.111063
     63          1           0        7.803732   -0.550630   -3.277090
     64          1           0       -1.067140    4.702136    1.199107
     65          1           0       -2.774499    5.129491    0.923857
     66          1           0       -4.052849    4.196326   -2.120137
     67          1           0       -5.416988    3.202844   -1.453697
     68          1           0       -4.626074    2.383370   -2.702118
     69          1           0       -5.041071    0.236210   -1.556344
     70          1           0        9.245201   -1.105476   -0.422646
     71          1           0       10.034272   -1.055564   -1.991381
     72          1           0       -4.087088   -2.996792    3.189356
     73          1           0       -6.086285   -1.114573   -2.300586
     74          1           0       -4.176150   -5.553910   -2.175307
     75          1           0       -3.608882   -5.606231   -0.437183
     76          1           0       -5.524662   -5.657507   -0.746524
     77          1           0       -1.090223    7.956598    1.225712
     78          1           0       -7.844104   -3.024165   -3.120873
     79          1           0       -6.523302   -4.412246   -2.303448
 ---------------------------------------------------------------------

 SCF Done:  E(RB3LYP) =  -1947.78268526     A.U. after   16 cycles

 Excitation energies and oscillator strengths:

 Excited State   1:      Singlet-A      2.1245 eV  583.60 nm  f=0.4820  <S**2>=0.000
     155 ->156         0.69652
     155 <-156        -0.10540
 This state for optimization and/or second-order correction.
 Total Energy, E(TD-HF/TD-KS) =  -1947.70461289
 Copying the excited state density for this state as the 1-particle RhoCI density.

 The electronic state is 1-A.
 Alpha  occ. eigenvalues --  -19.20349 -19.17905 -19.12404 -19.11939 -19.11406
 Alpha  occ. eigenvalues --  -19.10523 -14.36893 -14.36799 -14.36424 -14.29638
 Alpha  occ. eigenvalues --  -10.32549 -10.31339 -10.28336 -10.26733 -10.25571
 Alpha  occ. eigenvalues --  -10.25139 -10.24187 -10.23933 -10.23192 -10.23184
 Alpha  occ. eigenvalues --  -10.23055 -10.22984 -10.22831 -10.22174 -10.22015
 Alpha  occ. eigenvalues --  -10.22001 -10.21800 -10.21663 -10.21268 -10.21147
 Alpha  occ. eigenvalues --  -10.21123 -10.21079 -10.20890 -10.20486 -10.20170
 Alpha  occ. eigenvalues --  -10.20095 -10.19948 -10.19813 -10.19334 -10.18825
 Alpha  occ. eigenvalues --  -10.18272 -10.18188 -10.17981  -1.17380  -1.05991
 Alpha  occ. eigenvalues --   -1.05509  -1.03252  -1.01104  -0.98789  -0.98321
 Alpha  occ. eigenvalues --   -0.96303  -0.93650  -0.92030  -0.83280  -0.82695
 Alpha  occ. eigenvalues --   -0.82106  -0.80263  -0.80027  -0.79256  -0.78520
 Alpha  occ. eigenvalues --   -0.77514  -0.76182  -0.74683  -0.73608  -0.72385
 Alpha  occ. eigenvalues --   -0.71240  -0.71070  -0.69348  -0.68819  -0.67885
 Alpha  occ. eigenvalues --   -0.66925  -0.65206  -0.63170  -0.61797  -0.60602
 Alpha  occ. eigenvalues --   -0.59610  -0.58887  -0.57805  -0.56900  -0.56021
 Alpha  occ. eigenvalues --   -0.55401  -0.55151  -0.54426  -0.53914  -0.52699
 Alpha  occ. eigenvalues --   -0.52011  -0.51586  -0.51467  -0.50703  -0.50457
 Alpha  occ. eigenvalues --   -0.50328  -0.49161  -0.48088  -0.47887  -0.47194
 Alpha  occ. eigenvalues --   -0.46922  -0.46577  -0.46506  -0.46071  -0.45948
 Alpha  occ. eigenvalues --   -0.45137  -0.44392  -0.44269  -0.43923  -0.43594
 Alpha  occ. eigenvalues --   -0.43317  -0.43212  -0.42864  -0.42608  -0.42378
 Alpha  occ. eigenvalues --   -0.42271  -0.41864  -0.41529  -0.41242  -0.40906
 Alpha  occ. eigenvalues --   -0.40684  -0.40383  -0.40338  -0.40075  -0.39497
 Alpha  occ. eigenvalues --   -0.38981  -0.38855  -0.38685  -0.38155  -0.37991
 Alpha  occ. eigenvalues --   -0.37608  -0.37341  -0.37124  -0.36955  -0.36082
 Alpha  occ. eigenvalues --   -0.35898  -0.35672  -0.35378  -0.34992  -0.34477
 Alpha  occ. eigenvalues --   -0.33781  -0.33036  -0.32616  -0.32380  -0.31928
 Alpha  occ. eigenvalues --   -0.31265  -0.30927  -0.28941  -0.28553  -0.28478
 Alpha  occ. eigenvalues --   -0.28069  -0.26253  -0.25733  -0.25452  -0.25227
 Alpha  occ. eigenvalues --   -0.24365  -0.24026  -0.23323  -0.21716  -0.18804
 Alpha virt. eigenvalues --   -0.10477  -0.06770  -0.06272  -0.00930  -0.00296
 Alpha virt. eigenvalues --    0.00237   0.00474   0.01679   0.02183   0.02443
 Alpha virt. eigenvalues --    0.03599   0.04469   0.04511   0.05061   0.05154

 Mulliken charges:
               1
     1  O   -0.214829
     2  O   -0.254947
     3  O   -0.257800
     4  O    0.007708
     5  O   -0.271036
     6  O   -0.121468
     7  N   -0.020020
     8  N   -0.190018
     9  N   -0.171751
    10  N   -0.317865
    11  C    0.048465
    12  C    0.058299
    13  C   -0.022112
    14  C   -0.123578
    15  C   -0.031381
    16  C    0.073653
    17  C   -0.179629
    18  C    0.093866
    19  C   -0.050464
    20  C   -0.074384
    21  C    0.050896
    22  C    0.098803
    23  C   -0.037170
    24  C    0.093871
    25  C    0.133931
    26  C   -0.065310
    27  C   -0.044161
    28  C    0.182533
    29  C   -0.040658
    30  C   -0.011377
    31  C    0.001743
    32  C   -0.009420
    33  C   -0.200730
    34  C    0.155656
    35  C    0.107767
    36  C   -0.013040
    37  C    0.070867
    38  C    0.038684
    39  C   -0.165146
    40  C    0.147105
    41  C   -0.032579
    42  C   -0.076202
    43  C   -0.102709
    44  H    0.033211
    45  H    0.021057
    46  H    0.019907
    47  H    0.071046
    48  H    0.182771
    49  H   -0.017712
    50  H   -0.003980
    51  H    0.009565
    52  H    0.000144
    53  H    0.037147
    54  H    0.005829
    55  H   -0.011359
    56  H    0.032538
    57  H    0.034017
    58  H    0.124337
    59  H    0.006572
    60  H    0.214650
    61  H    0.064705
    62  H    0.057539
    63  H    0.035850
    64  H    0.044521
    65  H    0.055689
    66  H    0.038327
    67  H    0.035960
    68  H    0.032391
    69  H   -0.000762
    70  H    0.025489
    71  H   -0.013953
    72  H    0.209875
    73  H   -0.001617
    74  H    0.056592
    75  H    0.052560
    76  H    0.063222
    77  H    0.100957
    78  H    0.056692
    79  H    0.062161
 Sum of Mulliken charges =   0.00000

 Dipole moment (field-independent basis, Debye):
    X=              0.4458    Y=              1.6821    Z=              3.4702  Tot=              3.8820
 Quadrupole moment (field-independent basis, Debye-Ang):
   XX=           -217.9792   YY=           -241.6388   ZZ=           -265.0923
   XY=            -16.3725   XZ=             29.8880   YZ=              4.7983

 Normal termination of Gaussian 09 at Sun Jul  7 16:05:27 2019.
