 Gaussian 09, Revision D.01,
 Gaussian 09:  ES64L-G09RevD.01 24-Apr-2013

 --------------------------
 # td=(NStates=1) B3LYP/SVP
 --------------------------

 --
 TD
 --
 Symbolic Z-matrix:
 Charge =  0 Multiplicity = 1

                         Standard orientation:
 ---------------------------------------------------------------------
 Center     Atomic      Atomic             Coordinates (Angstroms)
 Number     Number       Type             X           Y           Z
 ---------------------------------------------------------------------
      1          8           0        5.322628   -0.210064   -3.348073
      2          8           0       -2.767628   -3.113843    3.204552
      3          8           0       -3.149068   -0.926211    3.326928
      4          8           0       -1.816306    7.122522    1.608769
      5          8           0       -0.800051    7.058528   -0.400080
      6          8           0       -1.976554   -3.945790   -0.060245
      7          7           0        2.412216    0.864235    0.547658
      8          7           0        4.357660   -0.740166   -1.205000
      9          7           0       -1.892964    0.690424   -0.415815
     10          7           0       -2.709695   -1.809734   -0.599637
     11          6           0        4.969439   -1.153237    0.070012
     12          6           0        4.549376   -0.298919    1.238395
     13          6           0        3.052607   -0.106531    1.418950
     14          6           0        2.024297   -0.748367    2.168822
     15          6           0        0.778173   -0.043365    1.816700
     16          6           0        1.110073    0.881921    0.742927
     17          6           0        6.494297   -1.232840   -0.176743
     18          6           0       -0.459368   -0.381862    2.495000
     19          6           0        6.790857   -0.792603   -1.463814
     20          6           0        0.190759    1.866971    0.054359
     21          6           0       -1.109765    1.820812   -0.304719
     22          6           0        5.426919   -0.506188   -2.167525
     23          6           0       -1.951601    2.979656   -0.861655
     24          6           0        2.238357   -1.806717    3.155157
     25          6           0        7.362909   -1.779816    0.883989
     26          6           0       -3.092229    2.325846   -1.326893
     27          6           0       -1.025804   -1.867188    2.519913
     28          6           0       -3.034633    0.934108   -0.990386
     29          6           0       -1.436208    4.329007   -0.879304
     30          6           0        7.993095   -0.580777   -2.224516
     31          6           0       -1.702617    4.999004    0.533419
     32          6           0       -4.377145    3.023527   -1.788440
     33          6           0       -4.037958    0.020797   -1.368333
     34          6           0       -2.394541   -1.891761    2.977531
     35          6           0       -3.871604   -1.343979   -1.150324
     36          6           0        9.189955   -0.601229   -1.622892
     37          6           0       -1.325102    6.451559    0.553450
     38          6           0       -4.749622   -2.438045   -1.523716
     39          6           0       -4.024763   -3.636790   -1.181369
     40          6           0       -2.720282   -3.167291   -0.568880
     41          6           0       -6.096101   -2.274404   -2.051120
     42          6           0       -4.548425   -5.094475   -1.150689
     43          6           0       -6.939173   -3.225865   -2.476191
     44          1           0        4.547444   -2.284370    0.130899
     45          1           0        4.902729    0.866520    1.185209
     46          1           0        4.952240   -0.843379    2.063208
     47          1           0        2.894186    1.435431   -0.100984
     48          1           0        3.474363   -0.789617   -1.668071
     49          1           0       -0.466539   -0.184834    3.596599
     50          1           0       -1.349245    0.310136    2.287056
     51          1           0        0.628559    2.795431   -0.252843
     52          1           0        3.187390   -1.854237    3.357472
     53          1           0        1.556230   -1.586928    4.046817
     54          1           0        1.955597   -2.794384    2.677310
     55          1           0        6.884150   -2.533987    1.454410
     56          1           0        7.681417   -0.969406    1.689689
     57          1           0        8.292173   -2.130824    0.544351
     58          1           0       -1.203025   -2.394019    1.647792
     59          1           0       -0.335997   -2.289469    3.102877
     60          1           0       -1.805927   -0.386532   -0.232517
     61          1           0       -2.014493    4.882499   -1.618639
     62          1           0       -0.422274    4.336948   -1.118104
     63          1           0        7.804831   -0.366381   -3.371387
     64          1           0       -1.254525    4.342842    1.468883
     65          1           0       -2.836281    4.772128    0.745384
     66          1           0       -4.354687    4.102346   -1.663095
     67          1           0       -5.289246    2.533930   -1.072005
     68          1           0       -4.936035    2.980492   -2.787629
     69          1           0       -4.972839    0.364771   -1.881010
     70          1           0        9.283161   -0.965306   -0.404344
     71          1           0        9.961545   -0.276171   -2.216443
     72          1           0       -3.802144   -3.051813    3.422019
     73          1           0       -6.263764   -1.137121   -2.490497
     74          1           0       -4.262034   -5.503297   -2.257209
     75          1           0       -3.724461   -5.799422   -0.675149
     76          1           0       -5.716423   -5.237811   -0.924303
     77          1           0       -1.472689    8.040115    1.452740
     78          1           0       -7.885556   -2.855274   -2.841933
     79          1           0       -6.957552   -4.409183   -2.348498
 ---------------------------------------------------------------------

 SCF Done:  E(RB3LYP) =  -1947.84857886     A.U. after   17 cycles

 Excitation energies and oscillator strengths:

 Excited State   1:      Singlet-A      2.1137 eV  586.59 nm  f=0.2937  <S**2>=0.000
     154 ->156         0.33423
     155 ->156         0.61614
 This state for optimization and/or second-order correction.
 Total Energy, E(TD-HF/TD-KS) =  -1947.77090363
 Copying the excited state density for this state as the 1-particle RhoCI density.

 The electronic state is 1-A.
 Alpha  occ. eigenvalues --  -19.19770 -19.17785 -19.13661 -19.10955 -19.10025
 Alpha  occ. eigenvalues --  -19.09795 -14.38429 -14.36415 -14.35152 -14.28502
 Alpha  occ. eigenvalues --  -10.33574 -10.30162 -10.29020 -10.26528 -10.25865
 Alpha  occ. eigenvalues --  -10.24703 -10.24406 -10.24141 -10.23976 -10.23390
 Alpha  occ. eigenvalues --  -10.23063 -10.22986 -10.22885 -10.22399 -10.22148
 Alpha  occ. eigenvalues --  -10.22019 -10.21629 -10.21525 -10.21356 -10.21202
 Alpha  occ. eigenvalues --  -10.21140 -10.21015 -10.20739 -10.20543 -10.20383
 Alpha  occ. eigenvalues --  -10.19779 -10.19712 -10.19710 -10.19569 -10.19316
 Alpha  occ. eigenvalues --  -10.19255 -10.18986 -10.17220  -1.10695  -1.08859
 Alpha  occ. eigenvalues --   -1.02540  -1.02126  -1.00138  -0.99805  -0.98273
 Alpha  occ. eigenvalues --   -0.95641  -0.92555  -0.91843  -0.83615  -0.82342
 Alpha  occ. eigenvalues --   -0.81715  -0.81322  -0.79742  -0.79129  -0.77919
 Alpha  occ. eigenvalues --   -0.77712  -0.76809  -0.75813  -0.73460  -0.73038
 Alpha  occ. eigenvalues --   -0.71783  -0.71713  -0.69823  -0.68824  -0.68414
 Alpha  occ. eigenvalues --   -0.67657  -0.65425  -0.63567  -0.60693  -0.60090
 Alpha  occ. eigenvalues --   -0.59767  -0.59006  -0.58536  -0.57867  -0.56593
 Alpha  occ. eigenvalues --   -0.56451  -0.55949  -0.54896  -0.54186  -0.52619
 Alpha  occ. eigenvalues --   -0.52029  -0.51613  -0.51046  -0.50304  -0.49834
 Alpha  occ. eigenvalues --   -0.49462  -0.49212  -0.48328  -0.47869  -0.47662
 Alpha  occ. eigenvalues --   -0.46852  -0.46641  -0.46512  -0.46207  -0.45522
 Alpha  occ. eigenvalues --   -0.45422  -0.44658  -0.44463  -0.43941  -0.43602
 Alpha  occ. eigenvalues --   -0.43392  -0.43120  -0.42814  -0.42658  -0.42465
 Alpha  occ. eigenvalues --   -0.42354  -0.42075  -0.41884  -0.41711  -0.40901
 Alpha  occ. eigenvalues --   -0.40682  -0.40639  -0.40210  -0.39957  -0.39942
 Alpha  occ. eigenvalues --   -0.39704  -0.39262  -0.39049  -0.38756  -0.38470
 Alpha  occ. eigenvalues --   -0.38170  -0.37950  -0.37316  -0.36837  -0.36462
 Alpha  occ. eigenvalues --   -0.36260  -0.36123  -0.35663  -0.35444  -0.34660
 Alpha  occ. eigenvalues --   -0.34343  -0.33082  -0.32882  -0.32197  -0.31665
 Alpha  occ. eigenvalues --   -0.30827  -0.29401  -0.29285  -0.28559  -0.27667
 Alpha  occ. eigenvalues --   -0.26138  -0.25941  -0.25890  -0.25644  -0.24266
 Alpha  occ. eigenvalues --   -0.23920  -0.23607  -0.22935  -0.21283  -0.19504
 Alpha virt. eigenvalues --   -0.10876  -0.06494  -0.06307  -0.02665  -0.00625
 Alpha virt. eigenvalues --    0.00766   0.00939   0.01453   0.02591   0.03054
 Alpha virt. eigenvalues --    0.03493   0.04120   0.04318   0.04415   0.04779

 Mulliken charges:
               1
     1  O   -0.226130
     2  O   -0.174981
     3  O   -0.314951
     4  O   -0.172289
     5  O   -0.265437
     6  O   -0.191470
     7  N   -0.046868
     8  N   -0.269560
     9  N   -0.021617
    10  N   -0.323485
    11  C    0.092616
    12  C    0.192566
    13  C   -0.080019
    14  C   -0.174335
    15  C   -0.013523
    16  C    0.045163
    17  C   -0.159422
    18  C   -0.050402
    19  C   -0.045365
    20  C   -0.057385
    21  C    0.082699
    22  C    0.146200
    23  C   -0.108321
    24  C    0.188697
    25  C    0.097028
    26  C   -0.085250
    27  C    0.137606
    28  C    0.079382
    29  C    0.192764
    30  C   -0.043815
    31  C   -0.129986
    32  C   -0.020884
    33  C   -0.134317
    34  C    0.112839
    35  C    0.122540
    36  C   -0.021969
    37  C    0.191340
    38  C    0.021983
    39  C   -0.192003
    40  C    0.146980
    41  C   -0.042877
    42  C   -0.004538
    43  C   -0.069947
    44  H    0.043319
    45  H    0.031652
    46  H   -0.020571
    47  H    0.101314
    48  H    0.132472
    49  H    0.003837
    50  H    0.019558
    51  H   -0.030899
    52  H   -0.060135
    53  H    0.039565
    54  H    0.045090
    55  H    0.010932
    56  H    0.043965
    57  H    0.018233
    58  H    0.021319
    59  H   -0.023821
    60  H    0.184152
    61  H    0.014115
    62  H    0.007835
    63  H    0.051638
    64  H    0.078734
    65  H    0.070574
    66  H    0.013189
    67  H    0.046955
    68  H    0.040639
    69  H   -0.011559
    70  H    0.053320
    71  H    0.003984
    72  H    0.217145
    73  H    0.032040
    74  H    0.037475
    75  H    0.045841
    76  H    0.073084
    77  H    0.191187
    78  H    0.016513
    79  H    0.048051
 Sum of Mulliken charges =   0.00000

 Dipole moment (field-independent basis, Debye):
    X=              1.7388    Y=              2.0870    Z=              2.7943  Tot=              3.8971
 Quadrupole moment (field-independent basis, Debye-Ang):
   XX=           -218.5570   YY=           -245.1551   ZZ=           -266.9790
   XY=             -9.6980   XZ=             31.9245   YZ=              1.4090

 Normal termination of Gaussian 09 at Tue Jul  9 19:35:15 2019.
