 Gaussian 09, Revision D.01,
 Gaussian 09:  ES64L-G09RevD.01 24-Apr-2013

 --------------------------
 # td=(NStates=1) B3LYP/SVP
 --------------------------

 --
 TD
 --
 Symbolic Z-matrix:
 Charge =  0 Multiplicity = 1

                         Standard orientation:
 ---------------------------------------------------------------------
 Center     Atomic      Atomic             Coordinates (Angstroms)
 Number     Number       Type             X           Y           Z
 ---------------------------------------------------------------------
      1          8           0        5.445364   -0.147422   -3.320323
      2          8           0       -2.752839   -3.185646    3.267994
      3          8           0       -3.409948   -0.965396    3.064341
      4          8           0       -1.954358    7.275807    1.286555
      5          8           0       -0.916016    7.061122   -0.642854
      6          8           0       -1.598168   -4.097793   -0.092806
      7          7           0        2.324968    1.035111    0.648801
      8          7           0        4.506175   -0.678678   -1.251144
      9          7           0       -1.897345    0.661136   -0.331684
     10          7           0       -2.520635   -1.996261   -0.518286
     11          6           0        4.858053   -1.146032    0.140031
     12          6           0        4.362575   -0.170592    1.239222
     13          6           0        2.939135    0.061736    1.325042
     14          6           0        2.013175   -0.463894    2.236501
     15          6           0        0.753177    0.114361    1.938086
     16          6           0        0.951571    1.054219    0.820599
     17          6           0        6.375023   -1.198508   -0.076329
     18          6           0       -0.640334   -0.198423    2.625113
     19          6           0        6.664502   -0.769635   -1.379542
     20          6           0        0.179011    1.998754    0.173490
     21          6           0       -1.121270    1.856185   -0.307124
     22          6           0        5.547394   -0.588784   -2.174523
     23          6           0       -2.014449    2.898376   -0.923853
     24          6           0        2.241470   -1.558055    3.158587
     25          6           0        7.296409   -1.597787    1.016095
     26          6           0       -3.241927    2.297800   -1.234003
     27          6           0       -1.112594   -1.639912    2.628841
     28          6           0       -3.128931    0.878589   -0.932941
     29          6           0       -1.636110    4.311348   -0.938609
     30          6           0        7.971486   -0.740979   -2.044596
     31          6           0       -1.879318    5.073352    0.393229
     32          6           0       -4.496363    2.816023   -1.872567
     33          6           0       -4.041413   -0.160115   -1.217771
     34          6           0       -2.584964   -1.837892    3.011760
     35          6           0       -3.631801   -1.537184   -1.052435
     36          6           0        9.234276   -0.571584   -1.559593
     37          6           0       -1.477302    6.510320    0.319809
     38          6           0       -4.512166   -2.700587   -1.457177
     39          6           0       -3.786321   -3.772862   -1.253220
     40          6           0       -2.544750   -3.365167   -0.567202
     41          6           0       -5.986997   -2.495431   -1.819913
     42          6           0       -4.162063   -5.283685   -1.350369
     43          6           0       -6.583576   -3.407008   -2.646702
     44          1           0        4.523561   -2.292641    0.301449
     45          1           0        5.078008    0.866021    1.090143
     46          1           0        4.767038   -0.714187    2.144039
     47          1           0        2.341674    1.551726   -0.350869
     48          1           0        3.528621   -0.720754   -1.521922
     49          1           0       -0.584062    0.176908    3.665861
     50          1           0       -1.461185    0.507257    2.291444
     51          1           0        0.557363    2.923834   -0.198771
     52          1           0        3.326374   -1.375721    3.762879
     53          1           0        1.207250   -1.652571    3.979349
     54          1           0        2.188563   -2.677824    2.684084
     55          1           0        7.044765   -2.314362    1.714959
     56          1           0        7.721361   -0.572275    1.362822
     57          1           0        8.221206   -2.037105    0.503041
     58          1           0       -0.895935   -2.069211    1.495750
     59          1           0       -0.642490   -2.304758    3.187539
     60          1           0       -1.561345   -0.399605    0.035540
     61          1           0       -2.145885    5.007326   -1.698413
     62          1           0       -0.608077    4.448783   -1.337366
     63          1           0        7.901302   -0.919987   -3.006650
     64          1           0       -1.423912    4.574302    1.325391
     65          1           0       -2.887920    5.016051    0.602463
     66          1           0       -4.513921    3.853279   -2.245836
     67          1           0       -5.313155    2.565771   -1.376483
     68          1           0       -4.788162    2.329107   -2.723850
     69          1           0       -4.931079    0.002677   -1.616255
     70          1           0        9.341356   -0.335508   -0.513111
     71          1           0        9.954703   -0.490596   -2.318132
     72          1           0       -3.721562   -3.467704    3.572746
     73          1           0       -6.718904   -1.608860   -1.475502
     74          1           0       -3.804045   -5.746844   -2.423259
     75          1           0       -3.562375   -5.880025   -0.626546
     76          1           0       -5.312404   -5.396297   -1.192459
     77          1           0       -1.638920    8.141461    1.132011
     78          1           0       -7.569340   -3.331057   -2.915585
     79          1           0       -5.850545   -4.332829   -2.955171
 ---------------------------------------------------------------------

 SCF Done:  E(RB3LYP) =  -1947.82119177     A.U. after   17 cycles

 Excitation energies and oscillator strengths:

 Excited State   1:      Singlet-A      2.1169 eV  585.68 nm  f=0.4953  <S**2>=0.000
     155 ->156         0.70331
     155 <-156        -0.12309
 This state for optimization and/or second-order correction.
 Total Energy, E(TD-HF/TD-KS) =  -1947.74339672
 Copying the excited state density for this state as the 1-particle RhoCI density.

 The electronic state is 1-A.
 Alpha  occ. eigenvalues --  -19.19192 -19.17362 -19.12822 -19.12158 -19.09993
 Alpha  occ. eigenvalues --  -19.09497 -14.39530 -14.36998 -14.34411 -14.29168
 Alpha  occ. eigenvalues --  -10.33004 -10.31191 -10.27564 -10.26410 -10.26248
 Alpha  occ. eigenvalues --  -10.25045 -10.24953 -10.24011 -10.23892 -10.23579
 Alpha  occ. eigenvalues --  -10.23385 -10.23384 -10.23093 -10.22134 -10.22023
 Alpha  occ. eigenvalues --  -10.22007 -10.21926 -10.21678 -10.21592 -10.21578
 Alpha  occ. eigenvalues --  -10.20904 -10.20465 -10.20297 -10.20159 -10.20054
 Alpha  occ. eigenvalues --  -10.19924 -10.19727 -10.19326 -10.18862 -10.18803
 Alpha  occ. eigenvalues --  -10.18773 -10.18753 -10.18676  -1.11959  -1.06629
 Alpha  occ. eigenvalues --   -1.01382  -0.99957  -0.99882  -0.99332  -0.98577
 Alpha  occ. eigenvalues --   -0.96030  -0.92851  -0.92136  -0.83137  -0.82540
 Alpha  occ. eigenvalues --   -0.81699  -0.81029  -0.79971  -0.79870  -0.78521
 Alpha  occ. eigenvalues --   -0.77545  -0.76365  -0.75870  -0.74478  -0.73524
 Alpha  occ. eigenvalues --   -0.72540  -0.71001  -0.69693  -0.68918  -0.68341
 Alpha  occ. eigenvalues --   -0.66406  -0.66069  -0.64136  -0.61837  -0.61294
 Alpha  occ. eigenvalues --   -0.60560  -0.58304  -0.58017  -0.57793  -0.57185
 Alpha  occ. eigenvalues --   -0.55930  -0.55465  -0.54944  -0.53935  -0.53419
 Alpha  occ. eigenvalues --   -0.52353  -0.51566  -0.51386  -0.50031  -0.49771
 Alpha  occ. eigenvalues --   -0.48972  -0.48622  -0.48476  -0.47968  -0.47668
 Alpha  occ. eigenvalues --   -0.47503  -0.46983  -0.46374  -0.46201  -0.46013
 Alpha  occ. eigenvalues --   -0.45451  -0.44847  -0.44604  -0.44200  -0.43856
 Alpha  occ. eigenvalues --   -0.43212  -0.43018  -0.42614  -0.42516  -0.42226
 Alpha  occ. eigenvalues --   -0.41934  -0.41575  -0.41368  -0.41288  -0.41024
 Alpha  occ. eigenvalues --   -0.40553  -0.40353  -0.39885  -0.39853  -0.39554
 Alpha  occ. eigenvalues --   -0.39366  -0.39208  -0.39196  -0.38740  -0.38595
 Alpha  occ. eigenvalues --   -0.38375  -0.37948  -0.37760  -0.37563  -0.36561
 Alpha  occ. eigenvalues --   -0.36139  -0.35832  -0.34996  -0.34595  -0.34309
 Alpha  occ. eigenvalues --   -0.33840  -0.32802  -0.32535  -0.32188  -0.31567
 Alpha  occ. eigenvalues --   -0.30887  -0.30354  -0.28850  -0.28625  -0.27343
 Alpha  occ. eigenvalues --   -0.26533  -0.25952  -0.25707  -0.25448  -0.25221
 Alpha  occ. eigenvalues --   -0.24507  -0.24050  -0.23681  -0.23161  -0.19130
 Alpha virt. eigenvalues --   -0.11036  -0.06661  -0.06359  -0.01479  -0.01160
 Alpha virt. eigenvalues --   -0.00719   0.00580   0.01049   0.01542   0.02293
 Alpha virt. eigenvalues --    0.02896   0.03717   0.04095   0.04291   0.04718

 Mulliken charges:
               1
     1  O   -0.240065
     2  O   -0.258109
     3  O   -0.207861
     4  O   -0.125343
     5  O   -0.269239
     6  O   -0.269053
     7  N   -0.080586
     8  N   -0.239932
     9  N   -0.204868
    10  N   -0.230462
    11  C    0.065506
    12  C    0.095741
    13  C    0.002419
    14  C   -0.064425
    15  C   -0.063343
    16  C    0.077672
    17  C   -0.205984
    18  C    0.061667
    19  C   -0.019875
    20  C   -0.098102
    21  C    0.063035
    22  C    0.170969
    23  C   -0.066341
    24  C   -0.108052
    25  C    0.084522
    26  C   -0.123312
    27  C   -0.009393
    28  C    0.157110
    29  C    0.024287
    30  C    0.001166
    31  C    0.040240
    32  C    0.239689
    33  C   -0.038556
    34  C    0.166898
    35  C    0.054785
    36  C    0.022930
    37  C    0.122569
    38  C    0.027565
    39  C   -0.168685
    40  C    0.157600
    41  C   -0.071292
    42  C    0.008817
    43  C   -0.027043
    44  H    0.053962
    45  H    0.045647
    46  H    0.006224
    47  H    0.175233
    48  H    0.112512
    49  H    0.001257
    50  H    0.025630
    51  H   -0.024347
    52  H    0.048016
    53  H    0.054344
    54  H    0.072997
    55  H    0.015156
    56  H    0.060358
    57  H    0.036647
    58  H    0.100312
    59  H   -0.030773
    60  H    0.235014
    61  H    0.022174
    62  H    0.025776
    63  H   -0.046677
    64  H    0.051927
    65  H    0.014398
    66  H    0.014034
    67  H   -0.034908
    68  H   -0.022835
    69  H   -0.105884
    70  H    0.000979
    71  H    0.017843
    72  H    0.217391
    73  H    0.047037
    74  H    0.046917
    75  H    0.038106
    76  H    0.044850
    77  H    0.163730
    78  H   -0.000507
    79  H    0.062195
 Sum of Mulliken charges =   0.00000

 Dipole moment (field-independent basis, Debye):
    X=             -1.0594    Y=              2.0884    Z=              4.0326  Tot=              4.6632
 Quadrupole moment (field-independent basis, Debye-Ang):
   XX=           -217.6816   YY=           -249.2844   ZZ=           -264.1311
   XY=             -9.4079   XZ=             32.6537   YZ=              2.3543

 Normal termination of Gaussian 09 at Sun Jul  7 19:58:49 2019.
