 Gaussian 09, Revision D.01,
 Gaussian 09:  ES64L-G09RevD.01 24-Apr-2013

 --------------------------
 # td=(NStates=1) B3LYP/SVP
 --------------------------

 --
 TD
 --
 Symbolic Z-matrix:
 Charge =  0 Multiplicity = 1

                         Standard orientation:
 ---------------------------------------------------------------------
 Center     Atomic      Atomic             Coordinates (Angstroms)
 Number     Number       Type             X           Y           Z
 ---------------------------------------------------------------------
      1          8           0        5.506297   -0.166548   -3.269843
      2          8           0       -3.039981   -2.980838    3.346974
      3          8           0       -3.212736   -0.700212    2.986967
      4          8           0       -1.796476    7.176380    1.606048
      5          8           0       -0.760765    7.065790   -0.418323
      6          8           0       -1.931660   -4.103974   -0.096651
      7          7           0        2.341906    0.801423    0.594089
      8          7           0        4.528088   -0.644099   -1.272808
      9          7           0       -1.778179    0.547956   -0.512881
     10          7           0       -2.652029   -1.871882   -0.633114
     11          6           0        4.973037   -1.238406   -0.060281
     12          6           0        4.458590   -0.323579    1.219211
     13          6           0        2.923767   -0.104438    1.254720
     14          6           0        2.017630   -0.586664    2.127385
     15          6           0        0.804610   -0.104390    1.738824
     16          6           0        1.056692    0.779857    0.742453
     17          6           0        6.413149   -1.324374   -0.168737
     18          6           0       -0.598323   -0.238799    2.498512
     19          6           0        6.828049   -0.823046   -1.343654
     20          6           0        0.337654    1.846838    0.089852
     21          6           0       -1.004010    1.780109   -0.431137
     22          6           0        5.542723   -0.485188   -2.141758
     23          6           0       -1.879356    2.869757   -0.901471
     24          6           0        2.167812   -1.779075    3.081650
     25          6           0        7.198788   -1.902375    0.993149
     26          6           0       -2.962257    2.356275   -1.298431
     27          6           0       -1.133904   -1.687349    2.535609
     28          6           0       -2.991413    0.930628   -1.064846
     29          6           0       -1.431671    4.372938   -0.874122
     30          6           0        8.158046   -0.808734   -2.031873
     31          6           0       -1.949572    5.092216    0.416220
     32          6           0       -4.197066    3.022784   -1.806811
     33          6           0       -3.880825   -0.038103   -1.406740
     34          6           0       -2.558476   -1.716208    3.003567
     35          6           0       -3.732414   -1.410098   -1.153548
     36          6           0        9.336182   -0.581714   -1.377258
     37          6           0       -1.327104    6.534147    0.497002
     38          6           0       -4.721575   -2.566096   -1.441843
     39          6           0       -4.239706   -3.674571   -0.966316
     40          6           0       -2.767349   -3.354836   -0.483830
     41          6           0       -6.074831   -2.264833   -2.021789
     42          6           0       -4.719886   -5.102836   -1.035117
     43          6           0       -6.958745   -3.091731   -2.584958
     44          1           0        4.445280   -2.312022   -0.084719
     45          1           0        5.013382    0.686555    1.479220
     46          1           0        4.940457   -0.694539    2.206697
     47          1           0        2.874711    1.248773   -0.149703
     48          1           0        3.514369   -0.738171   -1.567969
     49          1           0       -0.541616    0.319263    3.430291
     50          1           0       -1.114919    0.339152    1.739999
     51          1           0        0.843364    2.768862   -0.090636
     52          1           0        3.184886   -1.661665    3.744150
     53          1           0        1.339654   -1.816231    3.988920
     54          1           0        1.974259   -2.679209    2.564433
     55          1           0        6.744226   -2.739307    1.626257
     56          1           0        7.412707   -0.949609    1.545806
     57          1           0        8.290561   -2.219913    0.746573
     58          1           0       -1.096322   -2.138186    1.738362
     59          1           0       -0.571692   -2.354666    3.254748
     60          1           0       -1.462812   -0.386039   -0.311521
     61          1           0       -1.786172    4.727749   -1.675589
     62          1           0       -0.495937    4.425557   -0.922265
     63          1           0        8.239919   -0.976275   -3.243979
     64          1           0       -1.742248    4.491412    1.323433
     65          1           0       -2.989834    4.939903    0.276938
     66          1           0       -4.127607    4.162086   -2.117268
     67          1           0       -5.072500    2.991064   -1.261781
     68          1           0       -4.615079    2.436805   -2.764835
     69          1           0       -4.828798    0.088236   -1.651374
     70          1           0        9.511265   -0.540758   -0.233135
     71          1           0       10.228658   -0.644071   -1.905905
     72          1           0       -3.908877   -2.888076    3.694138
     73          1           0       -6.495883   -1.125433   -1.919132
     74          1           0       -4.948469   -5.501930   -2.114198
     75          1           0       -4.369216   -5.849993   -0.173775
     76          1           0       -5.876548   -5.061663   -1.056680
     77          1           0       -1.582980    8.213724    1.497295
     78          1           0       -7.867443   -2.758606   -2.911315
     79          1           0       -6.788136   -4.229989   -2.791679
 ---------------------------------------------------------------------

 SCF Done:  E(RB3LYP) =  -1947.75902141     A.U. after   16 cycles

 Excitation energies and oscillator strengths:

 Excited State   1:      Singlet-A      2.3208 eV  534.23 nm  f=0.4779  <S**2>=0.000
     155 ->156         0.70171
 This state for optimization and/or second-order correction.
 Total Energy, E(TD-HF/TD-KS) =  -1947.67373381
 Copying the excited state density for this state as the 1-particle RhoCI density.

 The electronic state is 1-A.
 Alpha  occ. eigenvalues --  -19.19547 -19.16766 -19.14279 -19.12410 -19.11553
 Alpha  occ. eigenvalues --  -19.09612 -14.37865 -14.35734 -14.35638 -14.28857
 Alpha  occ. eigenvalues --  -10.33434 -10.30699 -10.27969 -10.27879 -10.25912
 Alpha  occ. eigenvalues --  -10.24246 -10.24097 -10.23320 -10.22481 -10.21907
 Alpha  occ. eigenvalues --  -10.21831 -10.21776 -10.21709 -10.21366 -10.21331
 Alpha  occ. eigenvalues --  -10.21296 -10.21141 -10.20988 -10.20812 -10.20464
 Alpha  occ. eigenvalues --  -10.20297 -10.20201 -10.20190 -10.19881 -10.19857
 Alpha  occ. eigenvalues --  -10.19732 -10.19680 -10.18775 -10.18169 -10.17615
 Alpha  occ. eigenvalues --  -10.17329 -10.16914 -10.16779  -1.09528  -1.07330
 Alpha  occ. eigenvalues --   -1.04575  -1.04172  -1.03909  -1.01381  -0.99733
 Alpha  occ. eigenvalues --   -0.96679  -0.95880  -0.91809  -0.83547  -0.82017
 Alpha  occ. eigenvalues --   -0.81545  -0.80967  -0.80342  -0.78911  -0.77721
 Alpha  occ. eigenvalues --   -0.77089  -0.76440  -0.75145  -0.73859  -0.72001
 Alpha  occ. eigenvalues --   -0.70909  -0.70229  -0.69197  -0.68893  -0.68378
 Alpha  occ. eigenvalues --   -0.67551  -0.65935  -0.64264  -0.61162  -0.60260
 Alpha  occ. eigenvalues --   -0.60021  -0.59570  -0.58990  -0.57139  -0.56926
 Alpha  occ. eigenvalues --   -0.56648  -0.55868  -0.55796  -0.53982  -0.53306
 Alpha  occ. eigenvalues --   -0.52084  -0.51768  -0.51057  -0.50198  -0.49777
 Alpha  occ. eigenvalues --   -0.49176  -0.48857  -0.48586  -0.48094  -0.47357
 Alpha  occ. eigenvalues --   -0.47146  -0.46916  -0.46569  -0.46417  -0.45975
 Alpha  occ. eigenvalues --   -0.44864  -0.44627  -0.44443  -0.44145  -0.43866
 Alpha  occ. eigenvalues --   -0.43745  -0.43529  -0.42655  -0.42588  -0.42332
 Alpha  occ. eigenvalues --   -0.42284  -0.41709  -0.41453  -0.41213  -0.40897
 Alpha  occ. eigenvalues --   -0.40645  -0.40165  -0.39945  -0.39812  -0.39392
 Alpha  occ. eigenvalues --   -0.39260  -0.38937  -0.38852  -0.38724  -0.38421
 Alpha  occ. eigenvalues --   -0.38245  -0.37826  -0.37363  -0.36985  -0.36493
 Alpha  occ. eigenvalues --   -0.36035  -0.35629  -0.35107  -0.34861  -0.34498
 Alpha  occ. eigenvalues --   -0.34194  -0.33723  -0.33520  -0.31639  -0.31330
 Alpha  occ. eigenvalues --   -0.30725  -0.30486  -0.29656  -0.28715  -0.28043
 Alpha  occ. eigenvalues --   -0.27166  -0.26748  -0.26649  -0.25571  -0.25223
 Alpha  occ. eigenvalues --   -0.24607  -0.24213  -0.23766  -0.22963  -0.18637
 Alpha virt. eigenvalues --   -0.09480  -0.05259  -0.04609  -0.01727   0.00003
 Alpha virt. eigenvalues --    0.01204   0.01660   0.01980   0.02331   0.03437
 Alpha virt. eigenvalues --    0.03773   0.04098   0.04497   0.04754   0.05362

 Mulliken charges:
               1
     1  O   -0.167186
     2  O   -0.201540
     3  O   -0.221539
     4  O   -0.238697
     5  O   -0.207721
     6  O   -0.148657
     7  N    0.117916
     8  N   -0.189972
     9  N   -0.131224
    10  N   -0.308048
    11  C    0.101684
    12  C    0.039337
    13  C   -0.143687
    14  C   -0.117774
    15  C   -0.146649
    16  C    0.030680
    17  C   -0.154342
    18  C    0.158376
    19  C   -0.069309
    20  C   -0.112552
    21  C    0.064318
    22  C    0.097953
    23  C   -0.159457
    24  C    0.014938
    25  C    0.036321
    26  C   -0.055002
    27  C    0.161542
    28  C    0.186553
    29  C    0.375794
    30  C   -0.054128
    31  C   -0.027414
    32  C    0.042290
    33  C   -0.017740
    34  C    0.130043
    35  C    0.007016
    36  C   -0.042249
    37  C    0.189036
    38  C    0.090776
    39  C   -0.201784
    40  C    0.180658
    41  C   -0.060533
    42  C    0.023341
    43  C   -0.035159
    44  H    0.049233
    45  H    0.023909
    46  H    0.010513
    47  H    0.109631
    48  H    0.147567
    49  H    0.014697
    50  H   -0.009365
    51  H   -0.021909
    52  H    0.025889
    53  H    0.027900
    54  H    0.033897
    55  H    0.051634
    56  H    0.041092
    57  H    0.036691
    58  H   -0.074629
    59  H    0.015931
    60  H    0.141327
    61  H   -0.061029
    62  H   -0.089600
    63  H    0.066282
    64  H    0.039724
    65  H    0.027548
    66  H    0.031388
    67  H    0.008848
    68  H    0.029477
    69  H   -0.121874
    70  H    0.031319
    71  H    0.008018
    72  H    0.162616
    73  H    0.042860
    74  H    0.038085
    75  H    0.072760
    76  H    0.003911
    77  H    0.222215
    78  H   -0.001428
    79  H    0.028662
 Sum of Mulliken charges =   0.00000

 Dipole moment (field-independent basis, Debye):
    X=             -0.6051    Y=              1.9773    Z=              3.2831  Tot=              3.8800
 Quadrupole moment (field-independent basis, Debye-Ang):
   XX=           -216.5719   YY=           -239.1857   ZZ=           -262.0192
   XY=             -8.7508   XZ=             29.6839   YZ=              5.5804

 Normal termination of Gaussian 09 at Mon Jul  8 14:58:01 2019.
