 Gaussian 09, Revision D.01,
 Gaussian 09:  ES64L-G09RevD.01 24-Apr-2013

 --------------------------
 # td=(NStates=1) B3LYP/SVP
 --------------------------

 --
 TD
 --
 Symbolic Z-matrix:
 Charge =  0 Multiplicity = 1

                         Standard orientation:
 ---------------------------------------------------------------------
 Center     Atomic      Atomic             Coordinates (Angstroms)
 Number     Number       Type             X           Y           Z
 ---------------------------------------------------------------------
      1          8           0        5.204596   -0.514170   -3.325286
      2          8           0       -3.071788   -2.865673    3.243673
      3          8           0       -3.299760   -0.658453    3.391271
      4          8           0       -1.775850    7.181543    1.282490
      5          8           0       -0.257999    6.966184   -0.434545
      6          8           0       -1.835489   -4.067767   -0.116498
      7          7           0        2.462190    0.980182    0.498916
      8          7           0        4.439019   -0.666400   -1.132216
      9          7           0       -1.922737    0.601677   -0.324797
     10          7           0       -2.669748   -1.932089   -0.457110
     11          6           0        4.982214   -1.266433    0.079090
     12          6           0        4.426181   -0.279796    1.234126
     13          6           0        3.027409   -0.002703    1.355978
     14          6           0        2.050875   -0.542275    2.091714
     15          6           0        0.776344   -0.013868    1.793756
     16          6           0        1.040680    0.980256    0.742386
     17          6           0        6.540739   -1.205094   -0.084055
     18          6           0       -0.548046   -0.152246    2.439969
     19          6           0        6.677933   -0.885238   -1.387655
     20          6           0        0.173915    1.811261    0.033875
     21          6           0       -1.093015    1.790173   -0.314491
     22          6           0        5.417427   -0.615100   -2.100175
     23          6           0       -1.923977    2.885484   -0.937957
     24          6           0        2.231623   -1.635220    3.169705
     25          6           0        7.328520   -1.846326    0.975297
     26          6           0       -3.162842    2.349787   -1.292413
     27          6           0       -1.155026   -1.572829    2.577988
     28          6           0       -3.083003    0.932402   -0.931897
     29          6           0       -1.523740    4.266266   -1.044125
     30          6           0        8.066783   -0.830358   -2.111474
     31          6           0       -1.817857    5.060347    0.226269
     32          6           0       -4.220845    3.002011   -1.803237
     33          6           0       -4.057702   -0.025017   -1.233105
     34          6           0       -2.578585   -1.590104    3.166211
     35          6           0       -3.805920   -1.373363   -1.042879
     36          6           0        9.262626   -0.863146   -1.606379
     37          6           0       -1.174773    6.556657    0.234339
     38          6           0       -4.771347   -2.550169   -1.476672
     39          6           0       -4.221201   -3.666329   -1.107437
     40          6           0       -2.709871   -3.267701   -0.374710
     41          6           0       -6.130952   -2.324573   -2.081539
     42          6           0       -4.479407   -5.097041   -1.159679
     43          6           0       -6.878781   -3.388424   -2.562095
     44          1           0        4.559708   -2.185753    0.175422
     45          1           0        4.968613    0.711281    1.093919
     46          1           0        4.810202   -0.911639    2.193030
     47          1           0        2.789926    1.495425   -0.171964
     48          1           0        3.466849   -0.440273   -1.391493
     49          1           0       -0.503365    0.271112    3.476824
     50          1           0       -1.195965    0.641393    1.916429
     51          1           0        0.802371    2.639849   -0.378205
     52          1           0        3.336621   -1.740935    3.529870
     53          1           0        1.508001   -1.326487    3.898343
     54          1           0        2.074011   -2.656806    2.928987
     55          1           0        6.748605   -2.542002    1.765317
     56          1           0        7.866006   -0.957326    1.691025
     57          1           0        8.284829   -2.407701    0.737451
     58          1           0       -1.293729   -2.136154    1.580094
     59          1           0       -0.259921   -2.379293    3.202614
     60          1           0       -1.571868   -0.483036   -0.381942
     61          1           0       -2.063599    4.689160   -1.782942
     62          1           0       -0.334712    4.234831   -1.005408
     63          1           0        7.921817   -0.727137   -3.227523
     64          1           0       -1.383826    4.481925    1.206891
     65          1           0       -2.863360    5.176886    0.486661
     66          1           0       -4.025329    4.024088   -2.377198
     67          1           0       -5.058948    3.243482   -1.081290
     68          1           0       -4.868271    2.318124   -2.591021
     69          1           0       -5.085451    0.403543   -1.662434
     70          1           0        9.583521   -0.904088   -0.484657
     71          1           0       10.187560   -1.091592   -2.250964
     72          1           0       -3.954478   -2.676584    3.486365
     73          1           0       -6.509559   -1.446194   -1.806812
     74          1           0       -4.959522   -5.517975   -2.204027
     75          1           0       -3.740198   -5.911970   -0.925839
     76          1           0       -5.467763   -5.180762   -0.571475
     77          1           0       -1.323935    8.078953    1.146510
     78          1           0       -7.900514   -3.410628   -2.921970
     79          1           0       -6.413349   -4.440358   -2.533366
 ---------------------------------------------------------------------

 SCF Done:  E(RB3LYP) =  -1947.80876410     A.U. after   16 cycles

 Excitation energies and oscillator strengths:

 Excited State   1:      Singlet-A      2.3004 eV  538.98 nm  f=0.2453  <S**2>=0.000
     153 ->156        -0.15907
     154 ->156        -0.44767
     155 ->156         0.51604
 This state for optimization and/or second-order correction.
 Total Energy, E(TD-HF/TD-KS) =  -1947.72422771
 Copying the excited state density for this state as the 1-particle RhoCI density.

 The electronic state is 1-A.
 Alpha  occ. eigenvalues --  -19.20523 -19.16273 -19.15397 -19.12185 -19.09997
 Alpha  occ. eigenvalues --  -19.09986 -14.38300 -14.36943 -14.35553 -14.29570
 Alpha  occ. eigenvalues --  -10.34085 -10.31265 -10.28815 -10.26347 -10.25278
 Alpha  occ. eigenvalues --  -10.25144 -10.24699 -10.24398 -10.24301 -10.24173
 Alpha  occ. eigenvalues --  -10.23764 -10.23472 -10.23005 -10.22946 -10.22213
 Alpha  occ. eigenvalues --  -10.22189 -10.22154 -10.22101 -10.21870 -10.21400
 Alpha  occ. eigenvalues --  -10.20860 -10.20847 -10.20773 -10.20510 -10.20482
 Alpha  occ. eigenvalues --  -10.20124 -10.19819 -10.19784 -10.19756 -10.19488
 Alpha  occ. eigenvalues --  -10.19345 -10.18757 -10.18520  -1.11179  -1.09272
 Alpha  occ. eigenvalues --   -1.02855  -1.01412  -1.00804  -0.99862  -0.98270
 Alpha  occ. eigenvalues --   -0.97320  -0.93977  -0.90244  -0.84655  -0.83267
 Alpha  occ. eigenvalues --   -0.82810  -0.82339  -0.80286  -0.79529  -0.78460
 Alpha  occ. eigenvalues --   -0.77103  -0.76385  -0.75718  -0.73470  -0.72753
 Alpha  occ. eigenvalues --   -0.72109  -0.71667  -0.70199  -0.68619  -0.68202
 Alpha  occ. eigenvalues --   -0.67657  -0.66283  -0.63316  -0.60233  -0.60028
 Alpha  occ. eigenvalues --   -0.59358  -0.59164  -0.59116  -0.58776  -0.56971
 Alpha  occ. eigenvalues --   -0.56302  -0.55547  -0.55038  -0.53854  -0.52847
 Alpha  occ. eigenvalues --   -0.52045  -0.51403  -0.51039  -0.50928  -0.50639
 Alpha  occ. eigenvalues --   -0.49952  -0.49335  -0.49162  -0.48050  -0.47763
 Alpha  occ. eigenvalues --   -0.47346  -0.47119  -0.46359  -0.46240  -0.45921
 Alpha  occ. eigenvalues --   -0.45681  -0.44839  -0.44706  -0.44579  -0.44401
 Alpha  occ. eigenvalues --   -0.43819  -0.43242  -0.42832  -0.42478  -0.42411
 Alpha  occ. eigenvalues --   -0.41951  -0.41894  -0.41690  -0.41546  -0.41037
 Alpha  occ. eigenvalues --   -0.40767  -0.40455  -0.40276  -0.40234  -0.39953
 Alpha  occ. eigenvalues --   -0.39905  -0.39676  -0.39246  -0.38927  -0.38448
 Alpha  occ. eigenvalues --   -0.38356  -0.38087  -0.37635  -0.37041  -0.36963
 Alpha  occ. eigenvalues --   -0.36441  -0.36290  -0.35619  -0.35338  -0.34562
 Alpha  occ. eigenvalues --   -0.33830  -0.33244  -0.33052  -0.31822  -0.31422
 Alpha  occ. eigenvalues --   -0.31367  -0.30900  -0.30114  -0.28318  -0.27626
 Alpha  occ. eigenvalues --   -0.26700  -0.26622  -0.26163  -0.25726  -0.25597
 Alpha  occ. eigenvalues --   -0.25058  -0.23987  -0.22773  -0.21602  -0.19730
 Alpha virt. eigenvalues --   -0.10524  -0.06456  -0.05068  -0.01839  -0.01598
 Alpha virt. eigenvalues --   -0.00201   0.00255   0.00696   0.01982   0.02520
 Alpha virt. eigenvalues --    0.03194   0.03660   0.03673   0.04535   0.04603

 Mulliken charges:
               1
     1  O   -0.248644
     2  O   -0.165218
     3  O   -0.221761
     4  O   -0.188219
     5  O   -0.207618
     6  O   -0.214955
     7  N   -0.081926
     8  N   -0.228273
     9  N   -0.153386
    10  N   -0.302692
    11  C    0.122054
    12  C    0.073860
    13  C    0.021217
    14  C   -0.112056
    15  C   -0.062093
    16  C    0.015582
    17  C   -0.048544
    18  C    0.065211
    19  C   -0.086384
    20  C   -0.109058
    21  C    0.141489
    22  C    0.161074
    23  C   -0.081877
    24  C    0.082020
    25  C   -0.042361
    26  C   -0.012873
    27  C   -0.120111
    28  C    0.108706
    29  C    0.192817
    30  C    0.039805
    31  C   -0.101038
    32  C   -0.066743
    33  C   -0.171145
    34  C    0.155662
    35  C    0.138118
    36  C   -0.089618
    37  C    0.161559
    38  C    0.008702
    39  C   -0.199739
    40  C    0.153715
    41  C    0.060973
    42  C    0.006551
    43  C   -0.046573
    44  H   -0.001198
    45  H    0.010210
    46  H    0.015881
    47  H    0.052906
    48  H    0.137327
    49  H    0.022544
    50  H    0.033762
    51  H   -0.007154
    52  H    0.005898
    53  H    0.027542
    54  H    0.029895
    55  H    0.059071
    56  H    0.053983
    57  H    0.051237
    58  H    0.095348
    59  H    0.059776
    60  H    0.216019
    61  H   -0.029899
    62  H    0.035094
    63  H    0.030445
    64  H    0.066610
    65  H    0.027411
    66  H    0.042168
    67  H    0.044555
    68  H    0.042033
    69  H    0.018723
    70  H    0.028316
    71  H    0.043397
    72  H    0.146726
    73  H   -0.048414
    74  H    0.034841
    75  H    0.051205
    76  H    0.031947
    77  H    0.186236
    78  H    0.021688
    79  H    0.017661
 Sum of Mulliken charges =   0.00000

 Dipole moment (field-independent basis, Debye):
    X=              1.4396    Y=              4.3635    Z=              3.5397  Tot=              5.8001
 Quadrupole moment (field-independent basis, Debye-Ang):
   XX=           -218.4289   YY=           -244.5931   ZZ=           -271.1044
   XY=            -20.5429   XZ=             32.9449   YZ=             -4.5099

 Normal termination of Gaussian 09 at Tue Jul  9 08:54:39 2019.
