 Gaussian 09, Revision D.01,
 Gaussian 09:  ES64L-G09RevD.01 24-Apr-2013

 --------------------------
 # td=(NStates=1) B3LYP/SVP
 --------------------------

 --
 TD
 --
 Symbolic Z-matrix:
 Charge =  0 Multiplicity = 1

                         Standard orientation:
 ---------------------------------------------------------------------
 Center     Atomic      Atomic             Coordinates (Angstroms)
 Number     Number       Type             X           Y           Z
 ---------------------------------------------------------------------
      1          8           0        5.304749   -0.139933   -3.367628
      2          8           0       -2.697266   -3.373303    3.262023
      3          8           0       -3.115354   -1.155004    3.411906
      4          8           0       -1.661915    7.153690    1.595446
      5          8           0       -0.532831    6.972803   -0.337245
      6          8           0       -1.945232   -4.018219   -0.094945
      7          7           0        2.339343    0.989071    0.627046
      8          7           0        4.365929   -0.477859   -1.236650
      9          7           0       -1.922000    0.724001   -0.338465
     10          7           0       -2.681022   -1.877830   -0.401879
     11          6           0        4.844329   -1.137436   -0.045367
     12          6           0        4.481200   -0.179617    1.124536
     13          6           0        2.938917    0.017524    1.378907
     14          6           0        2.078560   -0.658555    2.093158
     15          6           0        0.831669   -0.096433    1.823354
     16          6           0        1.020370    0.911159    0.843914
     17          6           0        6.243036   -1.253657   -0.246941
     18          6           0       -0.414631   -0.410253    2.553322
     19          6           0        6.593992   -0.755295   -1.450512
     20          6           0        0.163282    1.904073    0.237936
     21          6           0       -1.141152    1.859167   -0.167579
     22          6           0        5.339521   -0.388740   -2.289975
     23          6           0       -1.932053    3.034692   -0.740131
     24          6           0        2.369219   -1.652285    3.188666
     25          6           0        7.122694   -1.891178    0.787300
     26          6           0       -3.088152    2.480173   -1.181151
     27          6           0       -0.918305   -1.905186    2.452103
     28          6           0       -3.107781    0.952067   -0.954171
     29          6           0       -1.558388    4.288462   -0.844328
     30          6           0        7.888800   -0.807018   -2.173896
     31          6           0       -1.938166    5.143052    0.429561
     32          6           0       -4.265593    3.123703   -1.855284
     33          6           0       -3.996759   -0.074533   -1.286272
     34          6           0       -2.319973   -2.046716    3.143870
     35          6           0       -3.784379   -1.412368   -1.013711
     36          6           0        9.095850   -0.925332   -1.689362
     37          6           0       -1.317336    6.532780    0.450574
     38          6           0       -4.687626   -2.534419   -1.550425
     39          6           0       -4.087040   -3.663980   -1.238432
     40          6           0       -2.745305   -3.183470   -0.575113
     41          6           0       -6.074754   -2.258939   -2.107885
     42          6           0       -4.399847   -5.091835   -1.393225
     43          6           0       -6.959796   -3.139870   -2.544736
     44          1           0        4.342764   -2.046302    0.146925
     45          1           0        4.858500    0.731347    0.987100
     46          1           0        4.946872   -0.516802    2.039129
     47          1           0        2.912509    1.527711   -0.303403
     48          1           0        3.361955   -0.383307   -1.639814
     49          1           0       -0.171201   -0.188370    3.514358
     50          1           0       -1.190138    0.206714    2.124904
     51          1           0        0.678059    2.809070    0.032597
     52          1           0        3.501447   -1.730268    3.337780
     53          1           0        1.780714   -1.454371    4.037794
     54          1           0        2.112594   -2.666194    2.895138
     55          1           0        6.707581   -2.617598    1.757390
     56          1           0        7.483362   -1.264484    1.501883
     57          1           0        7.922514   -2.474480    0.506053
     58          1           0       -1.070547   -2.252791    1.322468
     59          1           0        0.006621   -2.552663    2.886389
     60          1           0       -1.561025   -0.233293   -0.091733
     61          1           0       -1.945502    4.822879   -1.748915
     62          1           0       -0.434733    4.390181   -0.999234
     63          1           0        8.031749   -0.574847   -3.183193
     64          1           0       -1.492708    4.654607    1.255700
     65          1           0       -2.957333    5.156171    0.366293
     66          1           0       -3.967642    4.030516   -2.303815
     67          1           0       -5.104686    3.249235   -1.319478
     68          1           0       -4.595645    2.515135   -2.797464
     69          1           0       -5.002775    0.095417   -1.695349
     70          1           0        9.189685   -0.957587   -0.584678
     71          1           0       10.118193   -0.848761   -2.086151
     72          1           0       -3.633202   -3.250871    3.653239
     73          1           0       -6.538054   -1.305186   -2.153320
     74          1           0       -4.696817   -5.333351   -2.582429
     75          1           0       -3.623432   -5.439297   -0.665488
     76          1           0       -5.267085   -5.098035   -0.856936
     77          1           0       -1.324791    8.067565    1.400932
     78          1           0       -7.845004   -2.739578   -2.963883
     79          1           0       -6.712192   -4.028475   -3.049837
 ---------------------------------------------------------------------

 SCF Done:  E(RB3LYP) =  -1947.80805646     A.U. after   16 cycles

 Excitation energies and oscillator strengths:

 Excited State   1:      Singlet-A      2.3400 eV  529.84 nm  f=0.4732  <S**2>=0.000
     155 ->156         0.70117
 This state for optimization and/or second-order correction.
 Total Energy, E(TD-HF/TD-KS) =  -1947.72206155
 Copying the excited state density for this state as the 1-particle RhoCI density.

 The electronic state is 1-A.
 Alpha  occ. eigenvalues --  -19.19742 -19.16369 -19.14407 -19.12693 -19.11718
 Alpha  occ. eigenvalues --  -19.08940 -14.38945 -14.37744 -14.35320 -14.28989
 Alpha  occ. eigenvalues --  -10.33216 -10.30996 -10.29013 -10.26052 -10.25312
 Alpha  occ. eigenvalues --  -10.24805 -10.24255 -10.23289 -10.22531 -10.21935
 Alpha  occ. eigenvalues --  -10.21827 -10.21713 -10.21641 -10.21212 -10.20999
 Alpha  occ. eigenvalues --  -10.20802 -10.20713 -10.20587 -10.20350 -10.20190
 Alpha  occ. eigenvalues --  -10.20009 -10.19742 -10.19602 -10.19395 -10.19202
 Alpha  occ. eigenvalues --  -10.18897 -10.18881 -10.18783 -10.18575 -10.18454
 Alpha  occ. eigenvalues --  -10.17874 -10.17772 -10.17631  -1.11715  -1.09947
 Alpha  occ. eigenvalues --   -1.06620  -1.02624  -0.99640  -0.99543  -0.98372
 Alpha  occ. eigenvalues --   -0.97696  -0.94943  -0.92148  -0.85751  -0.82042
 Alpha  occ. eigenvalues --   -0.81853  -0.81434  -0.80668  -0.79492  -0.78517
 Alpha  occ. eigenvalues --   -0.77760  -0.76402  -0.75504  -0.75353  -0.73632
 Alpha  occ. eigenvalues --   -0.71701  -0.71355  -0.70418  -0.69593  -0.69307
 Alpha  occ. eigenvalues --   -0.66866  -0.66180  -0.63923  -0.60749  -0.60134
 Alpha  occ. eigenvalues --   -0.59841  -0.58926  -0.57828  -0.57697  -0.56717
 Alpha  occ. eigenvalues --   -0.55830  -0.55547  -0.54971  -0.54761  -0.53594
 Alpha  occ. eigenvalues --   -0.52690  -0.52511  -0.51916  -0.51548  -0.50958
 Alpha  occ. eigenvalues --   -0.49997  -0.48951  -0.48518  -0.47722  -0.47430
 Alpha  occ. eigenvalues --   -0.47304  -0.46927  -0.46492  -0.46363  -0.46018
 Alpha  occ. eigenvalues --   -0.45696  -0.45393  -0.45038  -0.44642  -0.44502
 Alpha  occ. eigenvalues --   -0.44187  -0.43826  -0.43665  -0.43278  -0.43086
 Alpha  occ. eigenvalues --   -0.42858  -0.42430  -0.42150  -0.42129  -0.42000
 Alpha  occ. eigenvalues --   -0.41583  -0.41218  -0.40795  -0.40699  -0.40426
 Alpha  occ. eigenvalues --   -0.40116  -0.39628  -0.39255  -0.39047  -0.38876
 Alpha  occ. eigenvalues --   -0.38518  -0.37840  -0.37140  -0.36813  -0.36796
 Alpha  occ. eigenvalues --   -0.36329  -0.35350  -0.35227  -0.34574  -0.34242
 Alpha  occ. eigenvalues --   -0.34076  -0.33243  -0.33066  -0.32516  -0.32327
 Alpha  occ. eigenvalues --   -0.30963  -0.30377  -0.29914  -0.28644  -0.27598
 Alpha  occ. eigenvalues --   -0.27511  -0.26889  -0.26772  -0.26269  -0.25273
 Alpha  occ. eigenvalues --   -0.24548  -0.23755  -0.23369  -0.22811  -0.19393
 Alpha virt. eigenvalues --   -0.10207  -0.05312  -0.05064  -0.00998  -0.00595
 Alpha virt. eigenvalues --   -0.00500   0.00901   0.01819   0.02312   0.03187
 Alpha virt. eigenvalues --    0.03569   0.04218   0.04670   0.04971   0.05309

 Mulliken charges:
               1
     1  O   -0.067979
     2  O   -0.218678
     3  O   -0.250908
     4  O   -0.181716
     5  O   -0.206647
     6  O   -0.259000
     7  N   -0.133273
     8  N   -0.327943
     9  N   -0.081324
    10  N   -0.208993
    11  C    0.209561
    12  C    0.249082
    13  C   -0.131939
    14  C   -0.108801
    15  C   -0.136182
    16  C    0.053017
    17  C   -0.102142
    18  C    0.173255
    19  C   -0.075334
    20  C   -0.101463
    21  C    0.106171
    22  C    0.133171
    23  C    0.027527
    24  C    0.142533
    25  C    0.080403
    26  C   -0.153902
    27  C   -0.118543
    28  C    0.156089
    29  C   -0.043333
    30  C    0.019602
    31  C    0.076441
    32  C    0.158488
    33  C   -0.111563
    34  C    0.188414
    35  C    0.041292
    36  C   -0.064837
    37  C    0.118508
    38  C    0.064872
    39  C   -0.251274
    40  C    0.117823
    41  C   -0.020594
    42  C    0.137896
    43  C   -0.019265
    44  H    0.000681
    45  H   -0.069197
    46  H   -0.020776
    47  H    0.195539
    48  H    0.142603
    49  H   -0.019311
    50  H   -0.005758
    51  H   -0.033454
    52  H    0.005358
    53  H    0.009068
    54  H    0.025535
    55  H    0.010218
    56  H    0.002928
    57  H    0.016715
    58  H    0.115341
    59  H    0.036816
    60  H    0.166115
    61  H    0.024169
    62  H    0.018147
    63  H   -0.015767
    64  H    0.034328
    65  H    0.014071
    66  H   -0.015742
    67  H    0.005218
    68  H    0.025493
    69  H   -0.026384
    70  H   -0.006634
    71  H    0.027799
    72  H    0.188766
    73  H   -0.015844
    74  H    0.070450
    75  H    0.040693
    76  H   -0.007286
    77  H    0.183641
    78  H   -0.000867
    79  H   -0.001183
 Sum of Mulliken charges =   0.00000

 Dipole moment (field-independent basis, Debye):
    X=              1.2889    Y=              5.0010    Z=              1.2084  Tot=              5.3039
 Quadrupole moment (field-independent basis, Debye-Ang):
   XX=           -221.2746   YY=           -249.7747   ZZ=           -259.6208
   XY=            -16.8996   XZ=             30.5003   YZ=             -0.0121

 Normal termination of Gaussian 09 at Wed Jul 10 07:20:43 2019.
