 Gaussian 09, Revision D.01,
 Gaussian 09:  ES64L-G09RevD.01 24-Apr-2013

 --------------------------
 # td=(NStates=1) B3LYP/SVP
 --------------------------

 --
 TD
 --
 Symbolic Z-matrix:
 Charge =  0 Multiplicity = 1

                         Standard orientation:
 ---------------------------------------------------------------------
 Center     Atomic      Atomic             Coordinates (Angstroms)
 Number     Number       Type             X           Y           Z
 ---------------------------------------------------------------------
      1          8           0        5.564042   -0.207896   -3.276010
      2          8           0       -2.655133   -3.275605    3.037163
      3          8           0       -3.178222   -1.080207    3.473605
      4          8           0       -1.476366    7.237701    1.376620
      5          8           0       -0.394577    6.728441   -0.631391
      6          8           0       -1.985750   -4.075349   -0.287966
      7          7           0        2.351119    0.976066    0.452551
      8          7           0        4.514481   -0.709055   -1.322176
      9          7           0       -2.013635    0.694927   -0.335663
     10          7           0       -2.791489   -1.888304   -0.522848
     11          6           0        4.859454   -1.232950   -0.030586
     12          6           0        4.448701   -0.150749    1.081968
     13          6           0        2.982732    0.090010    1.198750
     14          6           0        2.001878   -0.496271    1.998488
     15          6           0        0.740634    0.068879    1.671324
     16          6           0        1.045424    1.026924    0.655202
     17          6           0        6.383014   -1.500396   -0.129135
     18          6           0       -0.539866   -0.148072    2.391664
     19          6           0        6.838700   -1.008741   -1.348014
     20          6           0        0.121385    2.110507    0.058445
     21          6           0       -1.164332    1.817051   -0.419180
     22          6           0        5.609009   -0.495046   -2.105613
     23          6           0       -2.042089    2.896035   -0.816359
     24          6           0        2.291600   -1.538726    2.962135
     25          6           0        7.137780   -2.066602    1.053274
     26          6           0       -3.294991    2.457330   -0.975331
     27          6           0       -1.049529   -1.680827    2.336034
     28          6           0       -3.203716    1.071130   -0.821385
     29          6           0       -1.531098    4.341617   -0.896076
     30          6           0        8.177991   -0.967349   -1.907276
     31          6           0       -1.606673    5.091408    0.480619
     32          6           0       -4.480577    3.117193   -1.539515
     33          6           0       -4.129218   -0.047484   -1.170103
     34          6           0       -2.392056   -1.936846    2.984155
     35          6           0       -3.894829   -1.431746   -1.067385
     36          6           0        9.358593   -0.896840   -1.328602
     37          6           0       -1.116632    6.459891    0.308383
     38          6           0       -4.847336   -2.512556   -1.365785
     39          6           0       -4.141014   -3.651587   -1.158591
     40          6           0       -2.787154   -3.257879   -0.637023
     41          6           0       -6.223573   -2.298700   -1.871041
     42          6           0       -4.495197   -5.115801   -1.260065
     43          6           0       -7.172769   -3.129076   -2.281857
     44          1           0        4.223574   -1.993990    0.158854
     45          1           0        5.132077    0.676823    0.915598
     46          1           0        4.793893   -0.380588    2.074273
     47          1           0        2.744396    1.685733   -0.304669
     48          1           0        3.640142   -0.770186   -1.765184
     49          1           0       -0.383957    0.067033    3.445896
     50          1           0       -1.406233    0.493609    2.207738
     51          1           0        0.709001    3.182231   -0.015760
     52          1           0        3.386446   -1.301036    3.363172
     53          1           0        1.689781   -1.342291    3.823841
     54          1           0        1.832295   -2.558077    2.974544
     55          1           0        6.585699   -2.674254    1.775812
     56          1           0        7.384897   -1.062872    1.644423
     57          1           0        8.118712   -2.682184    0.967835
     58          1           0       -1.070179   -2.015953    1.462302
     59          1           0       -0.221676   -2.396561    2.790568
     60          1           0       -1.668391   -0.273459   -0.243556
     61          1           0       -2.199056    5.133030   -1.583081
     62          1           0       -0.508485    4.715902   -1.499823
     63          1           0        8.234393   -1.100115   -3.212689
     64          1           0       -1.013923    4.478258    1.302496
     65          1           0       -2.790222    4.947035    0.748901
     66          1           0       -4.244279    4.143404   -1.585177
     67          1           0       -5.263181    3.157755   -0.805448
     68          1           0       -4.797812    2.738801   -2.496079
     69          1           0       -5.070659    0.359125   -1.507202
     70          1           0        9.559814   -0.661118   -0.130303
     71          1           0       10.298815   -1.033777   -2.042467
     72          1           0       -3.592292   -3.306929    3.252270
     73          1           0       -6.481631   -1.315287   -1.918305
     74          1           0       -4.802181   -5.414836   -2.385174
     75          1           0       -3.939747   -5.690716   -0.796337
     76          1           0       -5.602622   -4.971153   -0.657583
     77          1           0       -0.852398    8.132517    1.319395
     78          1           0       -8.302153   -2.769893   -2.447087
     79          1           0       -6.843624   -4.230476   -2.580303
 ---------------------------------------------------------------------

 SCF Done:  E(RB3LYP) =  -1947.77802054     A.U. after   24 cycles

 Excitation energies and oscillator strengths:

 Excited State   1:      Singlet-A      2.1455 eV  577.89 nm  f=0.4266  <S**2>=0.000
     154 ->156         0.10331
     155 ->156         0.68531
     155 <-156        -0.10205
 This state for optimization and/or second-order correction.
 Total Energy, E(TD-HF/TD-KS) =  -1947.69917656
 Copying the excited state density for this state as the 1-particle RhoCI density.

 The electronic state is 1-A.
 Alpha  occ. eigenvalues --  -19.20925 -19.17212 -19.14932 -19.11627 -19.09958
 Alpha  occ. eigenvalues --  -19.09561 -14.39515 -14.37374 -14.34903 -14.28063
 Alpha  occ. eigenvalues --  -10.33838 -10.31450 -10.28199 -10.25461 -10.25420
 Alpha  occ. eigenvalues --  -10.25193 -10.24916 -10.24651 -10.23482 -10.23367
 Alpha  occ. eigenvalues --  -10.23277 -10.23011 -10.22979 -10.22553 -10.22544
 Alpha  occ. eigenvalues --  -10.22113 -10.21541 -10.21434 -10.21327 -10.21109
 Alpha  occ. eigenvalues --  -10.20829 -10.20376 -10.19636 -10.19585 -10.19408
 Alpha  occ. eigenvalues --  -10.19373 -10.19313 -10.19199 -10.19160 -10.18963
 Alpha  occ. eigenvalues --  -10.18893 -10.18794 -10.18716  -1.09757  -1.07620
 Alpha  occ. eigenvalues --   -1.03022  -1.02240  -1.02191  -1.01004  -0.99872
 Alpha  occ. eigenvalues --   -0.97416  -0.94489  -0.92979  -0.83792  -0.81850
 Alpha  occ. eigenvalues --   -0.81494  -0.81381  -0.79839  -0.79696  -0.77961
 Alpha  occ. eigenvalues --   -0.76884  -0.75993  -0.75531  -0.74102  -0.73116
 Alpha  occ. eigenvalues --   -0.71943  -0.71256  -0.70438  -0.69266  -0.68298
 Alpha  occ. eigenvalues --   -0.67627  -0.66166  -0.64352  -0.61070  -0.60009
 Alpha  occ. eigenvalues --   -0.59479  -0.58696  -0.58112  -0.57996  -0.57689
 Alpha  occ. eigenvalues --   -0.56704  -0.56150  -0.55259  -0.54344  -0.52650
 Alpha  occ. eigenvalues --   -0.51873  -0.51635  -0.51383  -0.50692  -0.49952
 Alpha  occ. eigenvalues --   -0.49542  -0.48912  -0.48531  -0.48005  -0.47516
 Alpha  occ. eigenvalues --   -0.47208  -0.47070  -0.46770  -0.46567  -0.46081
 Alpha  occ. eigenvalues --   -0.45329  -0.44806  -0.44291  -0.43822  -0.43713
 Alpha  occ. eigenvalues --   -0.43314  -0.43207  -0.43058  -0.42776  -0.42372
 Alpha  occ. eigenvalues --   -0.42175  -0.42099  -0.41829  -0.41291  -0.41129
 Alpha  occ. eigenvalues --   -0.41009  -0.40764  -0.40350  -0.40077  -0.39671
 Alpha  occ. eigenvalues --   -0.39036  -0.38854  -0.38738  -0.38376  -0.38027
 Alpha  occ. eigenvalues --   -0.37970  -0.37881  -0.37598  -0.37178  -0.36987
 Alpha  occ. eigenvalues --   -0.36633  -0.36019  -0.35292  -0.35132  -0.34451
 Alpha  occ. eigenvalues --   -0.33869  -0.33081  -0.32901  -0.32516  -0.31271
 Alpha  occ. eigenvalues --   -0.30591  -0.30570  -0.29931  -0.28701  -0.27635
 Alpha  occ. eigenvalues --   -0.27135  -0.26863  -0.26283  -0.25357  -0.24490
 Alpha  occ. eigenvalues --   -0.24237  -0.23244  -0.23075  -0.21968  -0.19633
 Alpha virt. eigenvalues --   -0.11084  -0.06070  -0.05595  -0.02729  -0.00183
 Alpha virt. eigenvalues --    0.00109   0.00529   0.01081   0.01317   0.02385
 Alpha virt. eigenvalues --    0.02565   0.02874   0.03829   0.04615   0.04811

 Mulliken charges:
               1
     1  O   -0.211897
     2  O   -0.173150
     3  O   -0.280759
     4  O   -0.244562
     5  O   -0.227487
     6  O   -0.181721
     7  N   -0.005097
     8  N   -0.166988
     9  N   -0.059038
    10  N   -0.265136
    11  C    0.153948
    12  C    0.177710
    13  C   -0.106461
    14  C   -0.132635
    15  C   -0.046409
    16  C   -0.071344
    17  C   -0.106526
    18  C    0.079525
    19  C   -0.054576
    20  C   -0.141067
    21  C    0.149642
    22  C    0.123488
    23  C   -0.022563
    24  C    0.097780
    25  C    0.012149
    26  C   -0.148013
    27  C    0.077003
    28  C    0.044840
    29  C   -0.113500
    30  C   -0.050639
    31  C   -0.079638
    32  C    0.207589
    33  C   -0.103211
    34  C    0.166750
    35  C    0.122798
    36  C   -0.113180
    37  C    0.196922
    38  C    0.065102
    39  C   -0.240697
    40  C    0.131382
    41  C    0.040142
    42  C    0.125030
    43  C   -0.099103
    44  H   -0.026672
    45  H   -0.024644
    46  H   -0.021125
    47  H    0.156500
    48  H    0.113162
    49  H    0.003123
    50  H    0.016610
    51  H    0.069721
    52  H    0.018107
    53  H   -0.024159
    54  H    0.038717
    55  H    0.022470
    56  H    0.051237
    57  H    0.058299
    58  H   -0.046259
    59  H    0.025231
    60  H    0.160885
    61  H    0.032067
    62  H    0.079737
    63  H    0.063811
    64  H    0.077016
    65  H    0.064936
    66  H   -0.027761
    67  H    0.005753
    68  H    0.042260
    69  H   -0.041710
    70  H    0.048965
    71  H    0.051190
    72  H    0.171766
    73  H   -0.058144
    74  H    0.058576
    75  H   -0.050991
    76  H    0.043261
    77  H    0.235157
    78  H    0.049337
    79  H    0.037172
 Sum of Mulliken charges =   0.00000

 Dipole moment (field-independent basis, Debye):
    X=              1.0654    Y=              4.8177    Z=              3.1048  Tot=              5.8297
 Quadrupole moment (field-independent basis, Debye-Ang):
   XX=           -230.9532   YY=           -236.2634   ZZ=           -269.8464
   XY=            -11.7371   XZ=             36.2669   YZ=              3.9105

 Normal termination of Gaussian 09 at Wed Jul 10 14:39:41 2019.
