 Gaussian 09, Revision D.01,
 Gaussian 09:  ES64L-G09RevD.01 24-Apr-2013

 --------------------------
 # td=(NStates=1) B3LYP/SVP
 --------------------------

 --
 TD
 --
 Symbolic Z-matrix:
 Charge =  0 Multiplicity = 1

                         Standard orientation:
 ---------------------------------------------------------------------
 Center     Atomic      Atomic             Coordinates (Angstroms)
 Number     Number       Type             X           Y           Z
 ---------------------------------------------------------------------
      1          8           0        5.435734   -0.406273   -3.434676
      2          8           0       -2.828682   -3.007741    3.273632
      3          8           0       -3.247060   -0.894470    3.115467
      4          8           0       -2.028425    7.136573    1.487940
      5          8           0       -0.765049    7.055917   -0.402006
      6          8           0       -1.995323   -4.023822    0.135079
      7          7           0        2.406717    0.908600    0.511884
      8          7           0        4.591515   -0.663539   -1.248555
      9          7           0       -1.884076    0.638884   -0.386965
     10          7           0       -2.738616   -1.914494   -0.544057
     11          6           0        4.977106   -1.140024    0.085816
     12          6           0        4.517333   -0.066862    1.183319
     13          6           0        3.075019    0.086108    1.351012
     14          6           0        2.034484   -0.505605    2.180625
     15          6           0        0.751365    0.020033    1.789470
     16          6           0        1.054799    0.907636    0.744805
     17          6           0        6.529037   -1.216425   -0.171258
     18          6           0       -0.607910   -0.195063    2.483015
     19          6           0        6.797728   -0.868502   -1.430317
     20          6           0        0.210964    1.838135    0.015457
     21          6           0       -1.119606    1.873914   -0.364652
     22          6           0        5.510620   -0.605271   -2.190657
     23          6           0       -1.921590    2.888199   -0.922349
     24          6           0        2.285556   -1.600655    3.221026
     25          6           0        7.325866   -1.776735    0.995157
     26          6           0       -3.192819    2.382146   -1.278331
     27          6           0       -1.014706   -1.744590    2.523273
     28          6           0       -3.121921    0.977689   -0.884570
     29          6           0       -1.465134    4.301917   -0.926916
     30          6           0        8.084944   -0.706988   -2.097512
     31          6           0       -1.820115    4.975090    0.432505
     32          6           0       -4.392060    2.927403   -2.071338
     33          6           0       -4.003948   -0.073992   -1.315290
     34          6           0       -2.478625   -1.825002    3.077287
     35          6           0       -3.815604   -1.393552   -1.184302
     36          6           0        9.252621   -0.705900   -1.529873
     37          6           0       -1.403128    6.463011    0.476060
     38          6           0       -4.745801   -2.504778   -1.447459
     39          6           0       -4.114267   -3.624996   -0.960516
     40          6           0       -2.754547   -3.305934   -0.444526
     41          6           0       -6.047650   -2.476561   -2.132085
     42          6           0       -4.510076   -5.093522   -1.013249
     43          6           0       -6.888771   -3.447774   -2.576766
     44          1           0        4.563385   -2.209910    0.312642
     45          1           0        5.151872    0.838582    0.882964
     46          1           0        4.863655   -0.245749    2.476005
     47          1           0        2.652920    1.283092   -0.425001
     48          1           0        3.653048   -0.715620   -1.642569
     49          1           0       -0.545995    0.119472    3.531143
     50          1           0       -1.356608    0.285974    1.977186
     51          1           0        0.854208    2.886719   -0.018014
     52          1           0        3.364248   -1.672223    3.498169
     53          1           0        1.756635   -1.632152    4.286897
     54          1           0        2.302634   -2.699994    2.964828
     55          1           0        6.887569   -2.373601    1.601723
     56          1           0        7.649824   -0.914664    1.582778
     57          1           0        8.304325   -2.182466    0.677576
     58          1           0       -0.932840   -1.973080    1.638580
     59          1           0       -0.235897   -2.400758    2.855941
     60          1           0       -1.700932   -0.293546   -0.381298
     61          1           0       -2.103474    4.948772   -1.557748
     62          1           0       -0.449044    4.342207   -1.034752
     63          1           0        7.978112   -0.839444   -3.199869
     64          1           0       -1.415302    4.515095    1.270730
     65          1           0       -2.754403    4.880454    0.664699
     66          1           0       -4.491695    4.083345   -1.752662
     67          1           0       -5.426984    2.649400   -1.709397
     68          1           0       -4.025201    2.568934   -3.270602
     69          1           0       -4.900117    0.159895   -1.934291
     70          1           0        9.463898   -0.539416   -0.422849
     71          1           0       10.018326   -0.776223   -2.243595
     72          1           0       -4.002568   -2.849791    3.417738
     73          1           0       -6.370910   -1.378732   -2.329446
     74          1           0       -4.479691   -5.283704   -1.986384
     75          1           0       -3.734180   -5.745956   -0.338358
     76          1           0       -5.504041   -5.222437   -0.568259
     77          1           0       -1.677314    7.983964    1.449112
     78          1           0       -8.012326   -3.322435   -3.089041
     79          1           0       -6.478444   -4.516957   -2.615398
 ---------------------------------------------------------------------

 SCF Done:  E(RB3LYP) =  -1947.76207357     A.U. after   19 cycles

 Excitation energies and oscillator strengths:

 Excited State   1:      Singlet-A      1.8724 eV  662.17 nm  f=0.1730  <S**2>=0.000
     153 ->156        -0.11772
     154 ->156         0.34659
     155 ->156         0.60031
 This state for optimization and/or second-order correction.
 Total Energy, E(TD-HF/TD-KS) =  -1947.69326410
 Copying the excited state density for this state as the 1-particle RhoCI density.

 The electronic state is 1-A.
 Alpha  occ. eigenvalues --  -19.19238 -19.18592 -19.14135 -19.10488 -19.10406
 Alpha  occ. eigenvalues --  -19.09945 -14.39541 -14.37217 -14.36358 -14.26972
 Alpha  occ. eigenvalues --  -10.33705 -10.30087 -10.29017 -10.27492 -10.25629
 Alpha  occ. eigenvalues --  -10.25358 -10.25346 -10.25150 -10.24897 -10.24483
 Alpha  occ. eigenvalues --  -10.24399 -10.23752 -10.22663 -10.22551 -10.22548
 Alpha  occ. eigenvalues --  -10.22017 -10.21354 -10.21109 -10.21051 -10.20621
 Alpha  occ. eigenvalues --  -10.20549 -10.20538 -10.20525 -10.20062 -10.20005
 Alpha  occ. eigenvalues --  -10.19470 -10.19254 -10.19064 -10.18852 -10.18670
 Alpha  occ. eigenvalues --  -10.18487 -10.17667 -10.16932  -1.10919  -1.10694
 Alpha  occ. eigenvalues --   -1.01945  -1.01842  -1.01127  -1.00234  -0.98754
 Alpha  occ. eigenvalues --   -0.97948  -0.95017  -0.91010  -0.84362  -0.82846
 Alpha  occ. eigenvalues --   -0.82035  -0.80864  -0.79837  -0.79341  -0.78392
 Alpha  occ. eigenvalues --   -0.77690  -0.76101  -0.75961  -0.73938  -0.72976
 Alpha  occ. eigenvalues --   -0.72671  -0.71335  -0.70158  -0.69538  -0.68447
 Alpha  occ. eigenvalues --   -0.66729  -0.66074  -0.63818  -0.61974  -0.61389
 Alpha  occ. eigenvalues --   -0.60098  -0.59086  -0.58307  -0.58067  -0.57878
 Alpha  occ. eigenvalues --   -0.57201  -0.56415  -0.56144  -0.54314  -0.53208
 Alpha  occ. eigenvalues --   -0.52422  -0.51987  -0.51181  -0.50676  -0.50252
 Alpha  occ. eigenvalues --   -0.49481  -0.49316  -0.48772  -0.48546  -0.48092
 Alpha  occ. eigenvalues --   -0.47337  -0.47071  -0.46675  -0.46459  -0.45875
 Alpha  occ. eigenvalues --   -0.45548  -0.45403  -0.44304  -0.44243  -0.44051
 Alpha  occ. eigenvalues --   -0.43781  -0.43395  -0.42935  -0.42574  -0.42395
 Alpha  occ. eigenvalues --   -0.42283  -0.42168  -0.42053  -0.41856  -0.41392
 Alpha  occ. eigenvalues --   -0.40753  -0.40502  -0.40232  -0.39963  -0.39655
 Alpha  occ. eigenvalues --   -0.39386  -0.39090  -0.38911  -0.38799  -0.38414
 Alpha  occ. eigenvalues --   -0.37858  -0.37514  -0.37340  -0.36865  -0.36277
 Alpha  occ. eigenvalues --   -0.36207  -0.35699  -0.35306  -0.34676  -0.34617
 Alpha  occ. eigenvalues --   -0.34397  -0.34001  -0.33454  -0.32774  -0.32343
 Alpha  occ. eigenvalues --   -0.31119  -0.30558  -0.29477  -0.28463  -0.27641
 Alpha  occ. eigenvalues --   -0.26955  -0.26428  -0.26202  -0.26011  -0.25413
 Alpha  occ. eigenvalues --   -0.24750  -0.23797  -0.22319  -0.21347  -0.19412
 Alpha virt. eigenvalues --   -0.11525  -0.06480  -0.05554  -0.01822  -0.01080
 Alpha virt. eigenvalues --   -0.00472  -0.00209   0.00620   0.01671   0.02222
 Alpha virt. eigenvalues --    0.02445   0.03256   0.03505   0.04058   0.04747

 Mulliken charges:
               1
     1  O   -0.269316
     2  O   -0.173492
     3  O   -0.263169
     4  O   -0.151534
     5  O   -0.245762
     6  O   -0.183310
     7  N   -0.057083
     8  N   -0.151376
     9  N   -0.059908
    10  N   -0.328887
    11  C    0.078142
    12  C    0.019296
    13  C    0.000937
    14  C   -0.096077
    15  C   -0.095537
    16  C    0.000003
    17  C   -0.209672
    18  C    0.162529
    19  C   -0.049310
    20  C   -0.138046
    21  C    0.153242
    22  C    0.131500
    23  C   -0.103431
    24  C    0.006035
    25  C    0.204688
    26  C   -0.143672
    27  C    0.113462
    28  C    0.118403
    29  C    0.186144
    30  C   -0.018658
    31  C    0.094712
    32  C    0.009685
    33  C   -0.117722
    34  C    0.140726
    35  C    0.105938
    36  C   -0.002768
    37  C    0.141061
    38  C    0.069756
    39  C   -0.278520
    40  C    0.163546
    41  C   -0.023817
    42  C    0.098529
    43  C   -0.113138
    44  H    0.055969
    45  H    0.028793
    46  H    0.059750
    47  H    0.134297
    48  H    0.124804
    49  H    0.011479
    50  H   -0.016761
    51  H    0.042898
    52  H   -0.024032
    53  H    0.042522
    54  H    0.031816
    55  H   -0.038503
    56  H    0.016594
    57  H    0.021699
    58  H   -0.066436
    59  H   -0.001455
    60  H    0.084091
    61  H    0.017239
    62  H   -0.012774
    63  H    0.022760
    64  H    0.004375
    65  H   -0.034520
    66  H    0.037870
    67  H    0.052637
    68  H    0.095948
    69  H   -0.022912
    70  H    0.030096
    71  H    0.011791
    72  H    0.243708
    73  H   -0.001850
    74  H    0.012433
    75  H    0.049749
    76  H    0.023887
    77  H    0.151042
    78  H    0.058698
    79  H    0.028170
 Sum of Mulliken charges =   0.00000

 Dipole moment (field-independent basis, Debye):
    X=              1.5010    Y=              3.2307    Z=              3.5204  Tot=              5.0084
 Quadrupole moment (field-independent basis, Debye-Ang):
   XX=           -225.4202   YY=           -253.0977   ZZ=           -264.3431
   XY=            -15.8665   XZ=             32.7930   YZ=              2.0503

 Normal termination of Gaussian 09 at Mon Jul  8 23:14:40 2019.
