 Gaussian 09, Revision D.01,
 Gaussian 09:  ES64L-G09RevD.01 24-Apr-2013

 --------------------------
 # td=(NStates=1) B3LYP/SVP
 --------------------------

 --
 TD
 --
 Symbolic Z-matrix:
 Charge =  0 Multiplicity = 1

                         Standard orientation:
 ---------------------------------------------------------------------
 Center     Atomic      Atomic             Coordinates (Angstroms)
 Number     Number       Type             X           Y           Z
 ---------------------------------------------------------------------
      1          8           0        5.492647   -0.270290   -3.325204
      2          8           0       -3.052724   -2.844169    3.425514
      3          8           0       -3.240430   -0.630441    3.110789
      4          8           0       -1.213567    7.186054    1.541291
      5          8           0       -0.524637    6.974161   -0.577088
      6          8           0       -2.122394   -4.094655   -0.096797
      7          7           0        2.422248    0.888686    0.428884
      8          7           0        4.415408   -0.932130   -1.272350
      9          7           0       -1.954311    0.642564   -0.368670
     10          7           0       -2.749475   -1.839399   -0.468128
     11          6           0        4.860436   -1.329576    0.062509
     12          6           0        4.500949   -0.248745    1.127404
     13          6           0        3.048734   -0.109497    1.265271
     14          6           0        2.138475   -0.668360    2.115557
     15          6           0        0.785821   -0.152551    1.706164
     16          6           0        1.078269    0.826754    0.761171
     17          6           0        6.416450   -1.373290   -0.139906
     18          6           0       -0.481861   -0.326471    2.482200
     19          6           0        6.746471   -1.033624   -1.428944
     20          6           0        0.218838    1.849664    0.070181
     21          6           0       -1.070345    1.719456   -0.341434
     22          6           0        5.499571   -0.738750   -2.178881
     23          6           0       -1.870141    2.876261   -0.755339
     24          6           0        2.281821   -1.694609    3.189697
     25          6           0        7.336181   -1.782634    1.001307
     26          6           0       -3.078442    2.424502   -1.240337
     27          6           0       -1.095673   -1.660071    2.560760
     28          6           0       -3.068964    0.956224   -0.896284
     29          6           0       -1.414554    4.266327   -0.880580
     30          6           0        8.067456   -1.024201   -2.037882
     31          6           0       -1.796528    5.101200    0.447622
     32          6           0       -4.188106    3.125299   -1.926881
     33          6           0       -4.093628    0.028905   -1.282972
     34          6           0       -2.559186   -1.599436    3.015237
     35          6           0       -3.899887   -1.423025   -1.029034
     36          6           0        9.272638   -0.797228   -1.499380
     37          6           0       -1.144860    6.559997    0.330905
     38          6           0       -4.826343   -2.462037   -1.419822
     39          6           0       -4.283547   -3.601170   -1.025462
     40          6           0       -2.987938   -3.249847   -0.430392
     41          6           0       -6.251296   -2.231664   -2.021468
     42          6           0       -4.649083   -5.106342   -1.094648
     43          6           0       -7.036430   -3.067013   -2.656399
     44          1           0        4.432080   -2.283018    0.435306
     45          1           0        5.034394    0.888573    0.831017
     46          1           0        4.941841   -0.476916    2.113949
     47          1           0        2.967941    1.343627   -0.387829
     48          1           0        3.445714   -1.170131   -1.616537
     49          1           0       -0.188650    0.136110    3.514439
     50          1           0       -1.359520    0.554985    2.155930
     51          1           0        0.874635    2.805666   -0.526019
     52          1           0        3.267126   -1.946286    3.195754
     53          1           0        1.772093   -1.191139    4.073764
     54          1           0        1.561859   -2.496430    3.071970
     55          1           0        6.601613   -2.508327    1.641610
     56          1           0        7.632317   -0.900928    1.651686
     57          1           0        8.294861   -2.249608    0.449336
     58          1           0       -1.132993   -2.308872    1.598058
     59          1           0       -0.582838   -2.245641    3.307152
     60          1           0       -1.852761   -0.405407   -0.276244
     61          1           0       -1.800783    4.899019   -1.639242
     62          1           0       -0.235414    4.332062   -1.088452
     63          1           0        8.104569   -1.530968   -3.258573
     64          1           0       -1.724712    4.601346    1.373304
     65          1           0       -2.921064    5.414128    0.273190
     66          1           0       -3.979651    4.157722   -2.396733
     67          1           0       -4.863113    3.486499   -1.161741
     68          1           0       -4.570663    2.741447   -2.729944
     69          1           0       -5.081662    0.379259   -1.813194
     70          1           0        9.406549   -0.374608   -0.474491
     71          1           0       10.146182   -0.743112   -2.096243
     72          1           0       -3.871638   -2.727484    4.039307
     73          1           0       -6.489158   -1.226803   -1.875760
     74          1           0       -4.771471   -5.445745   -2.236904
     75          1           0       -3.997999   -5.755105   -0.436135
     76          1           0       -5.888078   -5.212847   -0.918798
     77          1           0       -0.754961    7.998008    1.311013
     78          1           0       -7.982417   -2.732013   -3.070981
     79          1           0       -6.814289   -4.017089   -2.998777
 ---------------------------------------------------------------------

 SCF Done:  E(RB3LYP) =  -1947.84111965     A.U. after   16 cycles

 Excitation energies and oscillator strengths:

 Excited State   1:      Singlet-A      2.2103 eV  560.94 nm  f=0.4617  <S**2>=0.000
     155 ->156         0.70068
     155 <-156        -0.10454
 This state for optimization and/or second-order correction.
 Total Energy, E(TD-HF/TD-KS) =  -1947.75989252
 Copying the excited state density for this state as the 1-particle RhoCI density.

 The electronic state is 1-A.
 Alpha  occ. eigenvalues --  -19.18743 -19.15957 -19.14512 -19.12002 -19.10470
 Alpha  occ. eigenvalues --  -19.10275 -14.37590 -14.36459 -14.35969 -14.29759
 Alpha  occ. eigenvalues --  -10.33051 -10.30889 -10.29198 -10.26454 -10.25720
 Alpha  occ. eigenvalues --  -10.24515 -10.24402 -10.23703 -10.23282 -10.23272
 Alpha  occ. eigenvalues --  -10.23198 -10.22927 -10.22782 -10.22364 -10.22334
 Alpha  occ. eigenvalues --  -10.22184 -10.21492 -10.21345 -10.21024 -10.20865
 Alpha  occ. eigenvalues --  -10.20797 -10.20604 -10.20420 -10.20115 -10.20035
 Alpha  occ. eigenvalues --  -10.19783 -10.19762 -10.19719 -10.19448 -10.19430
 Alpha  occ. eigenvalues --  -10.19405 -10.19353 -10.18889  -1.11696  -1.07181
 Alpha  occ. eigenvalues --   -1.02974  -1.01232  -1.00463  -0.99694  -0.98359
 Alpha  occ. eigenvalues --   -0.96031  -0.93078  -0.92206  -0.83095  -0.81710
 Alpha  occ. eigenvalues --   -0.81153  -0.80732  -0.80171  -0.79023  -0.77063
 Alpha  occ. eigenvalues --   -0.76962  -0.76045  -0.75474  -0.73711  -0.72528
 Alpha  occ. eigenvalues --   -0.71655  -0.71083  -0.69302  -0.68481  -0.67822
 Alpha  occ. eigenvalues --   -0.66113  -0.65025  -0.62795  -0.61049  -0.60167
 Alpha  occ. eigenvalues --   -0.59687  -0.58474  -0.57587  -0.56925  -0.56605
 Alpha  occ. eigenvalues --   -0.56066  -0.54886  -0.54256  -0.53634  -0.52420
 Alpha  occ. eigenvalues --   -0.51799  -0.51179  -0.51063  -0.50206  -0.49815
 Alpha  occ. eigenvalues --   -0.49521  -0.48686  -0.47969  -0.47640  -0.47373
 Alpha  occ. eigenvalues --   -0.46864  -0.46481  -0.46404  -0.46191  -0.45598
 Alpha  occ. eigenvalues --   -0.45415  -0.45038  -0.44810  -0.44053  -0.43906
 Alpha  occ. eigenvalues --   -0.43540  -0.43130  -0.42742  -0.42578  -0.42422
 Alpha  occ. eigenvalues --   -0.41911  -0.41791  -0.41334  -0.41265  -0.40841
 Alpha  occ. eigenvalues --   -0.40719  -0.40425  -0.40311  -0.39931  -0.39779
 Alpha  occ. eigenvalues --   -0.39166  -0.39078  -0.38655  -0.38376  -0.38348
 Alpha  occ. eigenvalues --   -0.37807  -0.37060  -0.36823  -0.36502  -0.36332
 Alpha  occ. eigenvalues --   -0.35804  -0.35469  -0.34707  -0.34376  -0.34144
 Alpha  occ. eigenvalues --   -0.33697  -0.33594  -0.33324  -0.31237  -0.30889
 Alpha  occ. eigenvalues --   -0.30478  -0.30429  -0.29695  -0.29044  -0.28692
 Alpha  occ. eigenvalues --   -0.27114  -0.26670  -0.25723  -0.25673  -0.24850
 Alpha  occ. eigenvalues --   -0.24498  -0.23907  -0.23713  -0.22826  -0.19056
 Alpha virt. eigenvalues --   -0.10363  -0.06121  -0.05614  -0.00318  -0.00195
 Alpha virt. eigenvalues --   -0.00127   0.01193   0.01405   0.02133   0.02683
 Alpha virt. eigenvalues --    0.03392   0.03688   0.04257   0.04694   0.05137

 Mulliken charges:
               1
     1  O   -0.228513
     2  O   -0.268240
     3  O   -0.193930
     4  O   -0.176553
     5  O   -0.186314
     6  O   -0.243092
     7  N   -0.163325
     8  N   -0.259181
     9  N    0.014675
    10  N   -0.312760
    11  C    0.094919
    12  C    0.050641
    13  C   -0.032214
    14  C   -0.176408
    15  C   -0.051356
    16  C    0.075581
    17  C   -0.149503
    18  C   -0.088808
    19  C   -0.017387
    20  C   -0.159458
    21  C    0.135439
    22  C    0.179396
    23  C   -0.046352
    24  C    0.187306
    25  C   -0.004818
    26  C   -0.130227
    27  C    0.023419
    28  C    0.026578
    29  C    0.056126
    30  C   -0.062760
    31  C   -0.043253
    32  C    0.165701
    33  C   -0.137702
    34  C    0.130500
    35  C    0.075027
    36  C   -0.048822
    37  C    0.129362
    38  C   -0.006094
    39  C   -0.151208
    40  C    0.161075
    41  C    0.058749
    42  C    0.007939
    43  C    0.009458
    44  H    0.027387
    45  H    0.030175
    46  H    0.009757
    47  H    0.161491
    48  H    0.153838
    49  H    0.033369
    50  H    0.066570
    51  H    0.052952
    52  H   -0.017060
    53  H    0.015450
    54  H    0.022571
    55  H    0.042284
    56  H    0.061235
    57  H    0.073488
    58  H    0.097172
    59  H    0.016682
    60  H    0.162721
    61  H    0.001120
    62  H    0.033150
    63  H    0.059307
    64  H    0.041615
    65  H    0.046767
    66  H   -0.003410
    67  H    0.024069
    68  H   -0.014325
    69  H    0.016199
    70  H    0.024776
    71  H    0.023870
    72  H    0.206996
    73  H   -0.032135
    74  H    0.046291
    75  H    0.070280
    76  H    0.028969
    77  H    0.159805
    78  H    0.019857
    79  H   -0.006899
 Sum of Mulliken charges =   0.00000

 Dipole moment (field-independent basis, Debye):
    X=             -0.0459    Y=              2.4436    Z=              3.0395  Tot=              3.9003
 Quadrupole moment (field-independent basis, Debye-Ang):
   XX=           -220.3923   YY=           -247.9631   ZZ=           -258.4378
   XY=             -9.9946   XZ=             32.5084   YZ=              0.7901

 Normal termination of Gaussian 09 at Mon Jul  8 04:08:50 2019.
