 Gaussian 09, Revision D.01,
 Gaussian 09:  ES64L-G09RevD.01 24-Apr-2013

 --------------------------
 # td=(NStates=1) B3LYP/SVP
 --------------------------

 --
 TD
 --
 Symbolic Z-matrix:
 Charge =  0 Multiplicity = 1

                         Standard orientation:
 ---------------------------------------------------------------------
 Center     Atomic      Atomic             Coordinates (Angstroms)
 Number     Number       Type             X           Y           Z
 ---------------------------------------------------------------------
      1          8           0        5.229982   -0.256281   -3.386960
      2          8           0       -3.060956   -2.916022    3.217432
      3          8           0       -3.265465   -0.735509    3.166005
      4          8           0       -2.105579    7.352424    1.261128
      5          8           0       -0.511656    7.005634   -0.463786
      6          8           0       -1.879927   -3.950751    0.024879
      7          7           0        2.393593    0.938307    0.620138
      8          7           0        4.420307   -0.577594   -1.223885
      9          7           0       -1.812705    0.591398   -0.373152
     10          7           0       -2.582480   -1.883591   -0.558853
     11          6           0        4.840432   -1.219218    0.064187
     12          6           0        4.549449   -0.241664    1.212494
     13          6           0        3.057937    0.074894    1.421146
     14          6           0        2.082908   -0.572343    2.196936
     15          6           0        0.782141   -0.061270    1.863235
     16          6           0        1.044209    0.874012    0.831874
     17          6           0        6.360550   -1.316407   -0.158628
     18          6           0       -0.451812   -0.321412    2.515168
     19          6           0        6.669346   -0.952307   -1.444629
     20          6           0        0.255679    1.838573    0.135833
     21          6           0       -1.079442    1.866458   -0.277975
     22          6           0        5.336878   -0.442804   -2.167589
     23          6           0       -1.946147    2.935144   -0.799050
     24          6           0        2.223717   -1.661020    3.327853
     25          6           0        7.240284   -1.792994    0.879253
     26          6           0       -3.053340    2.248924   -1.258305
     27          6           0       -0.976116   -1.717701    2.595760
     28          6           0       -3.041554    0.839492   -0.918733
     29          6           0       -1.552583    4.337674   -0.880032
     30          6           0        8.005927   -0.677109   -2.128397
     31          6           0       -1.895329    5.145206    0.366752
     32          6           0       -4.244676    2.901141   -2.017878
     33          6           0       -4.023243   -0.089968   -1.242437
     34          6           0       -2.521574   -1.710046    3.010820
     35          6           0       -3.747038   -1.543212   -1.085721
     36          6           0        9.219078   -0.734750   -1.578525
     37          6           0       -1.415825    6.569597    0.342615
     38          6           0       -4.678840   -2.660373   -1.409426
     39          6           0       -3.993235   -3.726777   -1.170696
     40          6           0       -2.651473   -3.261502   -0.500810
     41          6           0       -6.074727   -2.542719   -1.859343
     42          6           0       -4.359838   -5.169684   -1.209474
     43          6           0       -6.776725   -3.415819   -2.658610
     44          1           0        4.377263   -2.145388    0.178078
     45          1           0        4.954365    0.788019    1.205490
     46          1           0        5.070682   -0.676073    2.099743
     47          1           0        2.844692    1.541716   -0.004674
     48          1           0        3.455618   -0.831230   -1.480005
     49          1           0       -0.439290    0.019888    3.592246
     50          1           0       -1.200349    0.305123    2.116850
     51          1           0        0.787061    2.740610   -0.045153
     52          1           0        3.302450   -1.784412    3.702981
     53          1           0        1.669519   -1.267248    4.256955
     54          1           0        1.888826   -2.504697    3.123113
     55          1           0        6.681229   -2.556572    1.522572
     56          1           0        7.587247   -1.012342    1.551633
     57          1           0        8.313510   -2.338567    0.567304
     58          1           0       -0.854862   -2.178218    1.428561
     59          1           0       -0.427990   -2.278908    3.289321
     60          1           0       -1.355848   -0.520998   -0.310836
     61          1           0       -1.954034    4.955308   -1.897089
     62          1           0       -0.537926    4.490497   -1.070247
     63          1           0        7.848910   -0.398137   -3.273323
     64          1           0       -1.546823    4.690452    1.194516
     65          1           0       -2.989543    5.145314    0.382648
     66          1           0       -4.160849    3.959680   -2.223625
     67          1           0       -5.266251    2.775720   -1.621546
     68          1           0       -4.462888    2.424670   -3.062410
     69          1           0       -4.824903    0.422019   -1.993774
     70          1           0        9.416155   -0.711497   -0.528743
     71          1           0       10.110060   -0.546806   -2.101463
     72          1           0       -3.975443   -2.916046    3.528007
     73          1           0       -6.386508   -1.510099   -1.676164
     74          1           0       -3.738892   -5.933187   -2.097206
     75          1           0       -4.113989   -5.832059   -0.174586
     76          1           0       -5.477769   -5.236166   -1.247512
     77          1           0       -1.912460    8.259621    1.337548
     78          1           0       -7.744258   -3.179671   -2.819619
     79          1           0       -6.229009   -4.436013   -3.234910
 ---------------------------------------------------------------------

 SCF Done:  E(RB3LYP) =  -1947.82962089     A.U. after   16 cycles

 Excitation energies and oscillator strengths:

 Excited State   1:      Singlet-A      2.2349 eV  554.77 nm  f=0.4778  <S**2>=0.000
     155 ->156         0.70383
     155 <-156        -0.10406
 This state for optimization and/or second-order correction.
 Total Energy, E(TD-HF/TD-KS) =  -1947.74749121
 Copying the excited state density for this state as the 1-particle RhoCI density.

 The electronic state is 1-A.
 Alpha  occ. eigenvalues --  -19.19090 -19.16561 -19.13706 -19.10818 -19.10812
 Alpha  occ. eigenvalues --  -19.10254 -14.38441 -14.36336 -14.35978 -14.29799
 Alpha  occ. eigenvalues --  -10.34153 -10.31268 -10.29001 -10.26371 -10.25783
 Alpha  occ. eigenvalues --  -10.24406 -10.24323 -10.23817 -10.23237 -10.22940
 Alpha  occ. eigenvalues --  -10.22686 -10.22119 -10.22094 -10.21667 -10.21496
 Alpha  occ. eigenvalues --  -10.21390 -10.21332 -10.21323 -10.21158 -10.21074
 Alpha  occ. eigenvalues --  -10.20917 -10.20890 -10.20869 -10.20453 -10.20419
 Alpha  occ. eigenvalues --  -10.19581 -10.19520 -10.19355 -10.19256 -10.19202
 Alpha  occ. eigenvalues --  -10.18975 -10.18771 -10.17747  -1.08150  -1.08070
 Alpha  occ. eigenvalues --   -1.05019  -1.01815  -0.99858  -0.98807  -0.97402
 Alpha  occ. eigenvalues --   -0.95418  -0.94525  -0.93438  -0.82960  -0.82443
 Alpha  occ. eigenvalues --   -0.82256  -0.81354  -0.80742  -0.78794  -0.77948
 Alpha  occ. eigenvalues --   -0.76824  -0.76065  -0.75142  -0.74383  -0.72039
 Alpha  occ. eigenvalues --   -0.71402  -0.70830  -0.69853  -0.68920  -0.68248
 Alpha  occ. eigenvalues --   -0.67515  -0.66070  -0.63755  -0.61946  -0.61147
 Alpha  occ. eigenvalues --   -0.61092  -0.60240  -0.58421  -0.57802  -0.57221
 Alpha  occ. eigenvalues --   -0.55509  -0.55060  -0.54724  -0.53882  -0.53214
 Alpha  occ. eigenvalues --   -0.52246  -0.51879  -0.51174  -0.50939  -0.49833
 Alpha  occ. eigenvalues --   -0.49226  -0.48303  -0.47742  -0.47537  -0.47249
 Alpha  occ. eigenvalues --   -0.46694  -0.46067  -0.45858  -0.45576  -0.45196
 Alpha  occ. eigenvalues --   -0.45127  -0.44530  -0.44139  -0.43901  -0.43815
 Alpha  occ. eigenvalues --   -0.43116  -0.42939  -0.42789  -0.42647  -0.42500
 Alpha  occ. eigenvalues --   -0.42184  -0.41879  -0.41656  -0.41317  -0.40757
 Alpha  occ. eigenvalues --   -0.40446  -0.39916  -0.39815  -0.39629  -0.39275
 Alpha  occ. eigenvalues --   -0.39068  -0.38736  -0.38554  -0.38265  -0.38098
 Alpha  occ. eigenvalues --   -0.37797  -0.37617  -0.37513  -0.37439  -0.36934
 Alpha  occ. eigenvalues --   -0.36516  -0.36258  -0.34894  -0.34428  -0.34088
 Alpha  occ. eigenvalues --   -0.33949  -0.33433  -0.32483  -0.32411  -0.31193
 Alpha  occ. eigenvalues --   -0.30816  -0.30224  -0.29005  -0.28768  -0.28527
 Alpha  occ. eigenvalues --   -0.27568  -0.26247  -0.25682  -0.25169  -0.24685
 Alpha  occ. eigenvalues --   -0.24359  -0.24214  -0.23851  -0.23203  -0.18756
 Alpha virt. eigenvalues --   -0.09976  -0.06174  -0.05518  -0.02606  -0.01663
 Alpha virt. eigenvalues --    0.00781   0.00900   0.01351   0.03061   0.03418
 Alpha virt. eigenvalues --    0.04022   0.04590   0.04891   0.05093   0.05285

 Mulliken charges:
               1
     1  O   -0.248194
     2  O   -0.171304
     3  O   -0.259028
     4  O   -0.195534
     5  O   -0.281815
     6  O   -0.126695
     7  N   -0.015539
     8  N   -0.169598
     9  N   -0.225408
    10  N   -0.261777
    11  C    0.139847
    12  C    0.159476
    13  C   -0.117998
    14  C   -0.153718
    15  C   -0.057665
    16  C    0.076404
    17  C   -0.148750
    18  C    0.107314
    19  C   -0.080195
    20  C   -0.106577
    21  C    0.090096
    22  C    0.144286
    23  C    0.001719
    24  C    0.151713
    25  C    0.011444
    26  C   -0.116942
    27  C   -0.062656
    28  C    0.136531
    29  C    0.018400
    30  C   -0.013085
    31  C    0.084158
    32  C    0.051463
    33  C   -0.154601
    34  C    0.152878
    35  C    0.071883
    36  C   -0.012618
    37  C    0.190591
    38  C    0.039619
    39  C   -0.174784
    40  C    0.114925
    41  C   -0.021042
    42  C   -0.063150
    43  C   -0.021082
    44  H    0.016713
    45  H    0.004699
    46  H    0.000695
    47  H    0.096977
    48  H    0.134535
    49  H    0.002917
    50  H   -0.007971
    51  H   -0.030949
    52  H    0.002159
    53  H    0.023284
    54  H   -0.027316
    55  H    0.026877
    56  H    0.039041
    57  H    0.061837
    58  H    0.098367
    59  H    0.009786
    60  H    0.243064
    61  H    0.039835
    62  H   -0.002662
    63  H    0.049298
    64  H    0.012878
    65  H    0.037311
    66  H    0.006390
    67  H    0.023693
    68  H    0.028208
    69  H    0.020123
    70  H    0.006459
    71  H    0.011201
    72  H    0.182192
    73  H    0.007017
    74  H    0.061473
    75  H    0.052405
    76  H    0.031196
    77  H    0.173522
    78  H    0.001949
    79  H    0.079807
 Sum of Mulliken charges =   0.00000

 Dipole moment (field-independent basis, Debye):
    X=              0.1378    Y=              1.6883    Z=              3.7270  Tot=              4.0939
 Quadrupole moment (field-independent basis, Debye-Ang):
   XX=           -221.2633   YY=           -240.7075   ZZ=           -263.4323
   XY=             -9.8011   XZ=             35.1268   YZ=              4.3951

 Normal termination of Gaussian 09 at Sun Jul  7 20:47:45 2019.
