 Gaussian 09, Revision D.01,
 Gaussian 09:  ES64L-G09RevD.01 24-Apr-2013

 --------------------------
 # td=(NStates=1) B3LYP/SVP
 --------------------------

 --
 TD
 --
 Symbolic Z-matrix:
 Charge =  0 Multiplicity = 1

                         Standard orientation:
 ---------------------------------------------------------------------
 Center     Atomic      Atomic             Coordinates (Angstroms)
 Number     Number       Type             X           Y           Z
 ---------------------------------------------------------------------
      1          8           0        5.614251   -0.232899   -3.397637
      2          8           0       -2.918748   -3.101528    3.046800
      3          8           0       -3.304349   -0.843140    2.964385
      4          8           0       -1.215546    7.273020    1.432573
      5          8           0       -0.025272    6.627520   -0.314925
      6          8           0       -2.052968   -3.954056   -0.127483
      7          7           0        2.387907    0.861457    0.616817
      8          7           0        4.461180   -0.546322   -1.358450
      9          7           0       -1.866420    0.720386   -0.389919
     10          7           0       -2.761646   -1.825930   -0.510551
     11          6           0        4.750138   -1.233103   -0.076840
     12          6           0        4.485141   -0.380514    1.122698
     13          6           0        3.039773   -0.105003    1.346840
     14          6           0        2.049191   -0.721633    2.169881
     15          6           0        0.841990   -0.049436    1.912305
     16          6           0        1.002924    0.902701    0.865344
     17          6           0        6.296468   -1.451194   -0.168984
     18          6           0       -0.582462   -0.342456    2.461525
     19          6           0        6.693594   -1.045184   -1.420690
     20          6           0        0.222964    1.877903    0.196089
     21          6           0       -1.087247    1.837636   -0.239984
     22          6           0        5.587627   -0.606493   -2.279600
     23          6           0       -1.899393    2.922824   -0.846917
     24          6           0        2.297016   -1.690379    3.175438
     25          6           0        6.908415   -1.996561    1.025275
     26          6           0       -3.088093    2.478572   -1.212215
     27          6           0       -1.130262   -1.750125    2.373281
     28          6           0       -3.097684    1.007955   -0.966020
     29          6           0       -1.411649    4.336898   -0.891494
     30          6           0        8.008600   -0.892084   -2.022089
     31          6           0       -1.773687    5.132086    0.432392
     32          6           0       -4.212200    3.207257   -1.750074
     33          6           0       -4.081380    0.052782   -1.105763
     34          6           0       -2.602036   -1.816603    2.715731
     35          6           0       -3.855493   -1.277156   -1.120311
     36          6           0        9.212473   -1.179650   -1.452514
     37          6           0       -0.989303    6.493868    0.463996
     38          6           0       -4.919922   -2.422815   -1.337069
     39          6           0       -4.275940   -3.546695   -1.086132
     40          6           0       -2.961047   -3.138550   -0.576724
     41          6           0       -6.231974   -2.165922   -1.789625
     42          6           0       -4.773499   -4.883413   -1.194580
     43          6           0       -7.021618   -3.051886   -2.527008
     44          1           0        4.399021   -2.120785    0.114102
     45          1           0        5.058076    0.568114    1.099297
     46          1           0        4.865920   -1.111061    1.995707
     47          1           0        2.758531    1.603050   -0.070557
     48          1           0        3.525500   -0.649987   -1.860250
     49          1           0       -0.471284    0.013396    3.537521
     50          1           0       -1.143614    0.464481    2.047460
     51          1           0        0.858572    2.648804   -0.112025
     52          1           0        3.474911   -1.761854    3.683407
     53          1           0        1.718999   -1.447436    4.102207
     54          1           0        2.140213   -2.676194    2.769109
     55          1           0        6.271833   -2.474602    1.691836
     56          1           0        7.411497   -1.318944    1.449214
     57          1           0        7.935938   -2.847002    0.808437
     58          1           0       -1.132467   -2.210882    1.331430
     59          1           0       -0.530470   -2.488239    2.961690
     60          1           0       -1.678997   -0.328096   -0.148563
     61          1           0       -2.193215    4.667091   -1.656135
     62          1           0       -0.259182    4.589178   -1.182092
     63          1           0        8.003122   -0.430769   -3.160150
     64          1           0       -1.286245    4.606579    1.188846
     65          1           0       -2.779807    5.316638    0.381210
     66          1           0       -3.849995    4.223004   -2.325532
     67          1           0       -4.925651    3.479437   -0.724444
     68          1           0       -4.977768    2.706599   -2.530253
     69          1           0       -4.753902    0.437317   -1.779063
     70          1           0        9.127727   -1.468500   -0.225488
     71          1           0       10.149803   -1.120649   -1.765759
     72          1           0       -3.785420   -3.153774    3.302769
     73          1           0       -6.726895   -1.147909   -1.610686
     74          1           0       -4.475063   -5.285661   -2.123622
     75          1           0       -4.361190   -5.498061   -0.393455
     76          1           0       -5.835934   -4.846882   -0.791431
     77          1           0       -0.589265    7.968101    1.166623
     78          1           0       -7.943211   -2.573809   -2.908133
     79          1           0       -6.734728   -3.970905   -2.775182
 ---------------------------------------------------------------------

 SCF Done:  E(RB3LYP) =  -1947.78803501     A.U. after   19 cycles

 Excitation energies and oscillator strengths:

 Excited State   1:      Singlet-A      2.1554 eV  575.23 nm  f=0.4902  <S**2>=0.000
     154 ->156        -0.18499
     155 ->156         0.67718
     155 <-156        -0.11990
 This state for optimization and/or second-order correction.
 Total Energy, E(TD-HF/TD-KS) =  -1947.70882656
 Copying the excited state density for this state as the 1-particle RhoCI density.

 The electronic state is 1-A.
 Alpha  occ. eigenvalues --  -19.21751 -19.15926 -19.12799 -19.11815 -19.10951
 Alpha  occ. eigenvalues --  -19.07944 -14.38794 -14.36699 -14.35187 -14.28866
 Alpha  occ. eigenvalues --  -10.33107 -10.30419 -10.28890 -10.24820 -10.24760
 Alpha  occ. eigenvalues --  -10.24218 -10.23934 -10.23828 -10.23769 -10.22948
 Alpha  occ. eigenvalues --  -10.22907 -10.22700 -10.22501 -10.21866 -10.21466
 Alpha  occ. eigenvalues --  -10.21421 -10.21177 -10.20979 -10.20758 -10.20676
 Alpha  occ. eigenvalues --  -10.20673 -10.20577 -10.20544 -10.20199 -10.19408
 Alpha  occ. eigenvalues --  -10.19243 -10.19055 -10.19053 -10.18822 -10.18549
 Alpha  occ. eigenvalues --  -10.18116 -10.17720 -10.17497  -1.15529  -1.07778
 Alpha  occ. eigenvalues --   -1.05187  -1.00541  -0.98741  -0.98142  -0.97736
 Alpha  occ. eigenvalues --   -0.97223  -0.93019  -0.90433  -0.83270  -0.82545
 Alpha  occ. eigenvalues --   -0.82201  -0.81436  -0.81122  -0.80376  -0.78270
 Alpha  occ. eigenvalues --   -0.77952  -0.76390  -0.75928  -0.75232  -0.72550
 Alpha  occ. eigenvalues --   -0.72020  -0.71311  -0.69663  -0.69309  -0.68088
 Alpha  occ. eigenvalues --   -0.66961  -0.66394  -0.64100  -0.61881  -0.61395
 Alpha  occ. eigenvalues --   -0.60493  -0.59607  -0.58803  -0.58064  -0.56957
 Alpha  occ. eigenvalues --   -0.55789  -0.55187  -0.54301  -0.54175  -0.53140
 Alpha  occ. eigenvalues --   -0.52324  -0.52164  -0.51545  -0.51480  -0.50493
 Alpha  occ. eigenvalues --   -0.49591  -0.49081  -0.48764  -0.48022  -0.47594
 Alpha  occ. eigenvalues --   -0.47530  -0.47188  -0.46511  -0.46211  -0.45872
 Alpha  occ. eigenvalues --   -0.45763  -0.45367  -0.45296  -0.44966  -0.44704
 Alpha  occ. eigenvalues --   -0.44435  -0.44210  -0.44014  -0.43235  -0.42833
 Alpha  occ. eigenvalues --   -0.42282  -0.42097  -0.41709  -0.41219  -0.40987
 Alpha  occ. eigenvalues --   -0.40822  -0.40548  -0.40152  -0.40046  -0.39532
 Alpha  occ. eigenvalues --   -0.38882  -0.38775  -0.38652  -0.38529  -0.38107
 Alpha  occ. eigenvalues --   -0.37493  -0.37279  -0.36863  -0.36579  -0.36412
 Alpha  occ. eigenvalues --   -0.36165  -0.35868  -0.34125  -0.33971  -0.33496
 Alpha  occ. eigenvalues --   -0.33109  -0.32817  -0.32442  -0.32311  -0.31410
 Alpha  occ. eigenvalues --   -0.31035  -0.30546  -0.28478  -0.28305  -0.27842
 Alpha  occ. eigenvalues --   -0.26763  -0.26540  -0.26198  -0.25998  -0.24614
 Alpha  occ. eigenvalues --   -0.23963  -0.23704  -0.22683  -0.22262  -0.18877
 Alpha virt. eigenvalues --   -0.10688  -0.06614  -0.06017  -0.01609  -0.00522
 Alpha virt. eigenvalues --    0.00468   0.00830   0.01387   0.02328   0.02442
 Alpha virt. eigenvalues --    0.02912   0.03791   0.03964   0.04446   0.04839

 Mulliken charges:
               1
     1  O   -0.160583
     2  O   -0.151163
     3  O   -0.244571
     4  O   -0.072074
     5  O   -0.293395
     6  O   -0.298119
     7  N   -0.120632
     8  N   -0.280129
     9  N   -0.126867
    10  N   -0.244524
    11  C    0.184321
    12  C    0.130718
    13  C   -0.038564
    14  C   -0.087446
    15  C   -0.139839
    16  C    0.051219
    17  C   -0.164506
    18  C    0.144568
    19  C   -0.050679
    20  C   -0.065835
    21  C    0.120314
    22  C    0.159901
    23  C   -0.070197
    24  C    0.000627
    25  C    0.150736
    26  C   -0.023602
    27  C   -0.000604
    28  C    0.022272
    29  C   -0.020080
    30  C   -0.038746
    31  C    0.114988
    32  C   -0.095863
    33  C    0.048120
    34  C    0.148444
    35  C    0.049909
    36  C   -0.025602
    37  C    0.084132
    38  C    0.084653
    39  C   -0.190014
    40  C    0.122977
    41  C   -0.122304
    42  C    0.139461
    43  C    0.030921
    44  H   -0.044734
    45  H    0.001037
    46  H    0.006482
    47  H    0.143056
    48  H    0.141687
    49  H    0.000001
    50  H   -0.015555
    51  H   -0.038698
    52  H    0.022244
    53  H    0.038117
    54  H    0.038406
    55  H    0.016798
    56  H   -0.019747
    57  H    0.055904
    58  H    0.075323
    59  H    0.028920
    60  H    0.189757
    61  H   -0.000204
    62  H    0.080302
    63  H    0.053175
    64  H    0.026560
    65  H    0.010439
    66  H    0.055813
    67  H    0.066482
    68  H    0.062850
    69  H   -0.055028
    70  H    0.012871
    71  H   -0.012608
    72  H    0.136280
    73  H    0.019375
    74  H    0.029776
    75  H    0.005054
    76  H    0.023870
    77  H    0.173562
    78  H    0.026970
    79  H   -0.016875
 Sum of Mulliken charges =   0.00000

 Dipole moment (field-independent basis, Debye):
    X=              0.5538    Y=              3.8509    Z=              2.6052  Tot=              4.6823
 Quadrupole moment (field-independent basis, Debye-Ang):
   XX=           -224.6296   YY=           -239.7954   ZZ=           -261.7933
   XY=            -13.9325   XZ=             34.8233   YZ=              0.5519

 Normal termination of Gaussian 09 at Sun Jul  7 14:04:49 2019.
