 Gaussian 09, Revision D.01,
 Gaussian 09:  ES64L-G09RevD.01 24-Apr-2013

 --------------------------
 # td=(NStates=1) B3LYP/SVP
 --------------------------

 --
 TD
 --
 Symbolic Z-matrix:
 Charge =  0 Multiplicity = 1

                         Standard orientation:
 ---------------------------------------------------------------------
 Center     Atomic      Atomic             Coordinates (Angstroms)
 Number     Number       Type             X           Y           Z
 ---------------------------------------------------------------------
      1          8           0        5.265110   -0.095986   -3.272848
      2          8           0       -2.887433   -3.190148    3.198692
      3          8           0       -3.170424   -0.978791    3.175142
      4          8           0       -1.397225    7.350098    1.345222
      5          8           0       -0.312419    6.792124   -0.583692
      6          8           0       -1.820600   -3.917280   -0.283510
      7          7           0        2.355278    0.945783    0.630847
      8          7           0        4.292886   -0.617755   -1.252629
      9          7           0       -1.866380    0.685609   -0.274464
     10          7           0       -2.799436   -1.715878   -0.518393
     11          6           0        4.770016   -1.253144   -0.017830
     12          6           0        4.507293   -0.262513    1.155897
     13          6           0        2.954309    0.010938    1.331066
     14          6           0        2.018545   -0.618468    2.115917
     15          6           0        0.795633   -0.099599    1.819180
     16          6           0        0.983677    0.963475    0.861784
     17          6           0        6.222226   -1.467847   -0.178024
     18          6           0       -0.473517   -0.391024    2.562288
     19          6           0        6.587470   -0.960865   -1.467673
     20          6           0        0.100485    1.899437    0.188768
     21          6           0       -1.134337    1.853605   -0.169851
     22          6           0        5.330195   -0.520611   -2.140509
     23          6           0       -1.935839    2.907053   -0.768764
     24          6           0        2.366409   -1.704622    3.080828
     25          6           0        7.125299   -1.897795    0.934383
     26          6           0       -3.129598    2.434284   -1.054172
     27          6           0       -0.979109   -1.852994    2.411987
     28          6           0       -3.083397    0.936288   -0.784108
     29          6           0       -1.493693    4.355750   -0.837408
     30          6           0        7.819577   -0.731747   -2.084791
     31          6           0       -1.872295    5.202070    0.365687
     32          6           0       -4.360984    3.079148   -1.691539
     33          6           0       -4.113274    0.067636   -1.145428
     34          6           0       -2.422069   -1.841209    3.028416
     35          6           0       -3.846744   -1.354210   -1.113877
     36          6           0        9.146007   -0.949877   -1.595231
     37          6           0       -1.106387    6.548070    0.293825
     38          6           0       -4.740180   -2.492033   -1.434234
     39          6           0       -3.969247   -3.677226   -1.160811
     40          6           0       -2.682317   -3.189160   -0.620131
     41          6           0       -6.121820   -2.357035   -1.859020
     42          6           0       -4.405840   -5.087876   -1.284890
     43          6           0       -6.767089   -3.241020   -2.618703
     44          1           0        4.229345   -2.015351    0.225463
     45          1           0        5.074463    0.678830    0.945842
     46          1           0        4.935301   -0.656139    1.980695
     47          1           0        2.961497    1.549050    0.060912
     48          1           0        3.316757   -1.018702   -1.340193
     49          1           0       -0.536383   -0.233675    3.675905
     50          1           0       -1.132394    0.347050    2.098014
     51          1           0        0.619896    2.776861   -0.140432
     52          1           0        3.474227   -1.627623    3.438004
     53          1           0        1.686703   -1.558268    3.929612
     54          1           0        2.287731   -2.929084    2.681038
     55          1           0        6.557911   -2.399287    1.885437
     56          1           0        7.913253   -0.803403    1.163887
     57          1           0        7.795187   -2.819198    0.548675
     58          1           0       -1.162240   -2.043299    1.377434
     59          1           0       -0.399669   -2.484152    3.010390
     60          1           0       -1.454100   -0.401648   -0.084466
     61          1           0       -1.851749    4.881205   -1.889253
     62          1           0       -0.390894    4.409610   -0.925869
     63          1           0        7.562546   -0.430102   -3.243312
     64          1           0       -1.480168    4.620244    1.264368
     65          1           0       -2.983898    5.489905    0.599686
     66          1           0       -4.055863    4.174567   -2.059576
     67          1           0       -5.270145    3.204093   -1.074207
     68          1           0       -4.877680    2.205455   -2.459991
     69          1           0       -5.172272    0.211490   -1.534974
     70          1           0        9.395632   -1.238393   -0.465274
     71          1           0        9.921581   -0.883877   -2.373639
     72          1           0       -3.985997   -2.892525    3.337550
     73          1           0       -6.428026   -1.452034   -1.600867
     74          1           0       -4.220930   -5.333347   -2.366251
     75          1           0       -3.805965   -5.705667   -0.591043
     76          1           0       -5.295927   -5.183754   -1.163807
     77          1           0       -0.958566    8.258858    1.309121
     78          1           0       -7.938418   -3.163447   -2.793217
     79          1           0       -6.159694   -4.139979   -2.893416
 ---------------------------------------------------------------------

 SCF Done:  E(RB3LYP) =  -1947.76696999     A.U. after   16 cycles

 Excitation energies and oscillator strengths:

 Excited State   1:      Singlet-A      2.1184 eV  585.27 nm  f=0.3512  <S**2>=0.000
     154 ->156         0.11859
     155 ->156         0.69365
 This state for optimization and/or second-order correction.
 Total Energy, E(TD-HF/TD-KS) =  -1947.68911960
 Copying the excited state density for this state as the 1-particle RhoCI density.

 The electronic state is 1-A.
 Alpha  occ. eigenvalues --  -19.19306 -19.15498 -19.13397 -19.12925 -19.11907
 Alpha  occ. eigenvalues --  -19.10001 -14.38870 -14.36618 -14.35721 -14.28571
 Alpha  occ. eigenvalues --  -10.32862 -10.30233 -10.28570 -10.27068 -10.25601
 Alpha  occ. eigenvalues --  -10.24582 -10.23463 -10.23233 -10.23177 -10.22657
 Alpha  occ. eigenvalues --  -10.22419 -10.22373 -10.22198 -10.22152 -10.21731
 Alpha  occ. eigenvalues --  -10.21650 -10.21572 -10.21505 -10.21401 -10.20623
 Alpha  occ. eigenvalues --  -10.20569 -10.20371 -10.20246 -10.20112 -10.20013
 Alpha  occ. eigenvalues --  -10.19740 -10.19257 -10.19008 -10.18994 -10.18812
 Alpha  occ. eigenvalues --  -10.18789 -10.17838 -10.17534  -1.09479  -1.08822
 Alpha  occ. eigenvalues --   -1.04535  -1.02987  -1.01371  -1.00162  -0.98055
 Alpha  occ. eigenvalues --   -0.96492  -0.94780  -0.93160  -0.82566  -0.82108
 Alpha  occ. eigenvalues --   -0.82001  -0.81380  -0.80840  -0.79477  -0.77241
 Alpha  occ. eigenvalues --   -0.77168  -0.76822  -0.75489  -0.74130  -0.71975
 Alpha  occ. eigenvalues --   -0.70245  -0.70064  -0.69820  -0.68531  -0.67058
 Alpha  occ. eigenvalues --   -0.66369  -0.66106  -0.64654  -0.62628  -0.60633
 Alpha  occ. eigenvalues --   -0.60163  -0.58393  -0.57596  -0.56857  -0.56245
 Alpha  occ. eigenvalues --   -0.55432  -0.54763  -0.54135  -0.53081  -0.52975
 Alpha  occ. eigenvalues --   -0.52427  -0.52001  -0.50972  -0.50113  -0.49611
 Alpha  occ. eigenvalues --   -0.48753  -0.48555  -0.48341  -0.47804  -0.47457
 Alpha  occ. eigenvalues --   -0.46842  -0.46697  -0.46482  -0.45861  -0.45310
 Alpha  occ. eigenvalues --   -0.45126  -0.44598  -0.44351  -0.44002  -0.43780
 Alpha  occ. eigenvalues --   -0.43674  -0.42814  -0.42428  -0.42294  -0.42239
 Alpha  occ. eigenvalues --   -0.42089  -0.41794  -0.41640  -0.41601  -0.41109
 Alpha  occ. eigenvalues --   -0.40611  -0.40388  -0.39986  -0.39907  -0.39489
 Alpha  occ. eigenvalues --   -0.39272  -0.39100  -0.38920  -0.38633  -0.38569
 Alpha  occ. eigenvalues --   -0.38215  -0.38087  -0.37862  -0.37734  -0.36871
 Alpha  occ. eigenvalues --   -0.36138  -0.35984  -0.35779  -0.35510  -0.34335
 Alpha  occ. eigenvalues --   -0.34214  -0.33972  -0.33218  -0.33177  -0.31479
 Alpha  occ. eigenvalues --   -0.31437  -0.30269  -0.29721  -0.28895  -0.28323
 Alpha  occ. eigenvalues --   -0.27525  -0.27302  -0.26189  -0.25764  -0.25058
 Alpha  occ. eigenvalues --   -0.23793  -0.23401  -0.22846  -0.21864  -0.18636
 Alpha virt. eigenvalues --   -0.09848  -0.07679  -0.05802  -0.00524  -0.00346
 Alpha virt. eigenvalues --   -0.00196   0.00976   0.01300   0.01900   0.02859
 Alpha virt. eigenvalues --    0.03020   0.03640   0.03820   0.04316   0.05071

 Mulliken charges:
               1
     1  O   -0.212780
     2  O   -0.327764
     3  O   -0.163815
     4  O   -0.212372
     5  O   -0.217926
     6  O   -0.146577
     7  N    0.002723
     8  N   -0.195960
     9  N   -0.130821
    10  N   -0.316885
    11  C    0.116384
    12  C    0.235437
    13  C   -0.162995
    14  C   -0.087532
    15  C   -0.099561
    16  C    0.041134
    17  C   -0.097309
    18  C    0.015329
    19  C   -0.057958
    20  C   -0.088836
    21  C    0.141789
    22  C    0.155484
    23  C   -0.066850
    24  C    0.000323
    25  C   -0.081468
    26  C   -0.084799
    27  C    0.092058
    28  C    0.185278
    29  C    0.033702
    30  C   -0.082263
    31  C   -0.036861
    32  C    0.016640
    33  C   -0.171391
    34  C    0.115009
    35  C    0.027324
    36  C   -0.069145
    37  C    0.146684
    38  C   -0.016562
    39  C   -0.246334
    40  C    0.168518
    41  C    0.042959
    42  C    0.250621
    43  C   -0.031282
    44  H   -0.054331
    45  H   -0.009922
    46  H   -0.049174
    47  H    0.127554
    48  H    0.158048
    49  H    0.016115
    50  H    0.006813
    51  H   -0.039399
    52  H    0.017743
    53  H    0.026299
    54  H    0.049483
    55  H    0.056698
    56  H    0.084990
    57  H    0.075189
    58  H    0.049951
    59  H    0.011942
    60  H    0.227751
    61  H    0.042660
    62  H    0.018628
    63  H    0.060738
    64  H    0.052121
    65  H    0.058210
    66  H    0.042799
    67  H    0.028292
    68  H    0.048234
    69  H   -0.005690
    70  H    0.053316
    71  H    0.042557
    72  H    0.218582
    73  H   -0.070550
    74  H    0.034242
    75  H    0.030854
    76  H   -0.075909
    77  H    0.207133
    78  H    0.051044
    79  H    0.025639
 Sum of Mulliken charges =   0.00000

 Dipole moment (field-independent basis, Debye):
    X=              0.4374    Y=              2.1578    Z=              3.3947  Tot=              4.0461
 Quadrupole moment (field-independent basis, Debye-Ang):
   XX=           -220.7488   YY=           -236.8847   ZZ=           -269.8722
   XY=            -13.1290   XZ=             31.7034   YZ=             10.7369

 Normal termination of Gaussian 09 at Mon Jul  8 11:56:54 2019.
