 Gaussian 09, Revision D.01,
 Gaussian 09:  ES64L-G09RevD.01 24-Apr-2013

 --------------------------
 # td=(NStates=1) B3LYP/SVP
 --------------------------

 --
 TD
 --
 Symbolic Z-matrix:
 Charge =  0 Multiplicity = 1

                         Standard orientation:
 ---------------------------------------------------------------------
 Center     Atomic      Atomic             Coordinates (Angstroms)
 Number     Number       Type             X           Y           Z
 ---------------------------------------------------------------------
      1          8           0        5.547232   -0.099624   -3.339398
      2          8           0       -2.893951   -3.071576    3.245961
      3          8           0       -3.272160   -0.799715    3.110396
      4          8           0       -1.551176    7.324513    1.383346
      5          8           0       -0.601175    7.012119   -0.571453
      6          8           0       -1.985708   -4.205043   -0.160025
      7          7           0        2.301881    0.977496    0.687283
      8          7           0        4.448401   -0.566161   -1.275657
      9          7           0       -1.849893    0.699271   -0.191050
     10          7           0       -2.707258   -2.038290   -0.437604
     11          6           0        4.903034   -1.153304    0.034199
     12          6           0        4.398203   -0.179907    1.263603
     13          6           0        3.008596   -0.051931    1.357151
     14          6           0        2.038844   -0.780116    2.067848
     15          6           0        0.767238   -0.169244    1.769029
     16          6           0        0.936875    0.957225    0.875942
     17          6           0        6.393640   -1.374751   -0.228453
     18          6           0       -0.538460   -0.336290    2.498873
     19          6           0        6.755144   -0.913090   -1.397355
     20          6           0        0.147527    1.987875    0.196623
     21          6           0       -1.061557    1.799215   -0.183880
     22          6           0        5.613279   -0.428814   -2.181298
     23          6           0       -1.907630    2.873488   -0.822021
     24          6           0        2.111784   -1.941424    2.944895
     25          6           0        7.154202   -1.938928    0.954697
     26          6           0       -3.136239    2.342927   -1.239591
     27          6           0       -1.110758   -1.763016    2.440189
     28          6           0       -2.934946    0.898861   -0.845242
     29          6           0       -1.463089    4.342776   -0.807865
     30          6           0        8.037534   -0.884790   -2.026908
     31          6           0       -1.716239    5.028889    0.465292
     32          6           0       -4.300202    3.020130   -1.737291
     33          6           0       -3.973938   -0.048848   -1.114322
     34          6           0       -2.584878   -1.802040    2.902149
     35          6           0       -3.729121   -1.404445   -0.940709
     36          6           0        9.240328   -0.777588   -1.431538
     37          6           0       -1.248879    6.551906    0.313663
     38          6           0       -4.825827   -2.493379   -1.424422
     39          6           0       -4.166396   -3.608071   -1.153618
     40          6           0       -2.845425   -3.297306   -0.513070
     41          6           0       -6.097244   -2.162351   -1.963301
     42          6           0       -4.588151   -5.055559   -1.345561
     43          6           0       -6.744856   -2.940249   -2.892429
     44          1           0        4.442083   -2.318989   -0.128458
     45          1           0        4.755301    0.864907    0.966651
     46          1           0        4.766528   -0.839487    2.114194
     47          1           0        2.827605    1.578388   -0.080084
     48          1           0        3.590812   -0.570272   -1.627846
     49          1           0       -0.363555   -0.127961    3.488066
     50          1           0       -1.145036    0.266446    2.314538
     51          1           0        0.433532    2.983133    0.012812
     52          1           0        3.201386   -2.098383    3.153361
     53          1           0        1.766304   -1.882085    3.888282
     54          1           0        1.581046   -2.849983    2.407728
     55          1           0        6.601293   -2.377301    1.803456
     56          1           0        7.651103   -1.058112    1.542397
     57          1           0        8.067325   -2.526880    0.777424
     58          1           0       -0.973584   -2.149985    1.408443
     59          1           0       -0.545522   -2.458821    3.083355
     60          1           0       -1.349899   -0.223959   -0.038844
     61          1           0       -2.127176    4.715691   -1.504946
     62          1           0       -0.441310    4.609962   -1.098146
     63          1           0        8.058083   -0.733243   -3.230067
     64          1           0       -1.086868    4.560814    1.184808
     65          1           0       -2.743736    4.942307    0.792764
     66          1           0       -4.117606    3.996877   -2.017345
     67          1           0       -5.210697    3.224630   -0.836206
     68          1           0       -4.738299    2.548494   -2.642627
     69          1           0       -4.940191    0.348331   -1.603808
     70          1           0        9.264365   -0.838993   -0.396640
     71          1           0       10.202801   -0.752816   -1.943579
     72          1           0       -3.792989   -3.051215    3.711007
     73          1           0       -6.532615   -1.057760   -1.778884
     74          1           0       -3.950675   -5.364055   -2.501275
     75          1           0       -4.233517   -5.752198   -0.414957
     76          1           0       -5.856084   -5.455720   -1.536801
     77          1           0       -1.125773    8.156665    1.233522
     78          1           0       -7.809126   -2.784094   -3.170615
     79          1           0       -6.616085   -4.103051   -3.174790
 ---------------------------------------------------------------------

 SCF Done:  E(RB3LYP) =  -1947.75662760     A.U. after   18 cycles

 Excitation energies and oscillator strengths:

 Excited State   1:      Singlet-A      2.2982 eV  539.49 nm  f=0.2696  <S**2>=0.000
     153 ->156        -0.32980
     154 ->156         0.24657
     155 ->156         0.56364
 This state for optimization and/or second-order correction.
 Total Energy, E(TD-HF/TD-KS) =  -1947.67217050
 Copying the excited state density for this state as the 1-particle RhoCI density.

 The electronic state is 1-A.
 Alpha  occ. eigenvalues --  -19.19014 -19.17771 -19.14582 -19.11716 -19.11068
 Alpha  occ. eigenvalues --  -19.08027 -14.39100 -14.38845 -14.33617 -14.28533
 Alpha  occ. eigenvalues --  -10.33719 -10.31092 -10.28914 -10.26600 -10.26529
 Alpha  occ. eigenvalues --  -10.24904 -10.24056 -10.23738 -10.23625 -10.23472
 Alpha  occ. eigenvalues --  -10.23016 -10.22917 -10.22702 -10.22648 -10.22456
 Alpha  occ. eigenvalues --  -10.22334 -10.22162 -10.22066 -10.21762 -10.21218
 Alpha  occ. eigenvalues --  -10.20737 -10.20668 -10.20088 -10.19981 -10.19807
 Alpha  occ. eigenvalues --  -10.19579 -10.19544 -10.19430 -10.19092 -10.18693
 Alpha  occ. eigenvalues --  -10.18594 -10.18367 -10.16000  -1.12057  -1.07526
 Alpha  occ. eigenvalues --   -1.03039  -1.02634  -1.02569  -0.98732  -0.98467
 Alpha  occ. eigenvalues --   -0.97294  -0.92323  -0.91565  -0.84956  -0.83794
 Alpha  occ. eigenvalues --   -0.83000  -0.81518  -0.80748  -0.79924  -0.79763
 Alpha  occ. eigenvalues --   -0.77222  -0.76797  -0.76144  -0.73305  -0.73118
 Alpha  occ. eigenvalues --   -0.72567  -0.71404  -0.69808  -0.68898  -0.67552
 Alpha  occ. eigenvalues --   -0.67206  -0.65412  -0.64077  -0.61917  -0.60862
 Alpha  occ. eigenvalues --   -0.60589  -0.59769  -0.59097  -0.58801  -0.58313
 Alpha  occ. eigenvalues --   -0.57308  -0.56639  -0.55696  -0.54178  -0.52590
 Alpha  occ. eigenvalues --   -0.52342  -0.51475  -0.51234  -0.50810  -0.50467
 Alpha  occ. eigenvalues --   -0.49590  -0.49001  -0.48726  -0.48156  -0.47703
 Alpha  occ. eigenvalues --   -0.47561  -0.47029  -0.46782  -0.46720  -0.46049
 Alpha  occ. eigenvalues --   -0.45582  -0.44977  -0.44956  -0.44510  -0.44301
 Alpha  occ. eigenvalues --   -0.43887  -0.43600  -0.43267  -0.42938  -0.42826
 Alpha  occ. eigenvalues --   -0.42409  -0.42168  -0.41966  -0.41729  -0.41505
 Alpha  occ. eigenvalues --   -0.41299  -0.40942  -0.40786  -0.40742  -0.40351
 Alpha  occ. eigenvalues --   -0.39639  -0.39203  -0.38865  -0.38545  -0.37990
 Alpha  occ. eigenvalues --   -0.37640  -0.37460  -0.37344  -0.36652  -0.36196
 Alpha  occ. eigenvalues --   -0.35974  -0.35259  -0.35226  -0.34469  -0.34088
 Alpha  occ. eigenvalues --   -0.33702  -0.33291  -0.32704  -0.32083  -0.31910
 Alpha  occ. eigenvalues --   -0.31198  -0.30765  -0.30173  -0.28656  -0.27427
 Alpha  occ. eigenvalues --   -0.26959  -0.26423  -0.25645  -0.25286  -0.24819
 Alpha  occ. eigenvalues --   -0.24218  -0.23237  -0.22757  -0.22079  -0.19999
 Alpha virt. eigenvalues --   -0.10553  -0.05948  -0.05604  -0.01563  -0.00922
 Alpha virt. eigenvalues --   -0.00151   0.00575   0.00980   0.01681   0.02592
 Alpha virt. eigenvalues --    0.02694   0.03895   0.03954   0.04633   0.04690

 Mulliken charges:
               1
     1  O   -0.190855
     2  O   -0.192210
     3  O   -0.255440
     4  O   -0.165098
     5  O   -0.204032
     6  O   -0.295453
     7  N   -0.151719
     8  N   -0.268342
     9  N    0.040534
    10  N   -0.106081
    11  C    0.026819
    12  C    0.211670
    13  C   -0.066378
    14  C   -0.109117
    15  C   -0.183176
    16  C    0.091971
    17  C   -0.139667
    18  C    0.345898
    19  C   -0.005776
    20  C   -0.040502
    21  C    0.045922
    22  C    0.172528
    23  C   -0.102869
    24  C    0.124099
    25  C    0.050913
    26  C   -0.101423
    27  C   -0.071781
    28  C    0.052972
    29  C    0.106259
    30  C   -0.072525
    31  C    0.036513
    32  C    0.071162
    33  C   -0.154618
    34  C    0.175179
    35  C    0.067450
    36  C   -0.003517
    37  C    0.122264
    38  C    0.060849
    39  C   -0.136195
    40  C    0.096722
    41  C   -0.060702
    42  C   -0.101765
    43  C   -0.086692
    44  H    0.064629
    45  H    0.015106
    46  H    0.011613
    47  H    0.147486
    48  H    0.082996
    49  H   -0.030726
    50  H   -0.154526
    51  H   -0.041661
    52  H   -0.019956
    53  H   -0.009620
    54  H    0.071480
    55  H    0.022722
    56  H    0.038697
    57  H    0.035518
    58  H    0.072176
    59  H    0.024158
    60  H    0.185099
    61  H   -0.022515
    62  H    0.030477
    63  H    0.045906
    64  H    0.023729
    65  H    0.030776
    66  H   -0.013292
    67  H    0.059679
    68  H    0.043276
    69  H    0.006278
    70  H   -0.019030
    71  H    0.030800
    72  H    0.194405
    73  H    0.035676
    74  H    0.057129
    75  H    0.069028
    76  H    0.044328
    77  H    0.166585
    78  H    0.018194
    79  H    0.049586
 Sum of Mulliken charges =   0.00000

 Dipole moment (field-independent basis, Debye):
    X=              1.1384    Y=              5.1797    Z=              3.9527  Tot=              6.6143
 Quadrupole moment (field-independent basis, Debye-Ang):
   XX=           -223.0613   YY=           -252.7557   ZZ=           -261.9186
   XY=            -17.3343   XZ=             30.4990   YZ=             -3.0594

 Normal termination of Gaussian 09 at Wed Jul 10 04:43:10 2019.
