 Gaussian 09, Revision D.01,
 Gaussian 09:  ES64L-G09RevD.01 24-Apr-2013

 --------------------------
 # td=(NStates=1) B3LYP/SVP
 --------------------------

 --
 TD
 --
 Symbolic Z-matrix:
 Charge =  0 Multiplicity = 1

                         Standard orientation:
 ---------------------------------------------------------------------
 Center     Atomic      Atomic             Coordinates (Angstroms)
 Number     Number       Type             X           Y           Z
 ---------------------------------------------------------------------
      1          8           0        5.319668   -0.244648   -3.269064
      2          8           0       -2.956380   -2.736187    3.503938
      3          8           0       -3.239848   -0.588279    3.303681
      4          8           0       -1.190901    7.145081    1.381922
      5          8           0       -0.245753    7.041218   -0.602583
      6          8           0       -2.128041   -3.999419    0.076545
      7          7           0        2.392343    0.859935    0.460565
      8          7           0        4.438613   -0.888353   -1.186457
      9          7           0       -1.983545    0.655348   -0.343282
     10          7           0       -2.698826   -1.853599   -0.603500
     11          6           0        4.786687   -1.287415    0.072587
     12          6           0        4.449068   -0.338536    1.191694
     13          6           0        2.970317   -0.048699    1.343895
     14          6           0        2.013809   -0.570644    2.123221
     15          6           0        0.768899   -0.057306    1.691720
     16          6           0        1.081504    0.828029    0.722724
     17          6           0        6.397510   -1.444326   -0.181157
     18          6           0       -0.553946   -0.089193    2.544302
     19          6           0        6.728708   -1.006795   -1.431460
     20          6           0        0.231579    1.844560   -0.029235
     21          6           0       -1.072981    1.747593   -0.338394
     22          6           0        5.436106   -0.658780   -2.104600
     23          6           0       -1.899717    2.914428   -0.838540
     24          6           0        2.135830   -1.716866    3.182975
     25          6           0        7.207100   -1.977377    0.900100
     26          6           0       -3.220091    2.458614   -1.111670
     27          6           0       -1.190036   -1.568580    2.615741
     28          6           0       -3.159685    0.957264   -0.912784
     29          6           0       -1.463440    4.301305   -0.896686
     30          6           0        7.893023   -0.980432   -2.055869
     31          6           0       -1.709104    5.200398    0.229224
     32          6           0       -4.313102    3.159693   -1.756574
     33          6           0       -4.065184   -0.037573   -1.347390
     34          6           0       -2.528756   -1.538909    3.096627
     35          6           0       -3.799461   -1.432553   -1.083506
     36          6           0        9.186258   -0.979913   -1.587603
     37          6           0       -0.980172    6.574074    0.250029
     38          6           0       -4.661960   -2.581331   -1.544518
     39          6           0       -4.082707   -3.737248   -1.133779
     40          6           0       -2.840947   -3.243536   -0.530339
     41          6           0       -6.059933   -2.345095   -2.128969
     42          6           0       -4.547935   -5.168461   -1.152818
     43          6           0       -6.863570   -3.266600   -2.672976
     44          1           0        4.378400   -2.341870    0.254031
     45          1           0        4.989633    0.805573    1.100608
     46          1           0        4.824975   -0.679823    2.086709
     47          1           0        2.730490    1.506838   -0.399008
     48          1           0        3.497038   -0.693465   -1.356478
     49          1           0       -0.450392   -0.020741    3.627565
     50          1           0       -1.233483    0.646766    2.189748
     51          1           0        0.865477    2.805721   -0.385341
     52          1           0        3.144811   -1.684010    3.686839
     53          1           0        1.565969   -1.251460    3.875492
     54          1           0        1.632070   -2.739769    2.978174
     55          1           0        6.320790   -2.357449    1.728567
     56          1           0        7.817369   -1.299437    1.564582
     57          1           0        7.889974   -3.079231    0.712200
     58          1           0       -1.169646   -2.044910    1.727289
     59          1           0       -0.806854   -2.325453    3.355471
     60          1           0       -1.891649   -0.472191   -0.434621
     61          1           0       -1.927279    4.909734   -1.723315
     62          1           0       -0.447774    4.621997   -1.250749
     63          1           0        7.684363   -0.851880   -2.973539
     64          1           0       -1.325497    4.587003    1.114946
     65          1           0       -2.805630    5.144091    0.443488
     66          1           0       -4.152421    4.088712   -2.061609
     67          1           0       -5.003577    3.193485   -1.038985
     68          1           0       -4.777197    2.759789   -2.638122
     69          1           0       -5.111621    0.284020   -1.798115
     70          1           0        9.493880   -1.062665   -0.533107
     71          1           0       10.119131   -0.609704   -2.206211
     72          1           0       -3.865529   -2.371034    3.628658
     73          1           0       -6.458963   -1.348611   -1.854648
     74          1           0       -4.214803   -5.628040   -2.168964
     75          1           0       -4.045590   -5.756298   -0.407693
     76          1           0       -5.537742   -5.004834   -0.720384
     77          1           0       -0.528397    7.909114    1.528523
     78          1           0       -7.783604   -3.055154   -2.977702
     79          1           0       -6.568781   -4.398997   -2.876917
 ---------------------------------------------------------------------

 SCF Done:  E(RB3LYP) =  -1947.78555301     A.U. after   16 cycles

 Excitation energies and oscillator strengths:

 Excited State   1:      Singlet-A      2.3384 eV  530.20 nm  f=0.4415  <S**2>=0.000
     155 ->156         0.70111
 This state for optimization and/or second-order correction.
 Total Energy, E(TD-HF/TD-KS) =  -1947.69961706
 Copying the excited state density for this state as the 1-particle RhoCI density.

 The electronic state is 1-A.
 Alpha  occ. eigenvalues --  -19.20217 -19.16420 -19.13349 -19.11045 -19.10890
 Alpha  occ. eigenvalues --  -19.10017 -14.38718 -14.35918 -14.35138 -14.30498
 Alpha  occ. eigenvalues --  -10.33345 -10.29733 -10.28747 -10.26952 -10.25218
 Alpha  occ. eigenvalues --  -10.25037 -10.24974 -10.24040 -10.23516 -10.23043
 Alpha  occ. eigenvalues --  -10.22392 -10.22356 -10.22164 -10.22047 -10.22031
 Alpha  occ. eigenvalues --  -10.21855 -10.21521 -10.21017 -10.20780 -10.20756
 Alpha  occ. eigenvalues --  -10.20216 -10.20108 -10.19737 -10.19724 -10.19696
 Alpha  occ. eigenvalues --  -10.19677 -10.19539 -10.19228 -10.18646 -10.18367
 Alpha  occ. eigenvalues --  -10.18100 -10.18061 -10.18034  -1.12498  -1.10457
 Alpha  occ. eigenvalues --   -1.03355  -1.01857  -1.01277  -0.99396  -0.98906
 Alpha  occ. eigenvalues --   -0.97398  -0.95429  -0.94886  -0.83724  -0.83571
 Alpha  occ. eigenvalues --   -0.81267  -0.81058  -0.80837  -0.79650  -0.78679
 Alpha  occ. eigenvalues --   -0.77739  -0.76598  -0.76021  -0.74439  -0.73026
 Alpha  occ. eigenvalues --   -0.71721  -0.70860  -0.70315  -0.69421  -0.68461
 Alpha  occ. eigenvalues --   -0.67215  -0.66048  -0.64005  -0.63725  -0.61577
 Alpha  occ. eigenvalues --   -0.60487  -0.58833  -0.58539  -0.56715  -0.56596
 Alpha  occ. eigenvalues --   -0.56211  -0.55388  -0.54868  -0.53939  -0.53305
 Alpha  occ. eigenvalues --   -0.52903  -0.51703  -0.51682  -0.50800  -0.49841
 Alpha  occ. eigenvalues --   -0.49293  -0.48985  -0.48690  -0.48539  -0.48168
 Alpha  occ. eigenvalues --   -0.47783  -0.47562  -0.46989  -0.46692  -0.46236
 Alpha  occ. eigenvalues --   -0.46149  -0.45565  -0.45274  -0.44704  -0.44211
 Alpha  occ. eigenvalues --   -0.43560  -0.43369  -0.42970  -0.42702  -0.42659
 Alpha  occ. eigenvalues --   -0.42413  -0.42014  -0.41968  -0.41620  -0.41097
 Alpha  occ. eigenvalues --   -0.40769  -0.40663  -0.40376  -0.39902  -0.39773
 Alpha  occ. eigenvalues --   -0.39275  -0.38924  -0.38862  -0.38696  -0.38558
 Alpha  occ. eigenvalues --   -0.38160  -0.37910  -0.37547  -0.37251  -0.37080
 Alpha  occ. eigenvalues --   -0.36580  -0.36048  -0.35368  -0.34906  -0.33949
 Alpha  occ. eigenvalues --   -0.33544  -0.33382  -0.32727  -0.32130  -0.31659
 Alpha  occ. eigenvalues --   -0.31240  -0.30924  -0.29654  -0.29259  -0.28816
 Alpha  occ. eigenvalues --   -0.27093  -0.26355  -0.25680  -0.25597  -0.25036
 Alpha  occ. eigenvalues --   -0.24852  -0.24211  -0.23587  -0.23089  -0.19817
 Alpha virt. eigenvalues --   -0.10406  -0.07027  -0.06304  -0.00795  -0.00507
 Alpha virt. eigenvalues --    0.00574   0.00745   0.01864   0.02134   0.02678
 Alpha virt. eigenvalues --    0.03088   0.03781   0.04138   0.04556   0.04680

 Mulliken charges:
               1
     1  O   -0.247019
     2  O   -0.175013
     3  O   -0.255000
     4  O   -0.145743
     5  O   -0.235500
     6  O   -0.179832
     7  N   -0.125566
     8  N   -0.115550
     9  N   -0.145515
    10  N   -0.237023
    11  C    0.061120
    12  C    0.201106
    13  C   -0.089293
    14  C   -0.146641
    15  C   -0.102206
    16  C    0.025285
    17  C   -0.137522
    18  C    0.102526
    19  C    0.037813
    20  C   -0.145501
    21  C    0.186421
    22  C    0.161343
    23  C   -0.038404
    24  C    0.143462
    25  C   -0.081149
    26  C   -0.130626
    27  C    0.052705
    28  C    0.061099
    29  C    0.025514
    30  C    0.048412
    31  C   -0.050499
    32  C    0.239721
    33  C   -0.125031
    34  C    0.087904
    35  C    0.044920
    36  C   -0.064961
    37  C    0.138242
    38  C   -0.006116
    39  C   -0.212187
    40  C    0.128455
    41  C   -0.019257
    42  C    0.130204
    43  C   -0.005991
    44  H    0.034006
    45  H    0.019660
    46  H   -0.049011
    47  H    0.177174
    48  H    0.095033
    49  H    0.011957
    50  H    0.017745
    51  H    0.034907
    52  H    0.000438
    53  H   -0.028768
    54  H    0.066016
    55  H    0.026505
    56  H    0.060838
    57  H    0.072289
    58  H    0.011580
    59  H    0.036489
    60  H    0.202314
    61  H    0.001968
    62  H    0.008318
    63  H   -0.086807
    64  H    0.034883
    65  H    0.031553
    66  H   -0.044518
    67  H   -0.014367
    68  H    0.019207
    69  H    0.015234
    70  H    0.019111
    71  H    0.049577
    72  H    0.158406
    73  H    0.009813
    74  H    0.061451
    75  H    0.006235
    76  H    0.035641
    77  H    0.212164
    78  H   -0.014857
    79  H    0.048709
 Sum of Mulliken charges =   0.00000

 Dipole moment (field-independent basis, Debye):
    X=             -0.8489    Y=              2.6964    Z=              3.0223  Tot=              4.1383
 Quadrupole moment (field-independent basis, Debye-Ang):
   XX=           -223.7004   YY=           -242.1504   ZZ=           -267.2774
   XY=             -4.0797   XZ=             37.3687   YZ=              9.5732

 Normal termination of Gaussian 09 at Sun Jul  7 23:19:04 2019.
