 Gaussian 09, Revision D.01,
 Gaussian 09:  ES64L-G09RevD.01 24-Apr-2013

 --------------------------
 # td=(NStates=1) B3LYP/SVP
 --------------------------

 --
 TD
 --
 Symbolic Z-matrix:
 Charge =  0 Multiplicity = 1

                         Standard orientation:
 ---------------------------------------------------------------------
 Center     Atomic      Atomic             Coordinates (Angstroms)
 Number     Number       Type             X           Y           Z
 ---------------------------------------------------------------------
      1          8           0        5.429255   -0.086079   -3.328799
      2          8           0       -3.055229   -3.073729    3.253938
      3          8           0       -3.249327   -0.794016    3.177599
      4          8           0       -1.448396    7.176270    1.515192
      5          8           0       -0.329858    6.993774   -0.375932
      6          8           0       -2.018598   -4.023176   -0.034412
      7          7           0        2.431418    0.901801    0.623168
      8          7           0        4.457025   -0.541463   -1.277191
      9          7           0       -1.919555    0.679249   -0.268677
     10          7           0       -2.772110   -1.839100   -0.439973
     11          6           0        4.795000   -1.238687   -0.072425
     12          6           0        4.426491   -0.414239    1.252963
     13          6           0        2.956360   -0.118559    1.377679
     14          6           0        1.984525   -0.830730    2.165254
     15          6           0        0.705757   -0.175914    1.823387
     16          6           0        0.962041    0.820427    0.763608
     17          6           0        6.247112   -1.438513   -0.251594
     18          6           0       -0.609191   -0.365942    2.571679
     19          6           0        6.659862   -0.954324   -1.419142
     20          6           0        0.223399    1.800287    0.147953
     21          6           0       -1.121790    1.804358   -0.259382
     22          6           0        5.530351   -0.448956   -2.213210
     23          6           0       -1.810509    2.957812   -0.818856
     24          6           0        2.241287   -1.865302    3.168631
     25          6           0        7.163393   -2.013892    0.802673
     26          6           0       -3.067024    2.401731   -1.224000
     27          6           0       -1.215211   -1.834850    2.427267
     28          6           0       -3.065940    1.054558   -0.894535
     29          6           0       -1.352343    4.374533   -0.847769
     30          6           0        7.974483   -0.970120   -1.996933
     31          6           0       -1.656658    5.101660    0.444439
     32          6           0       -4.250464    3.214193   -1.761339
     33          6           0       -4.024094    0.039191   -1.263683
     34          6           0       -2.587217   -1.877678    2.979294
     35          6           0       -3.804052   -1.290031   -1.033886
     36          6           0        9.239763   -0.819250   -1.479981
     37          6           0       -1.004259    6.513403    0.466114
     38          6           0       -4.750614   -2.457050   -1.529271
     39          6           0       -4.186251   -3.619047   -1.251737
     40          6           0       -2.765096   -3.279636   -0.577455
     41          6           0       -6.019895   -2.100640   -2.259011
     42          6           0       -4.512417   -5.072928   -1.295189
     43          6           0       -7.042957   -2.967603   -2.564748
     44          1           0        4.342225   -2.209123    0.065585
     45          1           0        5.102417    0.549677    1.276290
     46          1           0        5.117319   -0.775299    1.950769
     47          1           0        2.736384    1.343544   -0.247159
     48          1           0        3.558987   -0.383551   -1.582956
     49          1           0       -0.305950    0.048975    3.570118
     50          1           0       -1.472264    0.408157    2.170929
     51          1           0        0.662198    2.689675   -0.096915
     52          1           0        3.315885   -1.683449    3.324848
     53          1           0        1.909341   -1.561148    4.222041
     54          1           0        2.038994   -3.065570    3.080328
     55          1           0        6.558202   -2.599699    1.523635
     56          1           0        7.335003   -1.137109    1.627252
     57          1           0        8.062137   -2.455727    0.448098
     58          1           0       -1.318399   -2.065147    1.351272
     59          1           0       -0.425734   -2.603428    2.702816
     60          1           0       -1.727016   -0.311579   -0.418152
     61          1           0       -1.948438    4.976984   -1.543423
     62          1           0       -0.214579    4.488246   -1.257519
     63          1           0        7.890225   -0.672117   -2.998134
     64          1           0       -1.271113    4.524125    1.296192
     65          1           0       -2.677765    5.111433    0.831260
     66          1           0       -3.997373    4.394359   -1.719926
     67          1           0       -5.304846    3.088218   -1.200772
     68          1           0       -4.228710    2.936086   -2.927858
     69          1           0       -4.869874    0.213629   -1.701247
     70          1           0        9.580190   -0.855157   -0.362982
     71          1           0       10.100591   -0.779160   -2.077733
     72          1           0       -4.149764   -3.079414    3.094236
     73          1           0       -6.107703   -1.011723   -2.615787
     74          1           0       -4.646785   -5.430784   -2.331104
     75          1           0       -3.488364   -5.636118   -1.007454
     76          1           0       -5.455044   -5.558153   -0.806209
     77          1           0       -1.224674    8.165044    1.428588
     78          1           0       -7.953566   -2.416484   -3.131446
     79          1           0       -7.105429   -4.165542   -2.320241
 ---------------------------------------------------------------------

 SCF Done:  E(RB3LYP) =  -1947.85036201     A.U. after   17 cycles

 Excitation energies and oscillator strengths:

 Excited State   1:      Singlet-A      2.0906 eV  593.05 nm  f=0.5463  <S**2>=0.000
     155 ->156         0.70630
     155 <-156        -0.13179
 This state for optimization and/or second-order correction.
 Total Energy, E(TD-HF/TD-KS) =  -1947.77353291
 Copying the excited state density for this state as the 1-particle RhoCI density.

 The electronic state is 1-A.
 Alpha  occ. eigenvalues --  -19.19276 -19.18003 -19.13540 -19.11521 -19.11258
 Alpha  occ. eigenvalues --  -19.09647 -14.39516 -14.35813 -14.34614 -14.28170
 Alpha  occ. eigenvalues --  -10.32677 -10.30459 -10.29007 -10.26843 -10.25903
 Alpha  occ. eigenvalues --  -10.25233 -10.24093 -10.24011 -10.23779 -10.22957
 Alpha  occ. eigenvalues --  -10.22659 -10.22277 -10.22276 -10.21979 -10.21967
 Alpha  occ. eigenvalues --  -10.21943 -10.21845 -10.21477 -10.21445 -10.21440
 Alpha  occ. eigenvalues --  -10.21286 -10.21260 -10.20850 -10.20803 -10.20695
 Alpha  occ. eigenvalues --  -10.20226 -10.20107 -10.19720 -10.19559 -10.19478
 Alpha  occ. eigenvalues --  -10.19076 -10.18994 -10.16962  -1.11633  -1.06845
 Alpha  occ. eigenvalues --   -1.05382  -1.03292  -1.02422  -0.98913  -0.97479
 Alpha  occ. eigenvalues --   -0.95172  -0.95079  -0.90539  -0.83114  -0.83098
 Alpha  occ. eigenvalues --   -0.81877  -0.81148  -0.79361  -0.78743  -0.78113
 Alpha  occ. eigenvalues --   -0.77069  -0.75764  -0.75145  -0.73531  -0.72346
 Alpha  occ. eigenvalues --   -0.71979  -0.71018  -0.69272  -0.68443  -0.67669
 Alpha  occ. eigenvalues --   -0.66668  -0.66404  -0.63334  -0.62303  -0.61284
 Alpha  occ. eigenvalues --   -0.59777  -0.59141  -0.58407  -0.57747  -0.57376
 Alpha  occ. eigenvalues --   -0.56522  -0.55957  -0.54588  -0.54178  -0.52618
 Alpha  occ. eigenvalues --   -0.52018  -0.51858  -0.51212  -0.50806  -0.49604
 Alpha  occ. eigenvalues --   -0.49165  -0.48984  -0.48718  -0.47867  -0.47341
 Alpha  occ. eigenvalues --   -0.46886  -0.46663  -0.46257  -0.45759  -0.45421
 Alpha  occ. eigenvalues --   -0.45020  -0.44498  -0.44096  -0.43868  -0.43729
 Alpha  occ. eigenvalues --   -0.43619  -0.43454  -0.43105  -0.42669  -0.42409
 Alpha  occ. eigenvalues --   -0.42186  -0.42117  -0.41517  -0.41363  -0.41037
 Alpha  occ. eigenvalues --   -0.40796  -0.40655  -0.40599  -0.40264  -0.40259
 Alpha  occ. eigenvalues --   -0.39400  -0.39071  -0.38619  -0.38526  -0.38358
 Alpha  occ. eigenvalues --   -0.37887  -0.37197  -0.36748  -0.36345  -0.36220
 Alpha  occ. eigenvalues --   -0.35802  -0.35271  -0.34743  -0.34459  -0.34076
 Alpha  occ. eigenvalues --   -0.33808  -0.33696  -0.33515  -0.32196  -0.31609
 Alpha  occ. eigenvalues --   -0.30866  -0.29557  -0.29053  -0.28821  -0.27482
 Alpha  occ. eigenvalues --   -0.26685  -0.26600  -0.25877  -0.25432  -0.25026
 Alpha  occ. eigenvalues --   -0.24457  -0.24054  -0.23518  -0.22023  -0.18549
 Alpha virt. eigenvalues --   -0.10647  -0.06317  -0.05500  -0.01232  -0.00145
 Alpha virt. eigenvalues --    0.00143   0.00305   0.00547   0.01843   0.02734
 Alpha virt. eigenvalues --    0.02950   0.03276   0.03677   0.03862   0.04960

 Mulliken charges:
               1
     1  O   -0.158902
     2  O   -0.213958
     3  O   -0.312136
     4  O   -0.186033
     5  O   -0.192659
     6  O   -0.175129
     7  N   -0.124733
     8  N   -0.212012
     9  N   -0.028608
    10  N   -0.327673
    11  C    0.158383
    12  C    0.094552
    13  C    0.038963
    14  C   -0.100721
    15  C   -0.081409
    16  C    0.132595
    17  C   -0.212110
    18  C    0.011153
    19  C   -0.065528
    20  C   -0.068052
    21  C    0.021275
    22  C    0.154900
    23  C   -0.047952
    24  C    0.028108
    25  C    0.093770
    26  C   -0.119004
    27  C    0.012582
    28  C    0.101953
    29  C    0.060758
    30  C    0.020661
    31  C   -0.016791
    32  C   -0.018738
    33  C   -0.003290
    34  C    0.180082
    35  C    0.062888
    36  C   -0.061357
    37  C    0.123297
    38  C    0.048438
    39  C   -0.205754
    40  C    0.162470
    41  C   -0.040736
    42  C    0.013647
    43  C   -0.099014
    44  H    0.018444
    45  H    0.001241
    46  H   -0.036756
    47  H    0.136172
    48  H    0.088278
    49  H    0.028888
    50  H    0.067486
    51  H   -0.062319
    52  H   -0.009180
    53  H    0.027513
    54  H    0.077711
    55  H    0.009352
    56  H    0.039579
    57  H    0.044787
    58  H    0.070031
    59  H    0.027674
    60  H    0.146690
    61  H    0.008885
    62  H    0.062009
    63  H   -0.003118
    64  H    0.024197
    65  H    0.032128
    66  H    0.032691
    67  H    0.070707
    68  H    0.055044
    69  H   -0.146701
    70  H    0.031852
    71  H    0.019158
    72  H    0.251566
    73  H    0.028590
    74  H    0.013675
    75  H    0.045106
    76  H    0.045065
    77  H    0.203515
    78  H    0.041192
    79  H    0.060669
 Sum of Mulliken charges =   0.00000

 Dipole moment (field-independent basis, Debye):
    X=              2.2253    Y=              2.9372    Z=              2.5570  Tot=              4.4852
 Quadrupole moment (field-independent basis, Debye-Ang):
   XX=           -224.7751   YY=           -238.2571   ZZ=           -268.3227
   XY=            -15.7418   XZ=             32.4916   YZ=              2.9211

 Normal termination of Gaussian 09 at Sun Jul  7 18:21:12 2019.
