 Gaussian 09, Revision D.01,
 Gaussian 09:  ES64L-G09RevD.01 24-Apr-2013

 --------------------------
 # td=(NStates=1) B3LYP/SVP
 --------------------------

 --
 TD
 --
 Symbolic Z-matrix:
 Charge =  0 Multiplicity = 1

                         Standard orientation:
 ---------------------------------------------------------------------
 Center     Atomic      Atomic             Coordinates (Angstroms)
 Number     Number       Type             X           Y           Z
 ---------------------------------------------------------------------
      1          8           0        5.383955   -0.446588   -3.366304
      2          8           0       -2.831862   -3.005969    3.367357
      3          8           0       -3.193191   -0.753004    3.623798
      4          8           0       -1.430869    7.017430    1.569590
      5          8           0       -0.652734    7.035375   -0.621306
      6          8           0       -2.051500   -4.105095    0.003064
      7          7           0        2.370900    0.891406    0.481218
      8          7           0        4.424803   -0.602582   -1.269571
      9          7           0       -1.865533    0.659369   -0.364281
     10          7           0       -2.648511   -1.883267   -0.629826
     11          6           0        4.810119   -1.146575    0.002743
     12          6           0        4.494447   -0.317482    1.334107
     13          6           0        3.008512    0.020689    1.393317
     14          6           0        1.870190   -0.422362    2.248046
     15          6           0        0.685762    0.134641    1.863950
     16          6           0        1.021214    0.919883    0.796275
     17          6           0        6.277426   -1.354454   -0.100245
     18          6           0       -0.523497   -0.163494    2.618251
     19          6           0        6.686769   -0.905119   -1.359430
     20          6           0        0.194228    1.886486    0.036366
     21          6           0       -1.114479    1.796145   -0.402608
     22          6           0        5.483075   -0.640667   -2.166104
     23          6           0       -1.856979    2.871059   -1.016594
     24          6           0        2.214725   -1.527402    3.316183
     25          6           0        7.307108   -1.961849    0.858179
     26          6           0       -3.085048    2.298669   -1.308608
     27          6           0       -1.090287   -1.568177    2.648088
     28          6           0       -3.033652    0.985255   -0.998950
     29          6           0       -1.387866    4.331670   -1.079193
     30          6           0        7.989383   -0.920036   -2.131286
     31          6           0       -1.673176    5.064320    0.294221
     32          6           0       -4.323777    2.897169   -1.986125
     33          6           0       -4.016321   -0.026613   -1.327446
     34          6           0       -2.563945   -1.655035    3.240789
     35          6           0       -3.761884   -1.416572   -1.144694
     36          6           0        9.203672   -0.900777   -1.604946
     37          6           0       -1.249199    6.498843    0.306243
     38          6           0       -4.780183   -2.515659   -1.447061
     39          6           0       -4.151188   -3.695872   -1.070120
     40          6           0       -2.785213   -3.280174   -0.576209
     41          6           0       -6.063855   -2.256992   -2.120836
     42          6           0       -4.609738   -5.088974   -1.125912
     43          6           0       -6.827105   -3.192754   -2.769080
     44          1           0        4.373100   -2.080012    0.035557
     45          1           0        4.881014    0.969540    1.175836
     46          1           0        4.893636   -0.635772    2.012217
     47          1           0        2.847428    1.314863   -0.127230
     48          1           0        3.552853   -0.736549   -1.589441
     49          1           0       -0.549461    0.086593    3.739509
     50          1           0       -1.417632    0.485317    2.127523
     51          1           0        0.794152    2.921095   -0.234921
     52          1           0        3.205855   -1.621857    3.453068
     53          1           0        1.755893   -1.066408    4.458108
     54          1           0        1.645531   -2.442492    2.969466
     55          1           0        6.776709   -2.553870    1.616132
     56          1           0        7.797534   -1.277223    1.467353
     57          1           0        8.039397   -2.657674    0.254816
     58          1           0       -1.208098   -1.867765    1.424841
     59          1           0       -0.305119   -1.970904    3.443231
     60          1           0       -1.819354   -0.368285   -0.302285
     61          1           0       -2.065578    4.591406   -1.795457
     62          1           0       -0.440975    4.436828   -1.218301
     63          1           0        7.834884   -0.804392   -3.096386
     64          1           0       -1.009775    4.457009    1.056424
     65          1           0       -2.765944    5.116609    0.741934
     66          1           0       -3.902266    3.773080   -2.148449
     67          1           0       -5.099884    3.084194   -1.127712
     68          1           0       -4.642995    2.276858   -2.743468
     69          1           0       -4.924542    0.429435   -1.796983
     70          1           0        9.348841   -0.935535   -0.657374
     71          1           0        9.949297   -0.888246   -2.344737
     72          1           0       -3.702280   -2.994114    3.691331
     73          1           0       -6.279321   -1.201392   -2.046054
     74          1           0       -4.432595   -5.478472   -2.323576
     75          1           0       -3.779658   -5.595359   -0.467186
     76          1           0       -5.679107   -5.274768   -0.637689
     77          1           0       -1.079248    7.935412    1.426309
     78          1           0       -7.946174   -2.913109   -2.968589
     79          1           0       -6.503553   -4.392445   -2.928054
 ---------------------------------------------------------------------

 SCF Done:  E(RB3LYP) =  -1947.68223262     A.U. after   17 cycles

 Excitation energies and oscillator strengths:

 Excited State   1:      Singlet-A      2.1061 eV  588.69 nm  f=0.5226  <S**2>=0.000
     154 ->156         0.10761
     155 ->156         0.69574
     155 <-156        -0.11397
 This state for optimization and/or second-order correction.
 Total Energy, E(TD-HF/TD-KS) =  -1947.60483447
 Copying the excited state density for this state as the 1-particle RhoCI density.

 The electronic state is 1-A.
 Alpha  occ. eigenvalues --  -19.19900 -19.16775 -19.14430 -19.13355 -19.10262
 Alpha  occ. eigenvalues --  -19.10106 -14.38363 -14.35909 -14.35230 -14.29812
 Alpha  occ. eigenvalues --  -10.33418 -10.31386 -10.28419 -10.26616 -10.25538
 Alpha  occ. eigenvalues --  -10.24517 -10.24308 -10.24072 -10.23672 -10.23584
 Alpha  occ. eigenvalues --  -10.23555 -10.23490 -10.23284 -10.23100 -10.21975
 Alpha  occ. eigenvalues --  -10.21922 -10.21379 -10.21243 -10.20703 -10.20681
 Alpha  occ. eigenvalues --  -10.20537 -10.20500 -10.20355 -10.20255 -10.19811
 Alpha  occ. eigenvalues --  -10.19796 -10.19701 -10.19618 -10.19495 -10.19297
 Alpha  occ. eigenvalues --  -10.19250 -10.19192 -10.17974  -1.09982  -1.09741
 Alpha  occ. eigenvalues --   -1.02968  -1.02284  -1.01614  -1.00019  -0.99604
 Alpha  occ. eigenvalues --   -0.99232  -0.95504  -0.92281  -0.83794  -0.83465
 Alpha  occ. eigenvalues --   -0.82744  -0.81551  -0.80502  -0.79586  -0.78405
 Alpha  occ. eigenvalues --   -0.77409  -0.76175  -0.75592  -0.74255  -0.72787
 Alpha  occ. eigenvalues --   -0.72739  -0.71841  -0.70599  -0.69483  -0.68309
 Alpha  occ. eigenvalues --   -0.67104  -0.66920  -0.64129  -0.62524  -0.61108
 Alpha  occ. eigenvalues --   -0.59936  -0.59540  -0.59014  -0.58110  -0.57602
 Alpha  occ. eigenvalues --   -0.56627  -0.55474  -0.55011  -0.54193  -0.53642
 Alpha  occ. eigenvalues --   -0.52489  -0.51891  -0.51233  -0.50516  -0.50226
 Alpha  occ. eigenvalues --   -0.49745  -0.49591  -0.49147  -0.48788  -0.48528
 Alpha  occ. eigenvalues --   -0.48088  -0.47612  -0.46980  -0.46751  -0.46403
 Alpha  occ. eigenvalues --   -0.46001  -0.45187  -0.44816  -0.44389  -0.44294
 Alpha  occ. eigenvalues --   -0.43597  -0.43505  -0.42945  -0.42843  -0.42473
 Alpha  occ. eigenvalues --   -0.42388  -0.42319  -0.41954  -0.41842  -0.41687
 Alpha  occ. eigenvalues --   -0.41622  -0.40754  -0.40493  -0.40347  -0.39661
 Alpha  occ. eigenvalues --   -0.39564  -0.39227  -0.38943  -0.38787  -0.38721
 Alpha  occ. eigenvalues --   -0.38573  -0.38075  -0.37831  -0.37507  -0.36899
 Alpha  occ. eigenvalues --   -0.36048  -0.35757  -0.35532  -0.34300  -0.34011
 Alpha  occ. eigenvalues --   -0.33826  -0.33453  -0.33182  -0.32712  -0.31772
 Alpha  occ. eigenvalues --   -0.30953  -0.30384  -0.29528  -0.28855  -0.27941
 Alpha  occ. eigenvalues --   -0.27462  -0.27417  -0.26568  -0.26134  -0.25749
 Alpha  occ. eigenvalues --   -0.24807  -0.23972  -0.23067  -0.21984  -0.19116
 Alpha virt. eigenvalues --   -0.10957  -0.06560  -0.06119  -0.02133  -0.01088
 Alpha virt. eigenvalues --   -0.00164   0.00950   0.01568   0.02302   0.03175
 Alpha virt. eigenvalues --    0.03613   0.03848   0.04561   0.04751   0.04789

 Mulliken charges:
               1
     1  O   -0.223859
     2  O   -0.162620
     3  O   -0.164694
     4  O   -0.201373
     5  O   -0.236163
     6  O   -0.233672
     7  N    0.005289
     8  N   -0.146590
     9  N   -0.030179
    10  N   -0.283385
    11  C    0.205423
    12  C    0.302922
    13  C   -0.077415
    14  C   -0.169300
    15  C    0.046814
    16  C    0.033705
    17  C   -0.244698
    18  C   -0.023324
    19  C   -0.072456
    20  C   -0.144068
    21  C    0.116172
    22  C    0.125839
    23  C   -0.155900
    24  C    0.068576
    25  C    0.089928
    26  C   -0.224108
    27  C   -0.133212
    28  C    0.034275
    29  C    0.331969
    30  C    0.035599
    31  C   -0.105783
    32  C    0.248451
    33  C   -0.132989
    34  C    0.139940
    35  C    0.105221
    36  C    0.112036
    37  C    0.168232
    38  C    0.020614
    39  C   -0.201661
    40  C    0.184757
    41  C    0.020051
    42  C   -0.039853
    43  C   -0.095439
    44  H   -0.002701
    45  H    0.040147
    46  H   -0.190105
    47  H    0.028862
    48  H    0.089155
    49  H    0.019401
    50  H    0.020246
    51  H    0.031493
    52  H   -0.025492
    53  H    0.032742
    54  H    0.076426
    55  H    0.003520
    56  H    0.026153
    57  H    0.068979
    58  H    0.119287
    59  H    0.052829
    60  H    0.138934
    61  H   -0.011049
    62  H   -0.052867
    63  H   -0.048709
    64  H    0.071955
    65  H    0.062621
    66  H   -0.057027
    67  H    0.037304
    68  H    0.030596
    69  H   -0.016553
    70  H   -0.055841
    71  H    0.014210
    72  H    0.141077
    73  H   -0.012819
    74  H    0.062762
    75  H    0.053757
    76  H    0.058985
    77  H    0.186651
    78  H    0.043703
    79  H    0.068295
 Sum of Mulliken charges =   0.00000

 Dipole moment (field-independent basis, Debye):
    X=              1.6682    Y=              3.2445    Z=              3.3511  Tot=              4.9538
 Quadrupole moment (field-independent basis, Debye-Ang):
   XX=           -217.8184   YY=           -252.1971   ZZ=           -267.8568
   XY=            -13.9462   XZ=             30.2401   YZ=              2.6093

 Normal termination of Gaussian 09 at Tue Jul  9 18:40:11 2019.
