 Gaussian 09, Revision D.01,
 Gaussian 09:  ES64L-G09RevD.01 24-Apr-2013

 --------------------------
 # td=(NStates=1) B3LYP/SVP
 --------------------------

 --
 TD
 --
 Symbolic Z-matrix:
 Charge =  0 Multiplicity = 1

                         Standard orientation:
 ---------------------------------------------------------------------
 Center     Atomic      Atomic             Coordinates (Angstroms)
 Number     Number       Type             X           Y           Z
 ---------------------------------------------------------------------
      1          8           0        5.413273    0.156379   -3.231294
      2          8           0       -3.041885   -3.016432    3.099829
      3          8           0       -3.058494   -0.822381    3.471893
      4          8           0       -1.333972    7.120805    1.590095
      5          8           0       -0.265070    7.051840   -0.283066
      6          8           0       -1.993933   -3.939278   -0.291598
      7          7           0        2.370585    0.748405    0.585154
      8          7           0        4.362024   -0.701448   -1.246613
      9          7           0       -1.941505    0.680921   -0.331974
     10          7           0       -2.832021   -1.822615   -0.452861
     11          6           0        4.795089   -1.353983   -0.108548
     12          6           0        4.487212   -0.441651    1.147956
     13          6           0        3.031071   -0.115586    1.399828
     14          6           0        2.008765   -0.727578    2.304642
     15          6           0        0.777201   -0.151569    1.803375
     16          6           0        1.062224    0.784849    0.799706
     17          6           0        6.222687   -1.576589   -0.309307
     18          6           0       -0.488871   -0.380273    2.461463
     19          6           0        6.673334   -0.944204   -1.444720
     20          6           0        0.271123    1.804116    0.140379
     21          6           0       -1.138802    1.852511   -0.179997
     22          6           0        5.535448   -0.329567   -2.070029
     23          6           0       -1.835379    2.889260   -0.894524
     24          6           0        2.347717   -1.713388    3.318424
     25          6           0        7.073782   -2.135305    0.720620
     26          6           0       -3.035474    2.436515   -1.283223
     27          6           0       -1.143815   -1.795533    2.380278
     28          6           0       -3.054847    0.951103   -0.982501
     29          6           0       -1.299402    4.312672   -0.914310
     30          6           0        8.003823   -0.937436   -2.172500
     31          6           0       -1.607251    5.211838    0.461005
     32          6           0       -4.260687    3.215338   -1.994890
     33          6           0       -3.989416    0.000777   -1.435650
     34          6           0       -2.467739   -1.760972    3.080063
     35          6           0       -3.815350   -1.258139   -1.148440
     36          6           0        9.180710   -1.053023   -1.573869
     37          6           0       -0.952199    6.511655    0.515762
     38          6           0       -4.922464   -2.379242   -1.448042
     39          6           0       -4.258145   -3.515812   -1.113544
     40          6           0       -2.919701   -3.191084   -0.606098
     41          6           0       -6.192708   -2.108538   -1.892303
     42          6           0       -4.695546   -4.952166   -1.255846
     43          6           0       -7.054085   -3.004468   -2.466476
     44          1           0        4.055309   -2.446532   -0.031475
     45          1           0        4.902240    0.617634    1.101327
     46          1           0        4.852414   -0.844095    2.072034
     47          1           0        3.058561    1.162243   -0.168858
     48          1           0        3.376147   -0.405637   -1.659818
     49          1           0       -0.311753   -0.061330    3.571710
     50          1           0       -1.062923    0.298733    2.083429
     51          1           0        0.786100    2.682145   -0.135920
     52          1           0        3.370660   -1.493451    3.868376
     53          1           0        1.396103   -1.783535    3.978797
     54          1           0        2.283658   -2.916790    2.913952
     55          1           0        6.392415   -2.897136    1.474343
     56          1           0        7.453013   -1.352453    1.505688
     57          1           0        7.908406   -2.826646    0.494426
     58          1           0       -1.377958   -2.314194    1.456359
     59          1           0       -0.307839   -2.379919    2.817771
     60          1           0       -1.942252   -0.402214   -0.154421
     61          1           0       -1.621901    4.842646   -1.870146
     62          1           0       -0.191562    4.217497   -1.039571
     63          1           0        7.893730   -0.921354   -3.099137
     64          1           0       -1.135326    4.517671    1.405982
     65          1           0       -2.726539    5.499008    0.458420
     66          1           0       -4.176248    4.333153   -2.071157
     67          1           0       -5.212765    3.089723   -1.539643
     68          1           0       -4.447749    2.535710   -2.861029
     69          1           0       -4.859496    0.377856   -1.926974
     70          1           0        9.279777   -0.994455   -0.483430
     71          1           0        9.987815   -0.868324   -2.248061
     72          1           0       -3.981627   -2.980868    3.586885
     73          1           0       -6.440518   -0.891837   -1.885184
     74          1           0       -4.903033   -5.189389   -2.315315
     75          1           0       -4.059220   -5.560093   -0.697059
     76          1           0       -5.675276   -5.299741   -0.813951
     77          1           0       -1.062398    8.029100    1.622219
     78          1           0       -8.179977   -2.907000   -2.744422
     79          1           0       -6.822723   -4.077609   -2.821065
 ---------------------------------------------------------------------

 SCF Done:  E(RB3LYP) =  -1947.79731152     A.U. after   18 cycles

 Excitation energies and oscillator strengths:

 Excited State   1:      Singlet-A      2.2098 eV  561.06 nm  f=0.4857  <S**2>=0.000
     154 ->156         0.18543
     155 ->156         0.67560
 This state for optimization and/or second-order correction.
 Total Energy, E(TD-HF/TD-KS) =  -1947.71610201
 Copying the excited state density for this state as the 1-particle RhoCI density.

 The electronic state is 1-A.
 Alpha  occ. eigenvalues --  -19.18281 -19.15554 -19.12145 -19.11194 -19.11018
 Alpha  occ. eigenvalues --  -19.08812 -14.39786 -14.36418 -14.36231 -14.28324
 Alpha  occ. eigenvalues --  -10.31617 -10.29927 -10.29411 -10.27422 -10.25436
 Alpha  occ. eigenvalues --  -10.25029 -10.24496 -10.23671 -10.23587 -10.23584
 Alpha  occ. eigenvalues --  -10.23296 -10.23254 -10.23171 -10.22866 -10.22467
 Alpha  occ. eigenvalues --  -10.22167 -10.21913 -10.21582 -10.21283 -10.21270
 Alpha  occ. eigenvalues --  -10.21130 -10.20946 -10.20738 -10.20022 -10.19996
 Alpha  occ. eigenvalues --  -10.19936 -10.19611 -10.19087 -10.18802 -10.18620
 Alpha  occ. eigenvalues --  -10.17892 -10.17703 -10.17592  -1.12736  -1.07297
 Alpha  occ. eigenvalues --   -1.01814  -1.00974  -1.00238  -0.99935  -0.98350
 Alpha  occ. eigenvalues --   -0.98063  -0.94824  -0.91464  -0.83202  -0.82613
 Alpha  occ. eigenvalues --   -0.82044  -0.80725  -0.80325  -0.79241  -0.78408
 Alpha  occ. eigenvalues --   -0.77441  -0.76323  -0.76204  -0.74266  -0.73181
 Alpha  occ. eigenvalues --   -0.72137  -0.71357  -0.69343  -0.68904  -0.68136
 Alpha  occ. eigenvalues --   -0.67202  -0.66673  -0.64118  -0.61895  -0.61540
 Alpha  occ. eigenvalues --   -0.61147  -0.58774  -0.58022  -0.57490  -0.56688
 Alpha  occ. eigenvalues --   -0.55578  -0.55522  -0.55223  -0.54807  -0.53585
 Alpha  occ. eigenvalues --   -0.51838  -0.51464  -0.51413  -0.50075  -0.49414
 Alpha  occ. eigenvalues --   -0.49160  -0.48775  -0.48352  -0.48291  -0.47756
 Alpha  occ. eigenvalues --   -0.47274  -0.47080  -0.46264  -0.45883  -0.45557
 Alpha  occ. eigenvalues --   -0.45310  -0.45024  -0.44278  -0.44164  -0.43785
 Alpha  occ. eigenvalues --   -0.43361  -0.43231  -0.43010  -0.42853  -0.42350
 Alpha  occ. eigenvalues --   -0.41990  -0.41608  -0.41490  -0.41328  -0.41116
 Alpha  occ. eigenvalues --   -0.40683  -0.40419  -0.39844  -0.39713  -0.39438
 Alpha  occ. eigenvalues --   -0.39090  -0.38966  -0.38738  -0.38686  -0.38456
 Alpha  occ. eigenvalues --   -0.38213  -0.37507  -0.37416  -0.37168  -0.36913
 Alpha  occ. eigenvalues --   -0.36004  -0.35878  -0.35683  -0.34818  -0.34182
 Alpha  occ. eigenvalues --   -0.33680  -0.33475  -0.33057  -0.32352  -0.31669
 Alpha  occ. eigenvalues --   -0.31163  -0.30411  -0.28822  -0.28156  -0.26854
 Alpha  occ. eigenvalues --   -0.26449  -0.26330  -0.26065  -0.25853  -0.25565
 Alpha  occ. eigenvalues --   -0.24296  -0.23633  -0.23348  -0.21581  -0.19083
 Alpha virt. eigenvalues --   -0.10209  -0.07693  -0.06550  -0.01179  -0.00778
 Alpha virt. eigenvalues --    0.00204   0.00622   0.01661   0.02027   0.02454
 Alpha virt. eigenvalues --    0.02921   0.03093   0.03252   0.04624   0.04990

 Mulliken charges:
               1
     1  O   -0.263130
     2  O   -0.264379
     3  O   -0.194058
     4  O   -0.131715
     5  O   -0.203290
     6  O   -0.226801
     7  N   -0.061258
     8  N   -0.295869
     9  N   -0.098792
    10  N   -0.304245
    11  C    0.082906
    12  C    0.187766
    13  C   -0.156545
    14  C   -0.074764
    15  C   -0.135136
    16  C    0.104412
    17  C   -0.091078
    18  C    0.163077
    19  C   -0.037975
    20  C   -0.064943
    21  C    0.111063
    22  C    0.165975
    23  C   -0.111729
    24  C   -0.035361
    25  C   -0.036268
    26  C   -0.111998
    27  C    0.004273
    28  C    0.030024
    29  C    0.062255
    30  C    0.089546
    31  C   -0.066183
    32  C    0.105573
    33  C   -0.134806
    34  C    0.144877
    35  C    0.158511
    36  C    0.018823
    37  C    0.082986
    38  C    0.074321
    39  C   -0.189619
    40  C    0.163508
    41  C   -0.048784
    42  C    0.104876
    43  C   -0.110813
    44  H    0.072762
    45  H    0.012206
    46  H   -0.020365
    47  H    0.152561
    48  H    0.176729
    49  H    0.026904
    50  H   -0.084195
    51  H   -0.023106
    52  H    0.054831
    53  H    0.033747
    54  H    0.052998
    55  H    0.027806
    56  H    0.064334
    57  H    0.053533
    58  H    0.069700
    59  H    0.013430
    60  H    0.186394
    61  H    0.029806
    62  H    0.015482
    63  H   -0.078614
    64  H    0.085937
    65  H    0.067012
    66  H    0.036199
    67  H    0.004468
    68  H    0.031276
    69  H   -0.051588
    70  H    0.026232
    71  H    0.025029
    72  H    0.211065
    73  H    0.033049
    74  H    0.030764
    75  H    0.006083
    76  H    0.005903
    77  H    0.168680
    78  H    0.040443
    79  H    0.037272
 Sum of Mulliken charges =   0.00000

 Dipole moment (field-independent basis, Debye):
    X=              2.0178    Y=              2.8477    Z=              3.0053  Tot=              4.6058
 Quadrupole moment (field-independent basis, Debye-Ang):
   XX=           -207.9927   YY=           -248.3012   ZZ=           -263.6422
   XY=            -16.4713   XZ=             30.9655   YZ=              5.0123

 Normal termination of Gaussian 09 at Mon Jul  8 11:21:12 2019.
