 Gaussian 09, Revision D.01,
 Gaussian 09:  ES64L-G09RevD.01 24-Apr-2013

 --------------------------
 # td=(NStates=1) B3LYP/SVP
 --------------------------

 --
 TD
 --
 Symbolic Z-matrix:
 Charge =  0 Multiplicity = 1

                         Standard orientation:
 ---------------------------------------------------------------------
 Center     Atomic      Atomic             Coordinates (Angstroms)
 Number     Number       Type             X           Y           Z
 ---------------------------------------------------------------------
      1          8           0        5.207038   -0.540534   -3.396417
      2          8           0       -2.812930   -2.879472    3.499952
      3          8           0       -3.198273   -0.717255    3.137158
      4          8           0       -1.278685    7.265728    1.431463
      5          8           0       -0.356127    6.926406   -0.553012
      6          8           0       -2.024353   -4.007207   -0.027545
      7          7           0        2.411246    0.979308    0.552281
      8          7           0        4.337136   -0.761324   -1.231495
      9          7           0       -1.937617    0.682499   -0.408715
     10          7           0       -2.814160   -1.896527   -0.246898
     11          6           0        4.849394   -1.215367   -0.034667
     12          6           0        4.511118   -0.274834    1.197934
     13          6           0        3.069862    0.072364    1.382332
     14          6           0        2.155632   -0.501317    2.238761
     15          6           0        0.785897   -0.030652    1.755700
     16          6           0        1.025104    0.899602    0.758869
     17          6           0        6.271472   -1.385095   -0.172985
     18          6           0       -0.536149   -0.216298    2.509574
     19          6           0        6.635824   -1.040031   -1.414930
     20          6           0        0.141598    1.897740    0.098216
     21          6           0       -1.179641    1.807429   -0.319205
     22          6           0        5.360621   -0.782161   -2.221071
     23          6           0       -1.964298    2.909970   -0.956793
     24          6           0        2.329162   -1.442091    3.249278
     25          6           0        7.231194   -1.980593    0.947271
     26          6           0       -3.152331    2.352102   -1.236423
     27          6           0       -1.052330   -1.661083    2.507633
     28          6           0       -3.091936    0.954000   -1.033638
     29          6           0       -1.505450    4.379403   -1.038139
     30          6           0        7.826281   -0.952845   -2.110930
     31          6           0       -1.617196    5.084012    0.373130
     32          6           0       -4.288617    2.970103   -1.946217
     33          6           0       -4.070858   -0.005110   -1.273647
     34          6           0       -2.452471   -1.664070    3.067275
     35          6           0       -3.861586   -1.439783   -0.993877
     36          6           0        9.166320   -0.866718   -1.730208
     37          6           0       -1.048132    6.422315    0.345326
     38          6           0       -4.787894   -2.425196   -1.343776
     39          6           0       -4.205238   -3.655549   -1.028724
     40          6           0       -2.882729   -3.267085   -0.335967
     41          6           0       -6.033029   -2.351841   -1.954665
     42          6           0       -4.525568   -5.121793   -1.179530
     43          6           0       -6.897607   -3.186294   -2.697679
     44          1           0        4.321171   -2.238510    0.213303
     45          1           0        5.101787    0.636574    0.944034
     46          1           0        4.766221   -0.588763    2.052284
     47          1           0        2.792788    1.459057   -0.047485
     48          1           0        3.432195   -0.991259   -1.437083
     49          1           0       -0.428166    0.062380    3.555704
     50          1           0       -1.153705    0.541343    2.151318
     51          1           0        0.514143    2.848207    0.039716
     52          1           0        3.432461   -1.462970    3.769785
     53          1           0        1.607217   -1.460486    4.268666
     54          1           0        2.056675   -2.589008    2.671375
     55          1           0        6.580945   -2.619265    1.540244
     56          1           0        7.792381   -0.976479    1.439389
     57          1           0        7.851246   -2.575654    0.369073
     58          1           0       -1.132689   -2.272326    1.670015
     59          1           0       -0.556626   -2.183662    3.160799
     60          1           0       -1.467176   -0.181929   -0.325673
     61          1           0       -2.111944    4.947939   -1.696751
     62          1           0       -0.438197    4.490287   -1.414181
     63          1           0        7.805597   -0.821610   -3.126888
     64          1           0       -0.983916    4.643290    1.109104
     65          1           0       -2.424766    5.149827    0.932976
     66          1           0       -3.898799    4.102039   -1.901718
     67          1           0       -5.346319    3.088979   -1.406373
     68          1           0       -4.604710    2.827743   -2.983572
     69          1           0       -4.872968    0.320181   -1.921347
     70          1           0        9.241783   -1.117509   -0.620208
     71          1           0       10.040613   -0.674891   -2.351606
     72          1           0       -3.861506   -2.743711    3.714065
     73          1           0       -6.312187   -1.426481   -1.970245
     74          1           0       -4.714601   -5.312187   -2.303541
     75          1           0       -3.789081   -5.706074   -0.645757
     76          1           0       -5.426480   -5.267094   -0.572509
     77          1           0       -0.868156    8.011609    1.189186
     78          1           0       -7.632103   -2.690673   -3.208855
     79          1           0       -6.821221   -4.337330   -2.695609
 ---------------------------------------------------------------------

 SCF Done:  E(RB3LYP) =  -1947.78227312     A.U. after   16 cycles

 Excitation energies and oscillator strengths:

 Excited State   1:      Singlet-A      2.0538 eV  603.68 nm  f=0.2584  <S**2>=0.000
     154 ->156         0.35561
     155 ->156         0.60438
 This state for optimization and/or second-order correction.
 Total Energy, E(TD-HF/TD-KS) =  -1947.70679725
 Copying the excited state density for this state as the 1-particle RhoCI density.

 The electronic state is 1-A.
 Alpha  occ. eigenvalues --  -19.17580 -19.17162 -19.13178 -19.11144 -19.10826
 Alpha  occ. eigenvalues --  -19.10527 -14.36968 -14.36457 -14.34807 -14.28562
 Alpha  occ. eigenvalues --  -10.33097 -10.29583 -10.29202 -10.25819 -10.24826
 Alpha  occ. eigenvalues --  -10.24770 -10.24632 -10.24061 -10.23453 -10.23250
 Alpha  occ. eigenvalues --  -10.22955 -10.22813 -10.22602 -10.22485 -10.21991
 Alpha  occ. eigenvalues --  -10.21810 -10.21786 -10.21763 -10.21306 -10.20469
 Alpha  occ. eigenvalues --  -10.20390 -10.20174 -10.20127 -10.19895 -10.19718
 Alpha  occ. eigenvalues --  -10.19584 -10.19521 -10.19241 -10.19209 -10.19005
 Alpha  occ. eigenvalues --  -10.18863 -10.18517 -10.16745  -1.10375  -1.07704
 Alpha  occ. eigenvalues --   -1.04122  -1.03450  -1.00747  -0.99892  -0.98332
 Alpha  occ. eigenvalues --   -0.98088  -0.96284  -0.92399  -0.84305  -0.83287
 Alpha  occ. eigenvalues --   -0.82326  -0.81900  -0.80955  -0.80737  -0.79669
 Alpha  occ. eigenvalues --   -0.77690  -0.76834  -0.75664  -0.74665  -0.72936
 Alpha  occ. eigenvalues --   -0.71914  -0.71751  -0.70616  -0.70496  -0.69170
 Alpha  occ. eigenvalues --   -0.67655  -0.66586  -0.64379  -0.62427  -0.61539
 Alpha  occ. eigenvalues --   -0.60864  -0.59825  -0.58775  -0.58573  -0.57556
 Alpha  occ. eigenvalues --   -0.57270  -0.55964  -0.55341  -0.54465  -0.53630
 Alpha  occ. eigenvalues --   -0.52602  -0.52399  -0.51844  -0.51667  -0.50742
 Alpha  occ. eigenvalues --   -0.49432  -0.48907  -0.48797  -0.48423  -0.47972
 Alpha  occ. eigenvalues --   -0.47732  -0.47024  -0.46667  -0.46485  -0.46002
 Alpha  occ. eigenvalues --   -0.45808  -0.45114  -0.44607  -0.44257  -0.44050
 Alpha  occ. eigenvalues --   -0.43810  -0.43248  -0.43232  -0.43052  -0.42723
 Alpha  occ. eigenvalues --   -0.42603  -0.42202  -0.42096  -0.41837  -0.41441
 Alpha  occ. eigenvalues --   -0.41407  -0.41215  -0.41035  -0.40550  -0.40214
 Alpha  occ. eigenvalues --   -0.40179  -0.39868  -0.39574  -0.39103  -0.38881
 Alpha  occ. eigenvalues --   -0.38762  -0.38412  -0.37908  -0.37828  -0.37394
 Alpha  occ. eigenvalues --   -0.37030  -0.35975  -0.35743  -0.35486  -0.35290
 Alpha  occ. eigenvalues --   -0.34805  -0.34715  -0.32404  -0.32308  -0.32185
 Alpha  occ. eigenvalues --   -0.31129  -0.30568  -0.28848  -0.28645  -0.27746
 Alpha  occ. eigenvalues --   -0.27556  -0.26957  -0.26372  -0.26276  -0.24536
 Alpha  occ. eigenvalues --   -0.23768  -0.23624  -0.22957  -0.21404  -0.19666
 Alpha virt. eigenvalues --   -0.11255  -0.06914  -0.06508  -0.01703  -0.01323
 Alpha virt. eigenvalues --    0.00384   0.00786   0.01799   0.02913   0.03335
 Alpha virt. eigenvalues --    0.03568   0.04162   0.04418   0.05325   0.05532

 Mulliken charges:
               1
     1  O   -0.193297
     2  O   -0.229400
     3  O   -0.242544
     4  O   -0.158400
     5  O   -0.265315
     6  O   -0.155586
     7  N    0.017422
     8  N   -0.130344
     9  N    0.025220
    10  N   -0.268128
    11  C    0.015408
    12  C    0.353223
    13  C   -0.124036
    14  C   -0.033825
    15  C   -0.110453
    16  C    0.061223
    17  C   -0.213144
    18  C    0.128163
    19  C    0.021072
    20  C   -0.031084
    21  C    0.004943
    22  C    0.153267
    23  C   -0.063355
    24  C   -0.129798
    25  C    0.108276
    26  C   -0.065371
    27  C    0.173292
    28  C    0.094635
    29  C    0.114934
    30  C   -0.063702
    31  C    0.156258
    32  C   -0.013858
    33  C   -0.107922
    34  C    0.083776
    35  C    0.113979
    36  C   -0.034151
    37  C    0.084650
    38  C    0.047370
    39  C   -0.233326
    40  C    0.107070
    41  C    0.001493
    42  C    0.117822
    43  C   -0.012339
    44  H    0.022189
    45  H   -0.019412
    46  H   -0.100813
    47  H    0.006959
    48  H    0.102482
    49  H   -0.006535
    50  H   -0.013077
    51  H   -0.043465
    52  H    0.038520
    53  H    0.054939
    54  H    0.057523
    55  H    0.024732
    56  H    0.080805
    57  H    0.028181
    58  H    0.024468
    59  H   -0.052259
    60  H    0.129115
    61  H    0.012914
    62  H    0.048991
    63  H   -0.026673
    64  H    0.022366
    65  H   -0.022777
    66  H    0.008732
    67  H    0.041848
    68  H    0.047657
    69  H   -0.019070
    70  H    0.005201
    71  H    0.039753
    72  H    0.215056
    73  H   -0.087788
    74  H    0.058087
    75  H    0.024021
    76  H    0.025686
    77  H    0.130964
    78  H    0.004333
    79  H    0.032233
 Sum of Mulliken charges =   0.00000

 Dipole moment (field-independent basis, Debye):
    X=              0.3080    Y=              1.6296    Z=              2.1618  Tot=              2.7247
 Quadrupole moment (field-independent basis, Debye-Ang):
   XX=           -223.0554   YY=           -252.4785   ZZ=           -263.2473
   XY=             -8.6644   XZ=             29.9957   YZ=             -0.1758

 Normal termination of Gaussian 09 at Mon Jul  8 13:11:43 2019.
