 Gaussian 09, Revision D.01,
 Gaussian 09:  ES64L-G09RevD.01 24-Apr-2013

 --------------------------
 # td=(NStates=1) B3LYP/SVP
 --------------------------

 --
 TD
 --
 Symbolic Z-matrix:
 Charge =  0 Multiplicity = 1

                         Standard orientation:
 ---------------------------------------------------------------------
 Center     Atomic      Atomic             Coordinates (Angstroms)
 Number     Number       Type             X           Y           Z
 ---------------------------------------------------------------------
      1          8           0        5.565473   -0.158177   -3.247728
      2          8           0       -2.837024   -3.240893    3.167478
      3          8           0       -3.242549   -1.038803    3.253868
      4          8           0       -1.443378    7.052040    1.540673
      5          8           0       -0.562710    6.928195   -0.428384
      6          8           0       -1.840245   -4.022583   -0.374377
      7          7           0        2.391673    0.919987    0.533964
      8          7           0        4.504200   -0.514659   -1.238828
      9          7           0       -2.017751    0.700574   -0.241414
     10          7           0       -2.698395   -1.838822   -0.566755
     11          6           0        4.925575   -1.058258    0.011469
     12          6           0        4.392921   -0.324983    1.215743
     13          6           0        2.896215   -0.088918    1.283134
     14          6           0        1.972297   -0.696317    2.125546
     15          6           0        0.676131   -0.067650    1.732720
     16          6           0        0.907636    0.775985    0.689497
     17          6           0        6.401352   -1.271104   -0.105735
     18          6           0       -0.606451   -0.365026    2.403124
     19          6           0        6.753976   -0.977596   -1.353499
     20          6           0        0.176527    1.897033    0.065516
     21          6           0       -1.137372    1.862207   -0.356253
     22          6           0        5.569217   -0.417866   -2.126670
     23          6           0       -1.923671    2.950580   -0.881681
     24          6           0        2.217397   -1.700235    3.184521
     25          6           0        7.157895   -1.976154    0.931210
     26          6           0       -3.223874    2.436945   -1.213000
     27          6           0       -1.119951   -1.823447    2.280889
     28          6           0       -3.189480    1.023155   -0.943559
     29          6           0       -1.502873    4.295869   -0.924739
     30          6           0        8.139389   -0.834141   -2.054059
     31          6           0       -1.670331    5.058453    0.427093
     32          6           0       -4.362759    3.245390   -1.616892
     33          6           0       -4.149815   -0.020566   -1.236793
     34          6           0       -2.509599   -1.963676    2.973521
     35          6           0       -3.781480   -1.332675   -1.082334
     36          6           0        9.346867   -0.737794   -1.413383
     37          6           0       -1.172893    6.464230    0.455645
     38          6           0       -4.738423   -2.447890   -1.421942
     39          6           0       -4.113884   -3.577697   -1.138147
     40          6           0       -2.721879   -3.226919   -0.698524
     41          6           0       -6.108165   -2.152816   -1.823983
     42          6           0       -4.615532   -4.976306   -1.432036
     43          6           0       -6.806295   -3.196408   -2.400018
     44          1           0        4.433651   -2.253917   -0.055992
     45          1           0        4.596584    0.669042    1.140614
     46          1           0        4.765014   -0.459927    2.316213
     47          1           0        2.701061    1.484688   -0.206909
     48          1           0        3.519033   -0.483133   -1.540797
     49          1           0       -0.449818   -0.123161    3.420549
     50          1           0       -1.432823    0.239389    1.987664
     51          1           0        0.862338    2.799909   -0.244938
     52          1           0        3.274889   -1.594449    3.409494
     53          1           0        1.706038   -1.316607    4.166050
     54          1           0        2.201751   -2.827179    2.882259
     55          1           0        6.544833   -3.053109    1.277736
     56          1           0        7.390673   -1.380303    1.831809
     57          1           0        8.306192   -2.368134    0.476192
     58          1           0       -1.123623   -2.204201    1.338376
     59          1           0       -0.233924   -2.380273    2.996319
     60          1           0       -1.932197   -0.220472   -0.179629
     61          1           0       -2.216540    4.963394   -1.487903
     62          1           0       -0.447306    4.543248   -1.184188
     63          1           0        7.924147   -0.882048   -2.911644
     64          1           0       -1.183738    4.527589    1.369874
     65          1           0       -2.775523    5.274432    0.498749
     66          1           0       -3.967944    4.159210   -1.794233
     67          1           0       -5.190289    3.137952   -0.762730
     68          1           0       -4.854183    2.854706   -2.638683
     69          1           0       -5.042223    0.321333   -1.853984
     70          1           0        9.459765   -0.621670   -0.254823
     71          1           0       10.553011   -0.747636   -1.941625
     72          1           0       -3.822943   -3.170773    3.468771
     73          1           0       -6.666344   -1.213895   -1.482015
     74          1           0       -4.704751   -5.210748   -2.474376
     75          1           0       -4.151639   -5.792607   -1.022403
     76          1           0       -5.615779   -4.957608   -1.041574
     77          1           0       -0.967144    7.871025    1.545100
     78          1           0       -7.876511   -2.979662   -2.612167
     79          1           0       -6.430394   -4.284648   -2.474439
 ---------------------------------------------------------------------

 SCF Done:  E(RB3LYP) =  -1947.77518998     A.U. after   16 cycles

 Excitation energies and oscillator strengths:

 Excited State   1:      Singlet-A      2.2438 eV  552.56 nm  f=0.4612  <S**2>=0.000
     154 ->156         0.12884
     155 ->156         0.69200
     155 <-156        -0.10503
 This state for optimization and/or second-order correction.
 Total Energy, E(TD-HF/TD-KS) =  -1947.69273107
 Copying the excited state density for this state as the 1-particle RhoCI density.

 The electronic state is 1-A.
 Alpha  occ. eigenvalues --  -19.20162 -19.17598 -19.12663 -19.11344 -19.10863
 Alpha  occ. eigenvalues --  -19.09757 -14.37993 -14.35578 -14.35472 -14.28080
 Alpha  occ. eigenvalues --  -10.31952 -10.30646 -10.28447 -10.26320 -10.25986
 Alpha  occ. eigenvalues --  -10.25044 -10.24904 -10.23879 -10.23778 -10.23421
 Alpha  occ. eigenvalues --  -10.23227 -10.22828 -10.22116 -10.21993 -10.21934
 Alpha  occ. eigenvalues --  -10.21619 -10.21433 -10.21408 -10.21319 -10.21278
 Alpha  occ. eigenvalues --  -10.20850 -10.20496 -10.20079 -10.20006 -10.19850
 Alpha  occ. eigenvalues --  -10.19702 -10.19396 -10.19218 -10.19104 -10.18436
 Alpha  occ. eigenvalues --  -10.18207 -10.18097 -10.17166  -1.15286  -1.08517
 Alpha  occ. eigenvalues --   -1.06477  -1.03915  -1.00152  -0.98940  -0.97662
 Alpha  occ. eigenvalues --   -0.96825  -0.95347  -0.92335  -0.84426  -0.82186
 Alpha  occ. eigenvalues --   -0.82016  -0.81176  -0.80334  -0.79776  -0.78690
 Alpha  occ. eigenvalues --   -0.76777  -0.75960  -0.75506  -0.74013  -0.73196
 Alpha  occ. eigenvalues --   -0.71921  -0.70637  -0.70457  -0.69380  -0.68839
 Alpha  occ. eigenvalues --   -0.66601  -0.66016  -0.63689  -0.62493  -0.61479
 Alpha  occ. eigenvalues --   -0.59754  -0.58378  -0.58073  -0.57825  -0.57078
 Alpha  occ. eigenvalues --   -0.56267  -0.55726  -0.54525  -0.54188  -0.52694
 Alpha  occ. eigenvalues --   -0.52211  -0.51811  -0.51473  -0.50883  -0.50455
 Alpha  occ. eigenvalues --   -0.50068  -0.49531  -0.48432  -0.48157  -0.47601
 Alpha  occ. eigenvalues --   -0.47178  -0.46907  -0.46814  -0.46112  -0.45690
 Alpha  occ. eigenvalues --   -0.44892  -0.44603  -0.44162  -0.44057  -0.43956
 Alpha  occ. eigenvalues --   -0.43686  -0.43454  -0.43304  -0.42942  -0.42526
 Alpha  occ. eigenvalues --   -0.42198  -0.41948  -0.41559  -0.41453  -0.41265
 Alpha  occ. eigenvalues --   -0.40931  -0.40558  -0.40472  -0.40381  -0.40079
 Alpha  occ. eigenvalues --   -0.39858  -0.39428  -0.39180  -0.38886  -0.38204
 Alpha  occ. eigenvalues --   -0.38039  -0.37591  -0.37291  -0.37039  -0.36783
 Alpha  occ. eigenvalues --   -0.36520  -0.36380  -0.35542  -0.34700  -0.34385
 Alpha  occ. eigenvalues --   -0.33812  -0.33544  -0.32904  -0.31090  -0.31005
 Alpha  occ. eigenvalues --   -0.30879  -0.30710  -0.28920  -0.28656  -0.26897
 Alpha  occ. eigenvalues --   -0.26710  -0.26383  -0.26320  -0.25356  -0.25064
 Alpha  occ. eigenvalues --   -0.24756  -0.23712  -0.23259  -0.22289  -0.19460
 Alpha virt. eigenvalues --   -0.10635  -0.05929  -0.05754  -0.01013   0.00183
 Alpha virt. eigenvalues --    0.00358   0.01563   0.01772   0.02368   0.02618
 Alpha virt. eigenvalues --    0.03669   0.03810   0.04122   0.04327   0.04769

 Mulliken charges:
               1
     1  O   -0.142614
     2  O   -0.185301
     3  O   -0.243914
     4  O   -0.082354
     5  O   -0.200492
     6  O   -0.214457
     7  N   -0.138209
     8  N   -0.223098
     9  N   -0.059064
    10  N   -0.267052
    11  C    0.060470
    12  C    0.245897
    13  C   -0.086617
    14  C   -0.154399
    15  C   -0.065161
    16  C    0.054203
    17  C   -0.108102
    18  C    0.108791
    19  C   -0.136991
    20  C   -0.134856
    21  C    0.155807
    22  C    0.128159
    23  C    0.007496
    24  C    0.094869
    25  C   -0.055862
    26  C   -0.142646
    27  C   -0.035803
    28  C    0.063677
    29  C    0.045812
    30  C    0.221859
    31  C   -0.074589
    32  C    0.106942
    33  C   -0.139217
    34  C    0.152114
    35  C    0.107195
    36  C   -0.100423
    37  C    0.048024
    38  C    0.032785
    39  C   -0.218514
    40  C    0.162506
    41  C   -0.061089
    42  C    0.162781
    43  C   -0.046589
    44  H    0.042223
    45  H   -0.054096
    46  H    0.025912
    47  H    0.108089
    48  H    0.137078
    49  H   -0.010071
    50  H    0.015637
    51  H    0.028044
    52  H   -0.030197
    53  H    0.041184
    54  H    0.062294
    55  H    0.057378
    56  H    0.042578
    57  H    0.060750
    58  H    0.044835
    59  H    0.043073
    60  H    0.066610
    61  H    0.017692
    62  H    0.029799
    63  H   -0.138620
    64  H    0.068552
    65  H    0.035402
    66  H   -0.028632
    67  H    0.062746
    68  H    0.043601
    69  H    0.000884
    70  H    0.049869
    71  H    0.064966
    72  H    0.198312
    73  H    0.037230
    74  H    0.022710
    75  H   -0.016354
    76  H    0.006451
    77  H    0.166272
    78  H    0.014162
    79  H    0.041664
 Sum of Mulliken charges =   0.00000

 Dipole moment (field-independent basis, Debye):
    X=              0.3608    Y=              4.4497    Z=              3.7096  Tot=              5.8044
 Quadrupole moment (field-independent basis, Debye-Ang):
   XX=           -224.7526   YY=           -242.2565   ZZ=           -263.2037
   XY=             -8.2214   XZ=             30.8891   YZ=              5.7663

 Normal termination of Gaussian 09 at Tue Jul  9 07:08:55 2019.
