 Gaussian 09, Revision D.01,
 Gaussian 09:  ES64L-G09RevD.01 24-Apr-2013

 --------------------------
 # td=(NStates=1) B3LYP/SVP
 --------------------------

 --
 TD
 --
 Symbolic Z-matrix:
 Charge =  0 Multiplicity = 1

                         Standard orientation:
 ---------------------------------------------------------------------
 Center     Atomic      Atomic             Coordinates (Angstroms)
 Number     Number       Type             X           Y           Z
 ---------------------------------------------------------------------
      1          8           0        5.507058   -0.269952   -3.329567
      2          8           0       -3.046214   -2.995856    3.219369
      3          8           0       -3.165267   -0.682191    3.238791
      4          8           0       -0.801409    7.240702    1.491065
      5          8           0       -0.225570    6.983033   -0.671344
      6          8           0       -2.095816   -4.021168   -0.031787
      7          7           0        2.375325    0.748981    0.492362
      8          7           0        4.415549   -0.612816   -1.214872
      9          7           0       -1.995567    0.719799   -0.352793
     10          7           0       -2.680734   -1.786882   -0.506889
     11          6           0        4.826026   -1.206355    0.043311
     12          6           0        4.442124   -0.351957    1.216156
     13          6           0        2.972450   -0.129956    1.282902
     14          6           0        1.997000   -0.712215    2.138618
     15          6           0        0.801272   -0.038931    1.760481
     16          6           0        1.081696    0.863660    0.695505
     17          6           0        6.312286   -1.522268   -0.137215
     18          6           0       -0.572497   -0.313578    2.483472
     19          6           0        6.703154   -1.050526   -1.362262
     20          6           0        0.211191    1.854722    0.053033
     21          6           0       -1.150022    1.816810   -0.191980
     22          6           0        5.401307   -0.539507   -2.139437
     23          6           0       -2.022678    2.881460   -0.819169
     24          6           0        2.251116   -1.793884    3.097345
     25          6           0        7.138702   -2.102357    0.911652
     26          6           0       -3.163443    2.414804   -1.155586
     27          6           0       -1.153952   -1.670135    2.435928
     28          6           0       -3.111125    1.067945   -0.874844
     29          6           0       -1.504604    4.390159   -0.865841
     30          6           0        7.943198   -1.027702   -2.043643
     31          6           0       -1.466545    5.179150    0.459063
     32          6           0       -4.356687    3.158137   -1.723741
     33          6           0       -4.132175    0.069941   -1.194474
     34          6           0       -2.548664   -1.664739    3.009682
     35          6           0       -3.821218   -1.317883   -1.033845
     36          6           0        9.131872   -1.137567   -1.595277
     37          6           0       -0.896703    6.559392    0.346294
     38          6           0       -4.792008   -2.414281   -1.383620
     39          6           0       -4.238554   -3.561550   -1.121735
     40          6           0       -2.892062   -3.122402   -0.424414
     41          6           0       -6.186421   -2.220496   -1.923985
     42          6           0       -4.764660   -5.006557   -1.337512
     43          6           0       -6.892680   -3.072960   -2.702342
     44          1           0        4.217186   -2.035514    0.160137
     45          1           0        5.104574    0.557327    1.124716
     46          1           0        4.729344   -0.916369    2.118975
     47          1           0        2.926554    1.496759   -0.205721
     48          1           0        3.525831   -0.764297   -1.598737
     49          1           0       -0.447076   -0.292060    3.539809
     50          1           0       -1.182456    0.493053    2.055585
     51          1           0        0.826682    2.766703   -0.115948
     52          1           0        3.339092   -1.964022    3.633216
     53          1           0        1.643681   -1.675216    4.138856
     54          1           0        1.825190   -2.760881    2.838689
     55          1           0        6.400710   -3.056831    1.370127
     56          1           0        7.638747   -1.354739    1.590340
     57          1           0        7.963646   -2.739093    0.397912
     58          1           0       -1.222891   -2.095800    1.342200
     59          1           0       -0.601379   -2.596757    2.959572
     60          1           0       -1.786948   -0.187154   -0.135672
     61          1           0       -2.051659    5.119601   -1.644189
     62          1           0       -0.623203    4.470180   -1.228925
     63          1           0        7.652933   -0.972938   -3.288968
     64          1           0       -0.692979    4.766207    1.233839
     65          1           0       -2.436685    5.261058    1.087888
     66          1           0       -4.074443    4.146811   -1.613569
     67          1           0       -5.137192    3.112068   -0.957984
     68          1           0       -4.833038    2.786220   -2.667716
     69          1           0       -4.992700    0.464282   -1.754851
     70          1           0        9.257822   -1.151955   -0.509146
     71          1           0        9.938573   -1.173374   -2.444458
     72          1           0       -3.958300   -2.859956    3.611931
     73          1           0       -6.715854   -1.308608   -1.837091
     74          1           0       -5.006183   -5.326232   -2.354416
     75          1           0       -4.127922   -5.765307   -0.730531
     76          1           0       -6.004403   -4.759219   -0.887131
     77          1           0       -0.266631    8.047933    1.211148
     78          1           0       -7.764946   -2.722686   -3.210684
     79          1           0       -6.528110   -4.199555   -2.901186
 ---------------------------------------------------------------------

 SCF Done:  E(RB3LYP) =  -1947.81445546     A.U. after   19 cycles

 Excitation energies and oscillator strengths:

 Excited State   1:      Singlet-A      2.3266 eV  532.90 nm  f=0.3372  <S**2>=0.000
     153 ->156        -0.11155
     154 ->156        -0.36287
     155 ->156         0.59162
 This state for optimization and/or second-order correction.
 Total Energy, E(TD-HF/TD-KS) =  -1947.72895449
 Copying the excited state density for this state as the 1-particle RhoCI density.

 The electronic state is 1-A.
 Alpha  occ. eigenvalues --  -19.20386 -19.15792 -19.13116 -19.12434 -19.11200
 Alpha  occ. eigenvalues --  -19.09139 -14.40489 -14.37348 -14.36583 -14.29738
 Alpha  occ. eigenvalues --  -10.33720 -10.30651 -10.29329 -10.26234 -10.25824
 Alpha  occ. eigenvalues --  -10.24717 -10.24387 -10.24080 -10.23993 -10.23939
 Alpha  occ. eigenvalues --  -10.23564 -10.23370 -10.23077 -10.22261 -10.21871
 Alpha  occ. eigenvalues --  -10.21839 -10.21739 -10.21675 -10.21326 -10.20536
 Alpha  occ. eigenvalues --  -10.20279 -10.20054 -10.19882 -10.19835 -10.19731
 Alpha  occ. eigenvalues --  -10.19687 -10.19635 -10.19532 -10.19353 -10.19177
 Alpha  occ. eigenvalues --  -10.19103 -10.19092 -10.18955  -1.10732  -1.07066
 Alpha  occ. eigenvalues --   -1.02872  -1.02613  -1.01631  -0.98774  -0.98700
 Alpha  occ. eigenvalues --   -0.97990  -0.96007  -0.92227  -0.84717  -0.83203
 Alpha  occ. eigenvalues --   -0.82546  -0.81347  -0.80805  -0.80310  -0.79515
 Alpha  occ. eigenvalues --   -0.77753  -0.76726  -0.75846  -0.74168  -0.73058
 Alpha  occ. eigenvalues --   -0.72081  -0.70860  -0.70637  -0.69994  -0.68451
 Alpha  occ. eigenvalues --   -0.66568  -0.65966  -0.64452  -0.61742  -0.61476
 Alpha  occ. eigenvalues --   -0.59867  -0.59352  -0.58377  -0.57509  -0.57328
 Alpha  occ. eigenvalues --   -0.57045  -0.56625  -0.55087  -0.54045  -0.53127
 Alpha  occ. eigenvalues --   -0.52502  -0.51819  -0.50895  -0.50444  -0.50041
 Alpha  occ. eigenvalues --   -0.49486  -0.49265  -0.48443  -0.48227  -0.48107
 Alpha  occ. eigenvalues --   -0.47677  -0.47322  -0.46827  -0.46632  -0.46065
 Alpha  occ. eigenvalues --   -0.45549  -0.45081  -0.44565  -0.44457  -0.43952
 Alpha  occ. eigenvalues --   -0.43413  -0.43356  -0.42874  -0.42765  -0.42611
 Alpha  occ. eigenvalues --   -0.42458  -0.42262  -0.41936  -0.41565  -0.41295
 Alpha  occ. eigenvalues --   -0.41111  -0.40893  -0.40593  -0.40367  -0.39854
 Alpha  occ. eigenvalues --   -0.39635  -0.39329  -0.39140  -0.38800  -0.38612
 Alpha  occ. eigenvalues --   -0.38252  -0.37928  -0.37738  -0.37040  -0.36742
 Alpha  occ. eigenvalues --   -0.36152  -0.35802  -0.35217  -0.33885  -0.33369
 Alpha  occ. eigenvalues --   -0.32878  -0.32564  -0.32103  -0.32045  -0.31565
 Alpha  occ. eigenvalues --   -0.31016  -0.30728  -0.29167  -0.28482  -0.28243
 Alpha  occ. eigenvalues --   -0.28132  -0.28046  -0.27454  -0.25661  -0.25113
 Alpha  occ. eigenvalues --   -0.24419  -0.24012  -0.23449  -0.22384  -0.19855
 Alpha virt. eigenvalues --   -0.10668  -0.05271  -0.05022  -0.02938  -0.00852
 Alpha virt. eigenvalues --    0.00038   0.01367   0.01644   0.01944   0.02551
 Alpha virt. eigenvalues --    0.02886   0.03390   0.04326   0.04486   0.05436

 Mulliken charges:
               1
     1  O   -0.223513
     2  O   -0.259097
     3  O   -0.192747
     4  O   -0.175078
     5  O   -0.318798
     6  O   -0.265215
     7  N   -0.029772
     8  N   -0.161109
     9  N    0.073873
    10  N   -0.247368
    11  C    0.111685
    12  C    0.217798
    13  C   -0.159521
    14  C   -0.031585
    15  C   -0.135466
    16  C   -0.017343
    17  C   -0.133444
    18  C    0.173795
    19  C   -0.086055
    20  C   -0.054280
    21  C    0.087562
    22  C    0.151943
    23  C   -0.082313
    24  C   -0.024472
    25  C   -0.015425
    26  C   -0.154154
    27  C   -0.111259
    28  C    0.014937
    29  C    0.161891
    30  C   -0.053862
    31  C   -0.046768
    32  C    0.198598
    33  C   -0.113148
    34  C    0.150948
    35  C    0.111784
    36  C   -0.039971
    37  C    0.148582
    38  C    0.061012
    39  C   -0.160647
    40  C    0.145982
    41  C   -0.014455
    42  C   -0.024280
    43  C   -0.064461
    44  H   -0.022086
    45  H   -0.002864
    46  H   -0.010733
    47  H    0.178141
    48  H    0.118187
    49  H   -0.010966
    50  H    0.011690
    51  H    0.010234
    52  H    0.042710
    53  H    0.017676
    54  H    0.040863
    55  H    0.043255
    56  H    0.068077
    57  H    0.051144
    58  H    0.095489
    59  H    0.048887
    60  H    0.092639
    61  H    0.038814
    62  H   -0.056553
    63  H    0.057218
    64  H    0.064357
    65  H    0.053222
    66  H   -0.023502
    67  H    0.009558
    68  H    0.051178
    69  H   -0.021822
    70  H    0.008681
    71  H    0.049619
    72  H    0.184875
    73  H   -0.024285
    74  H    0.052510
    75  H    0.065475
    76  H    0.045962
    77  H    0.204353
    78  H    0.016751
    79  H    0.036462
 Sum of Mulliken charges =   0.00000

 Dipole moment (field-independent basis, Debye):
    X=              0.4831    Y=              3.9268    Z=              3.1879  Tot=              5.0810
 Quadrupole moment (field-independent basis, Debye-Ang):
   XX=           -230.0200   YY=           -253.8649   ZZ=           -265.0758
   XY=            -14.7576   XZ=             33.6058   YZ=              5.6718

 Normal termination of Gaussian 09 at Sun Jul  7 22:37:50 2019.
