 Gaussian 09, Revision D.01,
 Gaussian 09:  ES64L-G09RevD.01 24-Apr-2013

 --------------------------
 # td=(NStates=1) B3LYP/SVP
 --------------------------

 --
 TD
 --
 Symbolic Z-matrix:
 Charge =  0 Multiplicity = 1

                         Standard orientation:
 ---------------------------------------------------------------------
 Center     Atomic      Atomic             Coordinates (Angstroms)
 Number     Number       Type             X           Y           Z
 ---------------------------------------------------------------------
      1          8           0        5.470474   -0.228162   -3.382311
      2          8           0       -2.725957   -3.240088    3.299462
      3          8           0       -3.159002   -1.092682    3.219793
      4          8           0       -1.890883    7.304349    1.313555
      5          8           0       -0.330785    6.862072   -0.396712
      6          8           0       -1.729868   -4.023976   -0.268219
      7          7           0        2.331798    1.101735    0.636649
      8          7           0        4.451480   -0.432282   -1.289114
      9          7           0       -1.884256    0.730486   -0.327445
     10          7           0       -2.650546   -1.884743   -0.372826
     11          6           0        4.804367   -0.989141   -0.056419
     12          6           0        4.458560   -0.240666    1.272531
     13          6           0        2.954547    0.078966    1.339359
     14          6           0        1.988150   -0.537260    2.143986
     15          6           0        0.721093   -0.050313    1.810830
     16          6           0        0.894525    0.998218    0.819436
     17          6           0        6.285900   -1.200578   -0.131346
     18          6           0       -0.524655   -0.331419    2.519816
     19          6           0        6.735880   -0.764890   -1.403368
     20          6           0        0.131291    1.924623    0.220286
     21          6           0       -1.214045    1.892798   -0.264409
     22          6           0        5.480566   -0.402354   -2.211355
     23          6           0       -1.973692    2.893051   -0.848904
     24          6           0        2.114867   -1.671669    3.080980
     25          6           0        7.115134   -1.735954    1.002945
     26          6           0       -3.166849    2.320297   -1.297958
     27          6           0       -1.086094   -1.765789    2.554791
     28          6           0       -3.087687    0.922381   -0.869825
     29          6           0       -1.639782    4.314821   -0.935731
     30          6           0        8.084004   -0.907571   -2.071363
     31          6           0       -1.999695    5.126041    0.245511
     32          6           0       -4.499258    2.965112   -1.657221
     33          6           0       -4.132981   -0.112341   -1.039691
     34          6           0       -2.395492   -1.933251    3.052291
     35          6           0       -3.825744   -1.431901   -0.837538
     36          6           0        9.223360   -0.871447   -1.507082
     37          6           0       -1.309317    6.545085    0.306433
     38          6           0       -4.650329   -2.582859   -1.458118
     39          6           0       -3.927958   -3.736240   -1.198329
     40          6           0       -2.645512   -3.293902   -0.595515
     41          6           0       -6.018821   -2.403565   -2.157888
     42          6           0       -4.386048   -5.111988   -1.167988
     43          6           0       -6.647859   -3.340498   -2.885311
     44          1           0        4.355061   -1.970410    0.145067
     45          1           0        4.881834    0.867823    1.160122
     46          1           0        4.854989   -0.810295    2.098410
     47          1           0        2.869037    1.545989   -0.190956
     48          1           0        3.511807   -0.699776   -1.764761
     49          1           0       -0.591878    0.027174    3.539588
     50          1           0       -1.230354    0.241127    2.110938
     51          1           0        0.754892    2.970818    0.167870
     52          1           0        3.285520   -2.123651    3.072410
     53          1           0        1.587749   -1.092209    4.093317
     54          1           0        1.514429   -2.554673    2.951445
     55          1           0        6.552732   -2.498033    1.706966
     56          1           0        7.805786   -1.080649    1.568989
     57          1           0        7.872415   -2.238241    0.651136
     58          1           0       -0.811339   -2.354567    1.689053
     59          1           0       -0.447286   -2.323730    3.255068
     60          1           0       -1.381510   -0.113674   -0.051033
     61          1           0       -2.201547    4.727675   -1.861819
     62          1           0       -0.606502    4.530307   -1.014825
     63          1           0        8.029358   -0.770342   -3.206205
     64          1           0       -1.625393    4.620956    1.097351
     65          1           0       -3.059865    5.290584    0.673536
     66          1           0       -4.113167    3.846158   -1.918613
     67          1           0       -5.247808    3.034434   -1.019421
     68          1           0       -4.851412    2.501920   -2.694933
     69          1           0       -5.168065    0.161226   -1.620621
     70          1           0        9.450996   -1.130580   -0.499185
     71          1           0       10.301355   -1.032001   -2.061883
     72          1           0       -3.555766   -3.171208    3.669033
     73          1           0       -6.259296   -1.226223   -2.415529
     74          1           0       -3.996102   -5.848146   -2.111282
     75          1           0       -4.133970   -5.702323   -0.086489
     76          1           0       -5.523720   -4.929397   -1.123557
     77          1           0       -1.252722    8.022156    1.234953
     78          1           0       -7.462150   -3.068149   -3.609761
     79          1           0       -6.081830   -4.303337   -3.092795
 ---------------------------------------------------------------------

 SCF Done:  E(RB3LYP) =  -1947.79212913     A.U. after   20 cycles

 Excitation energies and oscillator strengths:

 Excited State   1:      Singlet-A      1.9703 eV  629.28 nm  f=0.4444  <S**2>=0.000
     154 ->156         0.17550
     155 ->156         0.68998
     155 <-156        -0.14142
 This state for optimization and/or second-order correction.
 Total Energy, E(TD-HF/TD-KS) =  -1947.71972324
 Copying the excited state density for this state as the 1-particle RhoCI density.

 The electronic state is 1-A.
 Alpha  occ. eigenvalues --  -19.20424 -19.15134 -19.14992 -19.11805 -19.11219
 Alpha  occ. eigenvalues --  -19.08743 -14.39816 -14.37365 -14.37263 -14.27379
 Alpha  occ. eigenvalues --  -10.34262 -10.29708 -10.29487 -10.25792 -10.24952
 Alpha  occ. eigenvalues --  -10.24695 -10.24650 -10.24434 -10.23937 -10.23856
 Alpha  occ. eigenvalues --  -10.23512 -10.23357 -10.22867 -10.21774 -10.21773
 Alpha  occ. eigenvalues --  -10.21603 -10.21425 -10.21384 -10.20905 -10.20847
 Alpha  occ. eigenvalues --  -10.20826 -10.20753 -10.20683 -10.20540 -10.20127
 Alpha  occ. eigenvalues --  -10.19984 -10.19974 -10.19560 -10.19493 -10.19036
 Alpha  occ. eigenvalues --  -10.18610 -10.18378 -10.18152  -1.10386  -1.10294
 Alpha  occ. eigenvalues --   -1.05519  -1.01542  -1.01048  -1.00676  -0.99858
 Alpha  occ. eigenvalues --   -0.97916  -0.96589  -0.89644  -0.84054  -0.83307
 Alpha  occ. eigenvalues --   -0.82684  -0.82098  -0.79938  -0.78830  -0.78680
 Alpha  occ. eigenvalues --   -0.78235  -0.77140  -0.75823  -0.74405  -0.72820
 Alpha  occ. eigenvalues --   -0.72561  -0.72212  -0.70055  -0.68981  -0.68581
 Alpha  occ. eigenvalues --   -0.67788  -0.66315  -0.62728  -0.60996  -0.60184
 Alpha  occ. eigenvalues --   -0.59459  -0.58530  -0.58237  -0.57592  -0.57106
 Alpha  occ. eigenvalues --   -0.56419  -0.56204  -0.55831  -0.54657  -0.53275
 Alpha  occ. eigenvalues --   -0.52955  -0.51460  -0.51015  -0.50859  -0.50407
 Alpha  occ. eigenvalues --   -0.49689  -0.49367  -0.48705  -0.48139  -0.47894
 Alpha  occ. eigenvalues --   -0.47427  -0.47301  -0.46937  -0.46219  -0.45679
 Alpha  occ. eigenvalues --   -0.45530  -0.45426  -0.44621  -0.44574  -0.44396
 Alpha  occ. eigenvalues --   -0.43838  -0.43736  -0.43354  -0.43128  -0.42902
 Alpha  occ. eigenvalues --   -0.42627  -0.42388  -0.41909  -0.41797  -0.41417
 Alpha  occ. eigenvalues --   -0.41294  -0.40890  -0.40719  -0.40331  -0.40066
 Alpha  occ. eigenvalues --   -0.39552  -0.39397  -0.39044  -0.38760  -0.38661
 Alpha  occ. eigenvalues --   -0.38108  -0.37878  -0.37562  -0.37172  -0.36971
 Alpha  occ. eigenvalues --   -0.35913  -0.35697  -0.35166  -0.34778  -0.34032
 Alpha  occ. eigenvalues --   -0.33719  -0.33592  -0.32783  -0.32460  -0.32340
 Alpha  occ. eigenvalues --   -0.31407  -0.30337  -0.29952  -0.28865  -0.28346
 Alpha  occ. eigenvalues --   -0.27355  -0.26905  -0.26274  -0.25853  -0.25776
 Alpha  occ. eigenvalues --   -0.25044  -0.23801  -0.22545  -0.21472  -0.18264
 Alpha virt. eigenvalues --   -0.10901  -0.06375  -0.06199  -0.02243  -0.01116
 Alpha virt. eigenvalues --   -0.00121   0.00457   0.01172   0.02802   0.02961
 Alpha virt. eigenvalues --    0.03225   0.03338   0.04163   0.04201   0.04593

 Mulliken charges:
               1
     1  O   -0.169972
     2  O   -0.168267
     3  O   -0.168560
     4  O   -0.177055
     5  O   -0.251461
     6  O   -0.209008
     7  N   -0.158534
     8  N   -0.190992
     9  N    0.020318
    10  N   -0.294191
    11  C    0.092152
    12  C    0.157937
    13  C   -0.066171
    14  C   -0.099601
    15  C   -0.054729
    16  C    0.118805
    17  C   -0.161794
    18  C    0.163670
    19  C   -0.098867
    20  C   -0.167803
    21  C    0.020805
    22  C    0.125844
    23  C   -0.078755
    24  C   -0.018457
    25  C    0.125195
    26  C   -0.184624
    27  C    0.018165
    28  C    0.069517
    29  C    0.145813
    30  C    0.038653
    31  C   -0.011503
    32  C    0.214654
    33  C   -0.137976
    34  C    0.094784
    35  C    0.101622
    36  C   -0.075431
    37  C    0.161191
    38  C   -0.027929
    39  C   -0.147897
    40  C    0.137653
    41  C   -0.024488
    42  C   -0.054020
    43  C   -0.068627
    44  H    0.014263
    45  H    0.017750
    46  H    0.009715
    47  H    0.156527
    48  H    0.161098
    49  H    0.001310
    50  H   -0.058171
    51  H    0.043864
    52  H    0.026385
    53  H    0.052024
    54  H    0.053922
    55  H    0.034172
    56  H    0.035939
    57  H   -0.031305
    58  H    0.052079
    59  H    0.005093
    60  H    0.145010
    61  H    0.034213
    62  H   -0.006248
    63  H    0.037879
    64  H    0.015372
    65  H    0.036540
    66  H   -0.050674
    67  H    0.011313
    68  H    0.026658
    69  H    0.022078
    70  H   -0.003794
    71  H    0.039668
    72  H    0.132470
    73  H    0.032492
    74  H    0.060003
    75  H    0.058954
    76  H    0.040214
    77  H    0.166941
    78  H    0.036676
    79  H    0.049500
 Sum of Mulliken charges =   0.00000

 Dipole moment (field-independent basis, Debye):
    X=              3.0612    Y=              3.2456    Z=              3.4164  Tot=              5.6193
 Quadrupole moment (field-independent basis, Debye-Ang):
   XX=           -227.7437   YY=           -253.6267   ZZ=           -260.2653
   XY=            -20.3759   XZ=             31.4453   YZ=              1.9941

 Normal termination of Gaussian 09 at Tue Jul  9 10:21:12 2019.
