 Gaussian 09, Revision D.01,
 Gaussian 09:  ES64L-G09RevD.01 24-Apr-2013

 --------------------------
 # td=(NStates=1) B3LYP/SVP
 --------------------------

 --
 TD
 --
 Symbolic Z-matrix:
 Charge =  0 Multiplicity = 1

                         Standard orientation:
 ---------------------------------------------------------------------
 Center     Atomic      Atomic             Coordinates (Angstroms)
 Number     Number       Type             X           Y           Z
 ---------------------------------------------------------------------
      1          8           0        5.215093   -0.517171   -3.346025
      2          8           0       -2.841410   -2.885347    3.276674
      3          8           0       -3.086117   -0.676267    3.114640
      4          8           0       -1.103892    7.246186    1.569353
      5          8           0       -0.480015    6.924360   -0.723455
      6          8           0       -1.980242   -4.069373   -0.114869
      7          7           0        2.506570    0.903988    0.452906
      8          7           0        4.295838   -0.914966   -1.235157
      9          7           0       -1.838320    0.671694   -0.464982
     10          7           0       -2.668184   -1.915421   -0.491367
     11          6           0        4.836241   -1.273485    0.125788
     12          6           0        4.509590   -0.179227    1.235166
     13          6           0        2.994402    0.064866    1.368209
     14          6           0        1.985786   -0.462172    2.056207
     15          6           0        0.766162    0.131732    1.699869
     16          6           0        1.062834    0.989140    0.695768
     17          6           0        6.296716   -1.496329   -0.138782
     18          6           0       -0.555655   -0.124696    2.531172
     19          6           0        6.581518   -1.118388   -1.407773
     20          6           0        0.282220    1.984018   -0.046564
     21          6           0       -1.012269    1.787943   -0.411937
     22          6           0        5.286185   -0.853549   -2.169793
     23          6           0       -1.920506    2.879673   -0.991997
     24          6           0        2.117406   -1.558517    3.169850
     25          6           0        7.157762   -1.996654    1.011701
     26          6           0       -3.132465    2.365435   -1.247908
     27          6           0       -0.992647   -1.512158    2.459627
     28          6           0       -3.032055    0.849883   -1.013735
     29          6           0       -1.545743    4.401162   -0.968868
     30          6           0        7.890977   -1.100627   -2.144893
     31          6           0       -1.512423    5.176119    0.453778
     32          6           0       -4.207032    3.113240   -1.924326
     33          6           0       -4.009489   -0.040727   -1.182509
     34          6           0       -2.440724   -1.677231    2.984197
     35          6           0       -3.866739   -1.429699   -0.984369
     36          6           0        9.035674   -0.938694   -1.560466
     37          6           0       -0.984298    6.500571    0.343926
     38          6           0       -4.771611   -2.514477   -1.346175
     39          6           0       -4.259480   -3.664570   -0.986321
     40          6           0       -2.899162   -3.232264   -0.447777
     41          6           0       -6.229259   -2.220013   -1.812080
     42          6           0       -4.659518   -5.110126   -0.900381
     43          6           0       -6.942994   -3.161569   -2.454287
     44          1           0        4.402290   -2.417078    0.458720
     45          1           0        4.920034    0.781179    0.840598
     46          1           0        4.887378   -0.365849    2.234119
     47          1           0        2.857277    1.747851   -0.215210
     48          1           0        3.327681   -0.863001   -1.375711
     49          1           0       -0.271150    0.185469    3.448108
     50          1           0       -1.400809    0.489605    2.025267
     51          1           0        0.585133    3.041303   -0.276388
     52          1           0        3.149054   -1.709744    3.677980
     53          1           0        1.405123   -1.230804    4.002956
     54          1           0        1.735540   -2.607676    2.937853
     55          1           0        6.545106   -2.645659    1.635825
     56          1           0        7.209614   -1.209363    1.703450
     57          1           0        8.016835   -2.404821    0.462225
     58          1           0       -0.872993   -1.942201    1.474729
     59          1           0       -0.546436   -2.232565    3.253100
     60          1           0       -1.294321   -0.164277   -0.461956
     61          1           0       -2.136120    5.016382   -1.598850
     62          1           0       -0.403791    4.340551   -1.191371
     63          1           0        7.745376   -1.358131   -3.212871
     64          1           0       -0.784103    4.576525    1.316597
     65          1           0       -2.687383    5.318260    0.764398
     66          1           0       -3.844851    4.037539   -2.179470
     67          1           0       -5.060908    3.169495   -1.359447
     68          1           0       -4.533118    2.620852   -2.725027
     69          1           0       -4.935492    0.445383   -1.732465
     70          1           0        9.151857   -0.651748   -0.488913
     71          1           0        9.814939   -0.939115   -2.309614
     72          1           0       -3.849364   -3.154196    3.404263
     73          1           0       -6.586920   -1.288305   -1.727670
     74          1           0       -4.600149   -5.579743   -1.921815
     75          1           0       -4.015995   -5.799978   -0.163417
     76          1           0       -5.799262   -5.232359   -0.541290
     77          1           0       -0.612557    8.127475    1.408058
     78          1           0       -7.838001   -2.934950   -2.904368
     79          1           0       -6.514603   -4.034134   -2.668632
 ---------------------------------------------------------------------

 SCF Done:  E(RB3LYP) =  -1947.83756447     A.U. after   24 cycles

 Excitation energies and oscillator strengths:

 Excited State   1:      Singlet-A      2.2216 eV  558.09 nm  f=0.0284  <S**2>=0.000
     153 ->156         0.47987
     154 ->156         0.44479
     155 ->156        -0.20800
 This state for optimization and/or second-order correction.
 Total Energy, E(TD-HF/TD-KS) =  -1947.75592250
 Copying the excited state density for this state as the 1-particle RhoCI density.

 The electronic state is 1-A.
 Alpha  occ. eigenvalues --  -19.19210 -19.17519 -19.14412 -19.09751 -19.09308
 Alpha  occ. eigenvalues --  -19.09145 -14.38141 -14.37712 -14.34920 -14.29365
 Alpha  occ. eigenvalues --  -10.33665 -10.29920 -10.27936 -10.26112 -10.25677
 Alpha  occ. eigenvalues --  -10.25658 -10.24788 -10.24635 -10.24261 -10.22745
 Alpha  occ. eigenvalues --  -10.22518 -10.22477 -10.22343 -10.22323 -10.21619
 Alpha  occ. eigenvalues --  -10.21270 -10.21206 -10.21139 -10.20468 -10.20428
 Alpha  occ. eigenvalues --  -10.20142 -10.20130 -10.20115 -10.20096 -10.19377
 Alpha  occ. eigenvalues --  -10.19297 -10.18810 -10.18522 -10.18468 -10.18409
 Alpha  occ. eigenvalues --  -10.18251 -10.18167 -10.18102  -1.08139  -1.06880
 Alpha  occ. eigenvalues --   -1.01143  -0.99967  -0.99835  -0.99055  -0.98444
 Alpha  occ. eigenvalues --   -0.97818  -0.92883  -0.91678  -0.83090  -0.82511
 Alpha  occ. eigenvalues --   -0.81817  -0.81027  -0.80662  -0.79056  -0.78480
 Alpha  occ. eigenvalues --   -0.77493  -0.76299  -0.75974  -0.75360  -0.73637
 Alpha  occ. eigenvalues --   -0.71796  -0.71037  -0.70059  -0.69106  -0.67909
 Alpha  occ. eigenvalues --   -0.66620  -0.66015  -0.64138  -0.61166  -0.60515
 Alpha  occ. eigenvalues --   -0.60170  -0.59616  -0.58921  -0.57873  -0.57288
 Alpha  occ. eigenvalues --   -0.56145  -0.55415  -0.54771  -0.53702  -0.52343
 Alpha  occ. eigenvalues --   -0.52013  -0.51329  -0.50403  -0.49899  -0.49271
 Alpha  occ. eigenvalues --   -0.48827  -0.48392  -0.48102  -0.47851  -0.47775
 Alpha  occ. eigenvalues --   -0.47559  -0.46908  -0.46600  -0.46149  -0.45890
 Alpha  occ. eigenvalues --   -0.45806  -0.45353  -0.44571  -0.44027  -0.43843
 Alpha  occ. eigenvalues --   -0.43643  -0.43420  -0.43158  -0.42558  -0.42071
 Alpha  occ. eigenvalues --   -0.41818  -0.41445  -0.41295  -0.40892  -0.40758
 Alpha  occ. eigenvalues --   -0.40571  -0.40422  -0.40216  -0.39421  -0.39238
 Alpha  occ. eigenvalues --   -0.38687  -0.38659  -0.38564  -0.38482  -0.38106
 Alpha  occ. eigenvalues --   -0.37834  -0.37455  -0.37240  -0.37139  -0.36709
 Alpha  occ. eigenvalues --   -0.36358  -0.36007  -0.35151  -0.34703  -0.34312
 Alpha  occ. eigenvalues --   -0.33634  -0.33264  -0.33031  -0.31702  -0.31439
 Alpha  occ. eigenvalues --   -0.30982  -0.30796  -0.29112  -0.28561  -0.27590
 Alpha  occ. eigenvalues --   -0.26960  -0.26076  -0.25750  -0.25128  -0.24815
 Alpha  occ. eigenvalues --   -0.24469  -0.24013  -0.23462  -0.22996  -0.20038
 Alpha virt. eigenvalues --   -0.10971  -0.05527  -0.04294  -0.03199  -0.01098
 Alpha virt. eigenvalues --    0.00731   0.01936   0.02041   0.02045   0.02934
 Alpha virt. eigenvalues --    0.03525   0.03796   0.04087   0.04792   0.05048

 Mulliken charges:
               1
     1  O   -0.234714
     2  O   -0.208655
     3  O   -0.230314
     4  O   -0.268453
     5  O   -0.253671
     6  O   -0.267886
     7  N   -0.171259
     8  N   -0.179601
     9  N   -0.002148
    10  N   -0.223956
    11  C    0.024442
    12  C    0.227691
    13  C   -0.081365
    14  C   -0.117874
    15  C   -0.103185
    16  C    0.006248
    17  C   -0.196993
    18  C    0.184337
    19  C   -0.111777
    20  C   -0.061665
    21  C    0.021673
    22  C    0.164347
    23  C   -0.078457
    24  C    0.028810
    25  C    0.172890
    26  C   -0.169837
    27  C   -0.050751
    28  C    0.089670
    29  C    0.081574
    30  C   -0.013638
    31  C   -0.096442
    32  C    0.278368
    33  C   -0.125684
    34  C    0.129177
    35  C    0.087142
    36  C   -0.006767
    37  C    0.194578
    38  C    0.016154
    39  C   -0.135380
    40  C    0.106386
    41  C    0.013639
    42  C    0.003096
    43  C    0.081909
    44  H    0.051097
    45  H   -0.009066
    46  H    0.002058
    47  H    0.177138
    48  H    0.112472
    49  H   -0.020920
    50  H    0.042256
    51  H   -0.003309
    52  H    0.014248
    53  H    0.014411
    54  H    0.046363
    55  H   -0.005483
    56  H    0.006181
    57  H    0.056218
    58  H    0.060851
    59  H    0.023716
    60  H    0.146791
    61  H    0.014972
    62  H    0.035275
    63  H    0.023531
    64  H    0.096855
    65  H    0.077661
    66  H   -0.021998
    67  H   -0.012455
    68  H   -0.019890
    69  H    0.001846
    70  H    0.031417
    71  H    0.021349
    72  H    0.234641
    73  H   -0.055271
    74  H    0.048489
    75  H    0.063850
    76  H    0.037284
    77  H    0.210589
    78  H    0.000336
    79  H   -0.025160
 Sum of Mulliken charges =   0.00000

 Dipole moment (field-independent basis, Debye):
    X=             -1.8001    Y=              3.0043    Z=              3.2197  Tot=              4.7574
 Quadrupole moment (field-independent basis, Debye-Ang):
   XX=           -219.4500   YY=           -243.5290   ZZ=           -264.5172
   XY=              1.0114   XZ=             35.0651   YZ=             -0.4529

 Normal termination of Gaussian 09 at Tue Jul  9 10:43:07 2019.
