 Gaussian 09, Revision D.01,
 Gaussian 09:  ES64L-G09RevD.01 24-Apr-2013

 --------------------------
 # td=(NStates=1) B3LYP/SVP
 --------------------------

 --
 TD
 --
 Symbolic Z-matrix:
 Charge =  0 Multiplicity = 1

                         Standard orientation:
 ---------------------------------------------------------------------
 Center     Atomic      Atomic             Coordinates (Angstroms)
 Number     Number       Type             X           Y           Z
 ---------------------------------------------------------------------
      1          8           0        5.378386   -0.401835   -3.377120
      2          8           0       -3.083636   -2.905212    3.487784
      3          8           0       -3.314631   -0.676411    3.186058
      4          8           0       -1.458546    7.239640    1.418708
      5          8           0       -0.090143    6.836285   -0.298186
      6          8           0       -2.104664   -3.995609   -0.035102
      7          7           0        2.372453    0.869417    0.612806
      8          7           0        4.444199   -0.736744   -1.333866
      9          7           0       -1.912715    0.686656   -0.387018
     10          7           0       -2.851265   -1.779436   -0.533152
     11          6           0        4.817970   -1.268896   -0.030579
     12          6           0        4.503915   -0.430643    1.178433
     13          6           0        3.031662   -0.127775    1.297311
     14          6           0        2.040967   -0.708793    2.042505
     15          6           0        0.741668   -0.162143    1.791166
     16          6           0        1.004592    0.829987    0.801967
     17          6           0        6.360340   -1.369641   -0.153869
     18          6           0       -0.500759   -0.437562    2.628627
     19          6           0        6.717073   -0.997429   -1.409405
     20          6           0        0.250927    1.845342    0.213304
     21          6           0       -1.059133    1.791962   -0.221442
     22          6           0        5.520320   -0.626941   -2.194626
     23          6           0       -1.747656    2.951676   -0.935990
     24          6           0        2.280403   -1.990187    3.032568
     25          6           0        7.150234   -1.969083    0.974662
     26          6           0       -2.989687    2.424049   -1.286444
     27          6           0       -1.095496   -1.841748    2.614285
     28          6           0       -3.125071    0.994372   -0.940609
     29          6           0       -1.376686    4.354270   -0.837560
     30          6           0        8.013909   -0.756622   -2.118525
     31          6           0       -1.702273    5.048374    0.531664
     32          6           0       -4.140792    3.083427   -2.017513
     33          6           0       -4.079869    0.073720   -1.363319
     34          6           0       -2.542948   -1.676793    3.084424
     35          6           0       -3.960997   -1.288862   -1.089399
     36          6           0        9.211454   -0.821132   -1.544651
     37          6           0       -1.002140    6.532211    0.477060
     38          6           0       -4.825752   -2.338587   -1.544213
     39          6           0       -4.342984   -3.480790   -1.128670
     40          6           0       -2.951718   -3.098724   -0.452585
     41          6           0       -6.091283   -2.126223   -2.114126
     42          6           0       -4.699150   -5.029946   -1.234843
     43          6           0       -6.841089   -2.946837   -2.872652
     44          1           0        4.234551   -2.205854    0.120311
     45          1           0        5.302254    0.203349    1.206420
     46          1           0        4.682729   -0.800726    2.243607
     47          1           0        2.855451    1.413092   -0.125505
     48          1           0        3.544445   -0.857783   -1.743595
     49          1           0       -0.399045   -0.104630    3.560839
     50          1           0       -1.474790    0.267132    2.194578
     51          1           0        0.822823    2.728972    0.027965
     52          1           0        3.262584   -1.980831    3.518902
     53          1           0        1.358613   -1.623046    3.764870
     54          1           0        2.066582   -2.968909    2.557491
     55          1           0        6.500579   -2.398419    1.864690
     56          1           0        7.702585   -1.069162    1.400711
     57          1           0        7.872035   -2.461449    0.759081
     58          1           0       -0.948379   -2.476121    1.744766
     59          1           0       -0.824045   -2.610784    3.394147
     60          1           0       -1.822114   -0.275429   -0.148818
     61          1           0       -1.848197    5.064959   -1.535047
     62          1           0       -0.304503    4.461110   -0.952837
     63          1           0        7.862183   -0.501794   -3.183992
     64          1           0       -1.130069    4.503739    1.575273
     65          1           0       -2.880391    5.078744    0.793870
     66          1           0       -4.077204    4.187836   -2.194013
     67          1           0       -4.954139    2.997076   -1.291900
     68          1           0       -4.281758    2.598877   -2.961918
     69          1           0       -5.010614    0.531103   -1.759665
     70          1           0        9.248282   -0.994707   -0.524548
     71          1           0       10.141971   -0.730341   -2.348153
     72          1           0       -4.121248   -2.808349    3.614243
     73          1           0       -6.418495   -0.964186   -2.036239
     74          1           0       -4.739565   -5.488871   -2.186020
     75          1           0       -3.927097   -5.752310   -0.686949
     76          1           0       -5.602861   -5.208102   -0.762073
     77          1           0       -0.689572    8.094000    1.588067
     78          1           0       -7.694034   -2.444830   -3.289399
     79          1           0       -6.712101   -4.061662   -2.829432
 ---------------------------------------------------------------------

 SCF Done:  E(RB3LYP) =  -1947.80589583     A.U. after   17 cycles

 Excitation energies and oscillator strengths:

 Excited State   1:      Singlet-A      2.1876 eV  566.75 nm  f=0.1304  <S**2>=0.000
     153 ->156         0.32441
     154 ->156         0.48664
     155 ->156        -0.37864
 This state for optimization and/or second-order correction.
 Total Energy, E(TD-HF/TD-KS) =  -1947.72550170
 Copying the excited state density for this state as the 1-particle RhoCI density.

 The electronic state is 1-A.
 Alpha  occ. eigenvalues --  -19.21827 -19.16345 -19.13313 -19.11822 -19.10323
 Alpha  occ. eigenvalues --  -19.09283 -14.38458 -14.36761 -14.35092 -14.28774
 Alpha  occ. eigenvalues --  -10.33375 -10.31595 -10.28377 -10.25896 -10.25253
 Alpha  occ. eigenvalues --  -10.25153 -10.24964 -10.24789 -10.23249 -10.23210
 Alpha  occ. eigenvalues --  -10.23178 -10.23171 -10.21914 -10.21612 -10.21586
 Alpha  occ. eigenvalues --  -10.21216 -10.21215 -10.21016 -10.20989 -10.20805
 Alpha  occ. eigenvalues --  -10.20372 -10.20338 -10.20260 -10.20238 -10.20159
 Alpha  occ. eigenvalues --  -10.19936 -10.19848 -10.19596 -10.19508 -10.19483
 Alpha  occ. eigenvalues --  -10.18629 -10.18466 -10.18082  -1.12314  -1.04981
 Alpha  occ. eigenvalues --   -1.03249  -1.00659  -0.98870  -0.98148  -0.97157
 Alpha  occ. eigenvalues --   -0.95882  -0.94273  -0.92104  -0.82946  -0.82743
 Alpha  occ. eigenvalues --   -0.81997  -0.80960  -0.80806  -0.80320  -0.78044
 Alpha  occ. eigenvalues --   -0.76855  -0.76639  -0.76382  -0.73426  -0.73305
 Alpha  occ. eigenvalues --   -0.72599  -0.70488  -0.69723  -0.68452  -0.67599
 Alpha  occ. eigenvalues --   -0.67117  -0.66439  -0.64411  -0.61077  -0.60865
 Alpha  occ. eigenvalues --   -0.60207  -0.59260  -0.58915  -0.57747  -0.56745
 Alpha  occ. eigenvalues --   -0.56424  -0.55558  -0.55336  -0.54484  -0.53397
 Alpha  occ. eigenvalues --   -0.52564  -0.51526  -0.50636  -0.50103  -0.49852
 Alpha  occ. eigenvalues --   -0.49638  -0.48990  -0.48584  -0.48411  -0.47595
 Alpha  occ. eigenvalues --   -0.47348  -0.46903  -0.46697  -0.46515  -0.45796
 Alpha  occ. eigenvalues --   -0.45320  -0.45200  -0.44180  -0.43796  -0.43715
 Alpha  occ. eigenvalues --   -0.43495  -0.43243  -0.42890  -0.42659  -0.42490
 Alpha  occ. eigenvalues --   -0.42196  -0.42068  -0.41862  -0.41645  -0.41017
 Alpha  occ. eigenvalues --   -0.40766  -0.40356  -0.40160  -0.39821  -0.39403
 Alpha  occ. eigenvalues --   -0.39193  -0.39013  -0.38768  -0.38475  -0.38177
 Alpha  occ. eigenvalues --   -0.37234  -0.37090  -0.36936  -0.36578  -0.36189
 Alpha  occ. eigenvalues --   -0.35970  -0.35402  -0.35217  -0.34537  -0.34076
 Alpha  occ. eigenvalues --   -0.33880  -0.33124  -0.32732  -0.32128  -0.31907
 Alpha  occ. eigenvalues --   -0.31326  -0.29950  -0.28990  -0.28560  -0.26774
 Alpha  occ. eigenvalues --   -0.26630  -0.26579  -0.26113  -0.25510  -0.25043
 Alpha  occ. eigenvalues --   -0.24801  -0.24244  -0.23072  -0.22141  -0.19568
 Alpha virt. eigenvalues --   -0.10953  -0.06219  -0.05779  -0.03116  -0.00740
 Alpha virt. eigenvalues --   -0.00227  -0.00005   0.01196   0.01353   0.02266
 Alpha virt. eigenvalues --    0.03346   0.03384   0.04432   0.04910   0.04958

 Mulliken charges:
               1
     1  O   -0.217775
     2  O   -0.264535
     3  O   -0.282133
     4  O   -0.175141
     5  O   -0.263251
     6  O   -0.298458
     7  N   -0.087147
     8  N   -0.183404
     9  N   -0.054350
    10  N   -0.223377
    11  C    0.096092
    12  C    0.171559
    13  C   -0.036393
    14  C   -0.158336
    15  C   -0.018873
    16  C    0.075191
    17  C   -0.209144
    18  C    0.015979
    19  C   -0.056254
    20  C   -0.092921
    21  C    0.120765
    22  C    0.129847
    23  C   -0.047215
    24  C    0.016883
    25  C    0.211808
    26  C   -0.167280
    27  C    0.009727
    28  C    0.090367
    29  C    0.117144
    30  C    0.000802
    31  C   -0.157516
    32  C    0.108643
    33  C   -0.120240
    34  C    0.176921
    35  C    0.120792
    36  C   -0.008128
    37  C    0.143671
    38  C    0.055369
    39  C   -0.171983
    40  C    0.144093
    41  C   -0.094897
    42  C    0.087196
    43  C   -0.015642
    44  H    0.018973
    45  H   -0.052296
    46  H    0.015371
    47  H    0.124826
    48  H    0.118625
    49  H   -0.010930
    50  H    0.066487
    51  H   -0.013712
    52  H    0.017254
    53  H    0.044308
    54  H    0.055273
    55  H    0.047143
    56  H    0.028246
    57  H   -0.069614
    58  H    0.067616
    59  H    0.036203
    60  H    0.121076
    61  H    0.021593
    62  H    0.016962
    63  H    0.018677
    64  H    0.071026
    65  H    0.065202
    66  H    0.009036
    67  H    0.028209
    68  H    0.037642
    69  H   -0.006668
    70  H   -0.022157
    71  H    0.060514
    72  H    0.219009
    73  H    0.008755
    74  H    0.020621
    75  H    0.042777
    76  H    0.000586
    77  H    0.255822
    78  H    0.017331
    79  H    0.031759
 Sum of Mulliken charges =   0.00000

 Dipole moment (field-independent basis, Debye):
    X=              1.8892    Y=              4.3837    Z=              4.0830  Tot=              6.2814
 Quadrupole moment (field-independent basis, Debye-Ang):
   XX=           -221.3399   YY=           -239.6767   ZZ=           -264.6728
   XY=            -13.7353   XZ=             31.5096   YZ=              6.0395

 Normal termination of Gaussian 09 at Mon Jul  8 08:05:22 2019.
