 Gaussian 09, Revision D.01,
 Gaussian 09:  ES64L-G09RevD.01 24-Apr-2013

 --------------------------
 # td=(NStates=1) B3LYP/SVP
 --------------------------

 --
 TD
 --
 Symbolic Z-matrix:
 Charge =  0 Multiplicity = 1

                         Standard orientation:
 ---------------------------------------------------------------------
 Center     Atomic      Atomic             Coordinates (Angstroms)
 Number     Number       Type             X           Y           Z
 ---------------------------------------------------------------------
      1          8           0        5.466891   -0.001927   -3.309547
      2          8           0       -2.719654   -3.249320    3.025248
      3          8           0       -2.904364   -1.019263    3.468720
      4          8           0       -1.853906    7.151950    1.597881
      5          8           0       -1.067051    6.982974   -0.540804
      6          8           0       -1.802521   -4.122671   -0.210801
      7          7           0        2.323975    0.950051    0.526067
      8          7           0        4.483129   -0.585952   -1.326126
      9          7           0       -1.878085    0.601895   -0.502109
     10          7           0       -2.649126   -2.009772   -0.570815
     11          6           0        4.888815   -1.195771   -0.033581
     12          6           0        4.489330   -0.150918    1.097613
     13          6           0        3.016003   -0.047280    1.173405
     14          6           0        2.149469   -0.691578    2.050938
     15          6           0        0.867080   -0.077235    1.893086
     16          6           0        1.045911    0.912833    0.815299
     17          6           0        6.395231   -1.254052   -0.247256
     18          6           0       -0.480235   -0.412921    2.639088
     19          6           0        6.808762   -0.726137   -1.460262
     20          6           0        0.131291    1.896980    0.204692
     21          6           0       -1.186668    1.699414   -0.249123
     22          6           0        5.645952   -0.400012   -2.139829
     23          6           0       -2.016941    2.834767   -0.752031
     24          6           0        2.495993   -1.602478    3.192044
     25          6           0        7.203487   -1.705204    0.903406
     26          6           0       -3.227238    2.269198   -1.186759
     27          6           0       -0.838727   -1.841260    2.604901
     28          6           0       -3.119730    0.893458   -0.969519
     29          6           0       -1.690033    4.337358   -0.859648
     30          6           0        8.037803   -0.481987   -2.123051
     31          6           0       -2.087784    5.046287    0.515718
     32          6           0       -4.417945    3.001879   -1.641108
     33          6           0       -3.990979   -0.096343   -1.324749
     34          6           0       -2.248013   -1.921464    3.121404
     35          6           0       -3.794347   -1.452314   -1.048717
     36          6           0        9.264538   -0.453421   -1.537806
     37          6           0       -1.644552    6.503449    0.424029
     38          6           0       -4.701868   -2.587096   -1.494374
     39          6           0       -4.107144   -3.726950   -1.124371
     40          6           0       -2.752378   -3.415644   -0.642227
     41          6           0       -5.994503   -2.210212   -2.173729
     42          6           0       -4.583577   -5.139347   -1.152137
     43          6           0       -6.950151   -3.095941   -2.591406
     44          1           0        4.399370   -2.191837   -0.077305
     45          1           0        5.099811    0.712920    0.757734
     46          1           0        4.815350   -0.777632    2.138076
     47          1           0        2.600193    1.522870   -0.233509
     48          1           0        3.460036   -0.764407   -1.769515
     49          1           0       -0.416055    0.056200    3.675522
     50          1           0       -1.273029    0.197306    2.099663
     51          1           0        0.445917    3.053510    0.201995
     52          1           0        3.461575   -1.352131    3.280974
     53          1           0        1.937149   -1.486928    4.002204
     54          1           0        2.511710   -2.606036    2.398340
     55          1           0        6.717200   -2.519469    1.595704
     56          1           0        7.394798   -0.930813    1.657747
     57          1           0        8.156225   -2.239620    0.553789
     58          1           0       -0.881931   -2.091352    1.467078
     59          1           0       -0.194521   -2.445904    3.274218
     60          1           0       -1.873464   -0.438718   -0.468278
     61          1           0       -2.104858    4.798800   -1.799989
     62          1           0       -0.575475    4.502985   -0.886001
     63          1           0        7.998159   -0.386614   -3.255853
     64          1           0       -1.595105    4.769949    1.403371
     65          1           0       -3.248493    5.354923    0.640058
     66          1           0       -4.225223    3.965272   -1.834898
     67          1           0       -5.263930    2.903696   -0.925817
     68          1           0       -4.572804    2.700637   -2.740937
     69          1           0       -5.049246    0.025507   -1.772762
     70          1           0        9.510951   -0.572195   -0.517918
     71          1           0       10.355138   -0.269627   -1.914513
     72          1           0       -3.610764   -3.502485    3.395268
     73          1           0       -6.411275   -1.156842   -2.104018
     74          1           0       -4.454446   -5.560250   -2.035510
     75          1           0       -3.821549   -5.887885   -0.359354
     76          1           0       -5.520606   -5.423601   -0.616133
     77          1           0       -1.652007    8.129402    1.636770
     78          1           0       -7.911815   -2.682585   -3.027206
     79          1           0       -6.762499   -4.294894   -2.277321
 ---------------------------------------------------------------------

 SCF Done:  E(RB3LYP) =  -1947.80348903     A.U. after   19 cycles

 Excitation energies and oscillator strengths:

 Excited State   1:      Singlet-A      1.9531 eV  634.80 nm  f=0.4502  <S**2>=0.000
     153 ->156         0.11615
     155 ->156         0.69934
     155 <-156        -0.11805
 This state for optimization and/or second-order correction.
 Total Energy, E(TD-HF/TD-KS) =  -1947.73171267
 Copying the excited state density for this state as the 1-particle RhoCI density.

 The electronic state is 1-A.
 Alpha  occ. eigenvalues --  -19.19089 -19.14624 -19.13052 -19.11695 -19.09892
 Alpha  occ. eigenvalues --  -19.08643 -14.38094 -14.35959 -14.34362 -14.28838
 Alpha  occ. eigenvalues --  -10.32749 -10.30136 -10.27277 -10.26279 -10.24989
 Alpha  occ. eigenvalues --  -10.24608 -10.23711 -10.23421 -10.23169 -10.23035
 Alpha  occ. eigenvalues --  -10.22865 -10.22766 -10.22697 -10.22640 -10.22346
 Alpha  occ. eigenvalues --  -10.21743 -10.21709 -10.21640 -10.21362 -10.21136
 Alpha  occ. eigenvalues --  -10.20745 -10.20667 -10.20490 -10.19996 -10.19732
 Alpha  occ. eigenvalues --  -10.19696 -10.19463 -10.19368 -10.19316 -10.19053
 Alpha  occ. eigenvalues --  -10.18988 -10.18894 -10.18794  -1.09110  -1.07058
 Alpha  occ. eigenvalues --   -1.00650  -1.00259  -1.00175  -0.99793  -0.98827
 Alpha  occ. eigenvalues --   -0.98313  -0.91839  -0.90941  -0.82471  -0.82407
 Alpha  occ. eigenvalues --   -0.81823  -0.81356  -0.79604  -0.79228  -0.78121
 Alpha  occ. eigenvalues --   -0.77383  -0.76477  -0.75620  -0.74211  -0.72617
 Alpha  occ. eigenvalues --   -0.71895  -0.71855  -0.69740  -0.69476  -0.68560
 Alpha  occ. eigenvalues --   -0.66188  -0.65517  -0.63519  -0.61605  -0.61366
 Alpha  occ. eigenvalues --   -0.60320  -0.58308  -0.57967  -0.57133  -0.56806
 Alpha  occ. eigenvalues --   -0.56144  -0.55723  -0.54783  -0.53769  -0.53627
 Alpha  occ. eigenvalues --   -0.51511  -0.50866  -0.50567  -0.49830  -0.49035
 Alpha  occ. eigenvalues --   -0.48705  -0.48612  -0.47974  -0.47829  -0.47288
 Alpha  occ. eigenvalues --   -0.46844  -0.46714  -0.46405  -0.45838  -0.45793
 Alpha  occ. eigenvalues --   -0.45382  -0.45228  -0.44824  -0.44659  -0.44097
 Alpha  occ. eigenvalues --   -0.43342  -0.43039  -0.42626  -0.42615  -0.42406
 Alpha  occ. eigenvalues --   -0.41908  -0.41443  -0.41155  -0.41051  -0.40681
 Alpha  occ. eigenvalues --   -0.40459  -0.40207  -0.40000  -0.39722  -0.39426
 Alpha  occ. eigenvalues --   -0.38896  -0.38661  -0.38397  -0.37716  -0.37619
 Alpha  occ. eigenvalues --   -0.37243  -0.37023  -0.36962  -0.36624  -0.36512
 Alpha  occ. eigenvalues --   -0.36349  -0.35057  -0.34872  -0.34222  -0.33718
 Alpha  occ. eigenvalues --   -0.33301  -0.33028  -0.32955  -0.32224  -0.31504
 Alpha  occ. eigenvalues --   -0.30792  -0.30406  -0.28257  -0.27950  -0.26963
 Alpha  occ. eigenvalues --   -0.26350  -0.25580  -0.24917  -0.24499  -0.24348
 Alpha  occ. eigenvalues --   -0.23999  -0.23752  -0.23639  -0.22130  -0.18802
 Alpha virt. eigenvalues --   -0.11183  -0.07165  -0.06321  -0.00902   0.00140
 Alpha virt. eigenvalues --    0.00329   0.00687   0.02417   0.02506   0.02892
 Alpha virt. eigenvalues --    0.03867   0.04312   0.04587   0.04712   0.05033

 Mulliken charges:
               1
     1  O   -0.259078
     2  O   -0.268125
     3  O   -0.174249
     4  O   -0.223737
     5  O   -0.235721
     6  O   -0.225870
     7  N    0.026003
     8  N   -0.306592
     9  N   -0.002452
    10  N   -0.312930
    11  C    0.078598
    12  C    0.133221
    13  C   -0.051260
    14  C   -0.188278
    15  C   -0.115815
    16  C    0.009688
    17  C   -0.183246
    18  C    0.066900
    19  C    0.065760
    20  C   -0.158512
    21  C    0.105455
    22  C    0.137344
    23  C   -0.092635
    24  C    0.201753
    25  C    0.025820
    26  C   -0.157505
    27  C   -0.006819
    28  C    0.110169
    29  C    0.069175
    30  C   -0.006599
    31  C   -0.005813
    32  C    0.190906
    33  C   -0.119682
    34  C    0.137844
    35  C    0.013826
    36  C   -0.071793
    37  C    0.123775
    38  C    0.073208
    39  C   -0.183882
    40  C    0.174572
    41  C   -0.048788
    42  C    0.046378
    43  C   -0.088761
    44  H    0.031408
    45  H    0.007636
    46  H    0.034554
    47  H    0.102324
    48  H    0.170785
    49  H    0.011332
    50  H    0.014560
    51  H    0.034086
    52  H   -0.048086
    53  H   -0.001389
    54  H    0.063634
    55  H    0.025134
    56  H    0.046815
    57  H    0.049377
    58  H    0.104871
    59  H    0.033122
    60  H    0.136977
    61  H    0.050031
    62  H    0.022829
    63  H    0.043758
    64  H    0.039420
    65  H    0.064561
    66  H   -0.051055
    67  H    0.048261
    68  H    0.021129
    69  H   -0.004283
    70  H   -0.003854
    71  H    0.039037
    72  H    0.188549
    73  H    0.029855
    74  H    0.004799
    75  H    0.036180
    76  H    0.041567
    77  H    0.205707
    78  H    0.042144
    79  H    0.061974
 Sum of Mulliken charges =   0.00000

 Dipole moment (field-independent basis, Debye):
    X=             -0.6187    Y=              3.3622    Z=              4.0358  Tot=              5.2892
 Quadrupole moment (field-independent basis, Debye-Ang):
   XX=           -207.9975   YY=           -240.5341   ZZ=           -265.5286
   XY=            -13.4494   XZ=             32.3356   YZ=              5.4465

 Normal termination of Gaussian 09 at Tue Jul  9 09:14:59 2019.
