 Gaussian 09, Revision D.01,
 Gaussian 09:  ES64L-G09RevD.01 24-Apr-2013

 --------------------------
 # td=(NStates=1) B3LYP/SVP
 --------------------------

 --
 TD
 --
 Symbolic Z-matrix:
 Charge =  0 Multiplicity = 1

                         Standard orientation:
 ---------------------------------------------------------------------
 Center     Atomic      Atomic             Coordinates (Angstroms)
 Number     Number       Type             X           Y           Z
 ---------------------------------------------------------------------
      1          8           0        5.355722   -0.279282   -3.375219
      2          8           0       -2.531433   -3.284959    3.325820
      3          8           0       -3.156877   -1.190443    3.363301
      4          8           0       -1.588856    7.166888    1.628082
      5          8           0       -0.530926    6.888328   -0.321356
      6          8           0       -1.989826   -3.985295   -0.018686
      7          7           0        2.408348    1.010471    0.563211
      8          7           0        4.323980   -0.642529   -1.330472
      9          7           0       -1.954371    0.683331   -0.429918
     10          7           0       -2.831265   -1.813920   -0.518991
     11          6           0        4.857303   -1.212686   -0.035868
     12          6           0        4.474153   -0.358655    1.160345
     13          6           0        3.025409   -0.034095    1.206010
     14          6           0        2.078959   -0.625420    2.047794
     15          6           0        0.844583   -0.073896    1.661548
     16          6           0        1.073402    0.843831    0.696958
     17          6           0        6.307207   -1.269569   -0.179460
     18          6           0       -0.440754   -0.347979    2.435286
     19          6           0        6.739937   -0.926335   -1.476221
     20          6           0        0.173285    1.892787    0.085978
     21          6           0       -1.116681    1.787499   -0.351607
     22          6           0        5.448075   -0.536625   -2.145647
     23          6           0       -1.912309    2.929405   -0.796993
     24          6           0        2.211453   -1.758593    3.057858
     25          6           0        7.204158   -1.651269    0.935879
     26          6           0       -3.111663    2.455686   -1.162517
     27          6           0       -0.959342   -1.735183    2.452296
     28          6           0       -3.128748    1.024393   -0.985043
     29          6           0       -1.530756    4.384799   -0.840658
     30          6           0        8.060013   -0.831990   -2.149664
     31          6           0       -1.767325    5.044267    0.539528
     32          6           0       -4.307317    3.263005   -1.702610
     33          6           0       -4.094036   -0.039249   -1.275380
     34          6           0       -2.369887   -1.983960    3.007809
     35          6           0       -3.874673   -1.392295   -1.027715
     36          6           0        9.228496   -0.732525   -1.558699
     37          6           0       -1.303349    6.504102    0.494549
     38          6           0       -4.853705   -2.465145   -1.375221
     39          6           0       -4.257739   -3.571762   -1.079663
     40          6           0       -2.894411   -3.243818   -0.408886
     41          6           0       -6.144655   -2.260924   -2.062717
     42          6           0       -4.494816   -5.047315   -1.342230
     43          6           0       -7.027196   -3.045681   -2.672469
     44          1           0        4.434850   -2.087171    0.250260
     45          1           0        5.127268    0.518707    1.354344
     46          1           0        4.768409   -0.758740    2.191455
     47          1           0        2.938054    1.584592   -0.093139
     48          1           0        3.503018   -0.782820   -1.639024
     49          1           0       -0.236292   -0.243727    3.677966
     50          1           0       -1.309846    0.213879    2.202846
     51          1           0        0.501390    2.934441   -0.262045
     52          1           0        3.277331   -1.757450    3.378035
     53          1           0        1.731372   -1.488363    3.862455
     54          1           0        1.859973   -2.953305    2.681758
     55          1           0        6.844098   -2.388738    1.702222
     56          1           0        7.758684   -0.779915    1.370654
     57          1           0        7.859700   -2.405738    0.327324
     58          1           0       -1.033708   -2.372943    1.424851
     59          1           0       -0.214887   -2.402519    3.076587
     60          1           0       -1.712047   -0.368555   -0.334950
     61          1           0       -1.989802    4.897775   -1.689166
     62          1           0       -0.484632    4.427402   -1.171861
     63          1           0        7.754031   -0.734049   -3.118634
     64          1           0       -1.136568    4.406419    1.111865
     65          1           0       -2.903463    5.184918    0.740682
     66          1           0       -3.928110    4.323199   -1.784890
     67          1           0       -5.312809    3.217369   -1.187168
     68          1           0       -4.480932    3.150607   -2.679987
     69          1           0       -5.163320    0.368628   -1.659994
     70          1           0        9.534065   -0.825329   -0.440167
     71          1           0       10.129949   -0.375922   -2.133697
     72          1           0       -3.354688   -3.273819    3.750915
     73          1           0       -6.403897   -1.149747   -2.230059
     74          1           0       -4.205485   -5.368891   -2.434776
     75          1           0       -3.745591   -5.561922   -0.694530
     76          1           0       -5.400741   -5.595349   -0.843749
     77          1           0       -1.176557    8.022896    1.547853
     78          1           0       -7.819689   -2.500708   -3.133766
     79          1           0       -6.920843   -4.167331   -2.838214
 ---------------------------------------------------------------------

 SCF Done:  E(RB3LYP) =  -1947.84630287     A.U. after   16 cycles

 Excitation energies and oscillator strengths:

 Excited State   1:      Singlet-A      2.2925 eV  540.82 nm  f=0.5086  <S**2>=0.000
     155 ->156         0.70083
     155 <-156        -0.10070
 This state for optimization and/or second-order correction.
 Total Energy, E(TD-HF/TD-KS) =  -1947.76205365
 Copying the excited state density for this state as the 1-particle RhoCI density.

 The electronic state is 1-A.
 Alpha  occ. eigenvalues --  -19.19368 -19.15559 -19.13775 -19.11769 -19.11234
 Alpha  occ. eigenvalues --  -19.09333 -14.38698 -14.36398 -14.35206 -14.28757
 Alpha  occ. eigenvalues --  -10.32773 -10.29938 -10.28810 -10.27506 -10.24897
 Alpha  occ. eigenvalues --  -10.24551 -10.24231 -10.23309 -10.22856 -10.22832
 Alpha  occ. eigenvalues --  -10.22824 -10.22314 -10.22134 -10.22097 -10.21903
 Alpha  occ. eigenvalues --  -10.21239 -10.21091 -10.21021 -10.21015 -10.20759
 Alpha  occ. eigenvalues --  -10.20344 -10.20292 -10.20143 -10.20013 -10.19852
 Alpha  occ. eigenvalues --  -10.19589 -10.19532 -10.19224 -10.19188 -10.19104
 Alpha  occ. eigenvalues --  -10.19081 -10.18877 -10.18842  -1.11782  -1.09892
 Alpha  occ. eigenvalues --   -1.02880  -1.01490  -1.00790  -1.00239  -0.99963
 Alpha  occ. eigenvalues --   -0.98847  -0.94535  -0.93523  -0.83706  -0.83553
 Alpha  occ. eigenvalues --   -0.81845  -0.81316  -0.80548  -0.79780  -0.78196
 Alpha  occ. eigenvalues --   -0.77546  -0.76246  -0.75782  -0.74177  -0.72735
 Alpha  occ. eigenvalues --   -0.72478  -0.71513  -0.69955  -0.69266  -0.68988
 Alpha  occ. eigenvalues --   -0.66593  -0.66363  -0.64210  -0.62739  -0.61334
 Alpha  occ. eigenvalues --   -0.59736  -0.58978  -0.58863  -0.57729  -0.56998
 Alpha  occ. eigenvalues --   -0.56377  -0.56245  -0.54868  -0.54096  -0.53465
 Alpha  occ. eigenvalues --   -0.52255  -0.51928  -0.51823  -0.51092  -0.50023
 Alpha  occ. eigenvalues --   -0.49793  -0.49422  -0.49217  -0.48162  -0.47784
 Alpha  occ. eigenvalues --   -0.46958  -0.46844  -0.46371  -0.46164  -0.45756
 Alpha  occ. eigenvalues --   -0.45631  -0.45349  -0.44856  -0.44791  -0.43792
 Alpha  occ. eigenvalues --   -0.43593  -0.43535  -0.43137  -0.42735  -0.42494
 Alpha  occ. eigenvalues --   -0.42252  -0.42059  -0.41806  -0.41722  -0.41412
 Alpha  occ. eigenvalues --   -0.41008  -0.40510  -0.40146  -0.39867  -0.39344
 Alpha  occ. eigenvalues --   -0.39155  -0.39075  -0.38838  -0.38517  -0.38234
 Alpha  occ. eigenvalues --   -0.37908  -0.37781  -0.37226  -0.36965  -0.36260
 Alpha  occ. eigenvalues --   -0.35822  -0.35719  -0.35501  -0.35057  -0.34312
 Alpha  occ. eigenvalues --   -0.34014  -0.33491  -0.33169  -0.32044  -0.31409
 Alpha  occ. eigenvalues --   -0.31187  -0.30676  -0.29558  -0.29171  -0.27993
 Alpha  occ. eigenvalues --   -0.27010  -0.26791  -0.26680  -0.25216  -0.24731
 Alpha  occ. eigenvalues --   -0.24524  -0.24320  -0.23903  -0.23046  -0.19332
 Alpha virt. eigenvalues --   -0.10276  -0.06219  -0.05656  -0.01097   0.00064
 Alpha virt. eigenvalues --    0.00323   0.00761   0.02089   0.02723   0.03582
 Alpha virt. eigenvalues --    0.03711   0.04796   0.05086   0.05667   0.05969

 Mulliken charges:
               1
     1  O   -0.277710
     2  O   -0.150994
     3  O   -0.197773
     4  O   -0.158588
     5  O   -0.203478
     6  O   -0.208768
     7  N   -0.037041
     8  N   -0.120184
     9  N   -0.086840
    10  N   -0.227890
    11  C    0.222645
    12  C    0.082976
    13  C   -0.101606
    14  C   -0.159972
    15  C   -0.020396
    16  C    0.054692
    17  C   -0.189243
    18  C    0.073749
    19  C   -0.083738
    20  C   -0.083044
    21  C    0.061844
    22  C    0.144872
    23  C   -0.092605
    24  C    0.151515
    25  C    0.022055
    26  C   -0.117929
    27  C   -0.136932
    28  C    0.053568
    29  C    0.057312
    30  C    0.124832
    31  C    0.045636
    32  C    0.146438
    33  C   -0.166617
    34  C    0.111257
    35  C    0.083275
    36  C   -0.074410
    37  C    0.110238
    38  C    0.094558
    39  C   -0.233495
    40  C    0.182163
    41  C   -0.042305
    42  C    0.035092
    43  C   -0.030037
    44  H   -0.017208
    45  H   -0.015112
    46  H    0.007863
    47  H    0.124823
    48  H    0.064543
    49  H    0.029046
    50  H    0.003158
    51  H    0.001018
    52  H   -0.018162
    53  H   -0.031551
    54  H    0.075551
    55  H    0.027099
    56  H    0.064571
    57  H    0.057577
    58  H    0.088294
    59  H    0.036132
    60  H    0.181103
    61  H    0.008800
    62  H    0.014352
    63  H   -0.025827
    64  H    0.039613
    65  H    0.055984
    66  H   -0.012748
    67  H    0.045239
    68  H   -0.016898
    69  H    0.015146
    70  H    0.044847
    71  H    0.037969
    72  H    0.137370
    73  H   -0.001269
    74  H    0.054686
    75  H    0.016134
    76  H    0.034775
    77  H    0.169404
    78  H    0.014341
    79  H    0.032217
 Sum of Mulliken charges =   0.00000

 Dipole moment (field-independent basis, Debye):
    X=              1.9674    Y=              3.5367    Z=              3.0619  Tot=              5.0749
 Quadrupole moment (field-independent basis, Debye-Ang):
   XX=           -221.6021   YY=           -239.3926   ZZ=           -266.6961
   XY=            -13.3395   XZ=             37.5414   YZ=              1.4538

 Normal termination of Gaussian 09 at Tue Jul  9 11:59:10 2019.
