 Gaussian 09, Revision D.01,
 Gaussian 09:  ES64L-G09RevD.01 24-Apr-2013

 --------------------------
 # td=(NStates=1) B3LYP/SVP
 --------------------------

 --
 TD
 --
 Symbolic Z-matrix:
 Charge =  0 Multiplicity = 1

                         Standard orientation:
 ---------------------------------------------------------------------
 Center     Atomic      Atomic             Coordinates (Angstroms)
 Number     Number       Type             X           Y           Z
 ---------------------------------------------------------------------
      1          8           0        5.507351    0.028247   -3.333041
      2          8           0       -2.715164   -3.243102    3.424539
      3          8           0       -3.179087   -1.053086    3.647763
      4          8           0       -1.820291    6.994865    1.826208
      5          8           0       -1.262267    7.279075   -0.433680
      6          8           0       -1.999132   -4.132017   -0.072823
      7          7           0        2.350714    0.949702    0.549254
      8          7           0        4.587059   -0.454426   -1.276945
      9          7           0       -1.870573    0.691170   -0.360915
     10          7           0       -2.663349   -1.937379   -0.492595
     11          6           0        4.936844   -1.081508   -0.049224
     12          6           0        4.536646   -0.186740    1.185336
     13          6           0        3.006885   -0.022124    1.253991
     14          6           0        2.048261   -0.669610    2.060913
     15          6           0        0.752786   -0.170759    1.718202
     16          6           0        0.961639    0.861113    0.808166
     17          6           0        6.498012   -1.147724   -0.162441
     18          6           0       -0.425067   -0.343262    2.449743
     19          6           0        6.738840   -0.636100   -1.288888
     20          6           0        0.173807    1.871404    0.058689
     21          6           0       -1.179055    1.824214   -0.301201
     22          6           0        5.545735   -0.314644   -2.151371
     23          6           0       -1.952128    2.943430   -0.903891
     24          6           0        2.333950   -1.780770    2.974375
     25          6           0        7.231004   -1.930422    0.944104
     26          6           0       -3.213104    2.408342   -1.335878
     27          6           0       -1.078189   -1.733574    2.519755
     28          6           0       -3.134251    0.920303   -0.993949
     29          6           0       -1.533022    4.395033   -0.956440
     30          6           0        8.008672   -0.594943   -2.127600
     31          6           0       -1.813237    5.003972    0.504469
     32          6           0       -4.296515    3.010859   -1.984433
     33          6           0       -3.985644   -0.107454   -1.414760
     34          6           0       -2.374669   -1.867243    3.269360
     35          6           0       -3.760288   -1.456066   -1.145785
     36          6           0        9.267156   -0.664883   -1.520056
     37          6           0       -1.622687    6.493940    0.547423
     38          6           0       -4.595274   -2.510940   -1.608459
     39          6           0       -4.063443   -3.740475   -1.255747
     40          6           0       -2.714773   -3.346215   -0.569049
     41          6           0       -6.021079   -2.380885   -2.155307
     42          6           0       -4.471175   -5.122458   -1.416475
     43          6           0       -6.799308   -3.321986   -2.628637
     44          1           0        4.570913   -2.132112    0.097048
     45          1           0        5.210341    0.593369    1.098994
     46          1           0        4.546830   -0.697008    2.243038
     47          1           0        2.954041    1.440292   -0.148933
     48          1           0        3.682514   -0.646505   -1.766952
     49          1           0       -0.275454    0.048843    3.459665
     50          1           0       -1.265071    0.215726    2.030061
     51          1           0        0.672412    2.859647    0.143061
     52          1           0        3.369613   -2.032651    3.312036
     53          1           0        1.742511   -1.556095    3.861095
     54          1           0        2.041619   -2.788699    2.715948
     55          1           0        6.742666   -2.974894    1.114260
     56          1           0        7.455176   -1.289047    1.759449
     57          1           0        8.356484   -2.263059    0.464971
     58          1           0       -1.246737   -2.240057    1.671766
     59          1           0       -0.507543   -2.345019    3.145321
     60          1           0       -1.660382   -0.181239    0.001748
     61          1           0       -2.002691    4.954402   -1.479541
     62          1           0       -0.592327    4.718727   -1.126705
     63          1           0        8.061965   -0.605619   -3.164830
     64          1           0       -1.277754    4.539294    1.302173
     65          1           0       -2.886088    4.909046    0.663367
     66          1           0       -4.029436    4.103627   -2.054348
     67          1           0       -5.250078    2.725195   -1.405780
     68          1           0       -4.562782    2.735163   -3.106054
     69          1           0       -5.061612    0.252150   -1.763481
     70          1           0        9.563965   -0.560714   -0.413003
     71          1           0       10.096256   -0.603636   -2.197641
     72          1           0       -3.608597   -3.306523    4.041799
     73          1           0       -6.147778   -1.266075   -1.967690
     74          1           0       -4.649304   -5.413895   -2.436455
     75          1           0       -3.602381   -5.785640   -0.928731
     76          1           0       -5.440689   -5.086454   -0.684908
     77          1           0       -1.539821    7.949344    1.826451
     78          1           0       -7.962211   -3.140303   -2.881831
     79          1           0       -6.620764   -4.475841   -2.778286
 ---------------------------------------------------------------------

 SCF Done:  E(RB3LYP) =  -1947.80240378     A.U. after   17 cycles

 Excitation energies and oscillator strengths:

 Excited State   1:      Singlet-A      2.1254 eV  583.34 nm  f=0.4037  <S**2>=0.000
     154 ->156         0.20664
     155 ->156         0.67016
     155 <-156        -0.11005
 This state for optimization and/or second-order correction.
 Total Energy, E(TD-HF/TD-KS) =  -1947.72429558
 Copying the excited state density for this state as the 1-particle RhoCI density.

 The electronic state is 1-A.
 Alpha  occ. eigenvalues --  -19.19748 -19.15525 -19.13874 -19.11761 -19.11098
 Alpha  occ. eigenvalues --  -19.10777 -14.38172 -14.37228 -14.36858 -14.28694
 Alpha  occ. eigenvalues --  -10.34161 -10.30702 -10.28560 -10.26229 -10.26107
 Alpha  occ. eigenvalues --  -10.25593 -10.25043 -10.23531 -10.23268 -10.23166
 Alpha  occ. eigenvalues --  -10.23163 -10.23133 -10.22457 -10.22363 -10.22250
 Alpha  occ. eigenvalues --  -10.22215 -10.21899 -10.21608 -10.20528 -10.20436
 Alpha  occ. eigenvalues --  -10.20431 -10.20182 -10.20124 -10.19890 -10.19762
 Alpha  occ. eigenvalues --  -10.19700 -10.19409 -10.19259 -10.19234 -10.19208
 Alpha  occ. eigenvalues --  -10.19142 -10.19012 -10.18071  -1.08038  -1.05719
 Alpha  occ. eigenvalues --   -1.04021  -1.03723  -0.98767  -0.97820  -0.97686
 Alpha  occ. eigenvalues --   -0.96545  -0.96427  -0.91402  -0.83917  -0.83156
 Alpha  occ. eigenvalues --   -0.82886  -0.81516  -0.80136  -0.79564  -0.78621
 Alpha  occ. eigenvalues --   -0.77741  -0.76553  -0.75096  -0.74168  -0.73619
 Alpha  occ. eigenvalues --   -0.72548  -0.71368  -0.70444  -0.70084  -0.68856
 Alpha  occ. eigenvalues --   -0.68326  -0.66295  -0.63736  -0.60621  -0.60287
 Alpha  occ. eigenvalues --   -0.59951  -0.59559  -0.58909  -0.58003  -0.57394
 Alpha  occ. eigenvalues --   -0.56530  -0.55781  -0.54842  -0.54342  -0.53248
 Alpha  occ. eigenvalues --   -0.52519  -0.51884  -0.51486  -0.50923  -0.50363
 Alpha  occ. eigenvalues --   -0.49397  -0.48788  -0.48399  -0.48211  -0.47617
 Alpha  occ. eigenvalues --   -0.47095  -0.46826  -0.46340  -0.45837  -0.45365
 Alpha  occ. eigenvalues --   -0.45154  -0.44898  -0.44821  -0.44782  -0.44441
 Alpha  occ. eigenvalues --   -0.43989  -0.43868  -0.43350  -0.43133  -0.42961
 Alpha  occ. eigenvalues --   -0.42393  -0.41922  -0.41835  -0.41415  -0.41224
 Alpha  occ. eigenvalues --   -0.41014  -0.40889  -0.40484  -0.40062  -0.39769
 Alpha  occ. eigenvalues --   -0.39652  -0.39377  -0.38973  -0.38635  -0.38421
 Alpha  occ. eigenvalues --   -0.38206  -0.38005  -0.37714  -0.37572  -0.37135
 Alpha  occ. eigenvalues --   -0.37108  -0.36701  -0.36534  -0.35912  -0.35302
 Alpha  occ. eigenvalues --   -0.33439  -0.32877  -0.32132  -0.32041  -0.31909
 Alpha  occ. eigenvalues --   -0.30613  -0.30018  -0.28689  -0.28525  -0.28017
 Alpha  occ. eigenvalues --   -0.27503  -0.26522  -0.26210  -0.25989  -0.25029
 Alpha  occ. eigenvalues --   -0.24754  -0.23952  -0.23421  -0.21775  -0.19335
 Alpha virt. eigenvalues --   -0.11103  -0.06190  -0.05010  -0.03095  -0.00309
 Alpha virt. eigenvalues --    0.00333   0.00920   0.01673   0.02458   0.03239
 Alpha virt. eigenvalues --    0.03484   0.03760   0.04007   0.04334   0.04643

 Mulliken charges:
               1
     1  O   -0.231674
     2  O   -0.308724
     3  O   -0.216171
     4  O   -0.215320
     5  O   -0.308379
     6  O   -0.151084
     7  N   -0.104576
     8  N   -0.111365
     9  N   -0.032733
    10  N   -0.311442
    11  C    0.023524
    12  C    0.185322
    13  C   -0.098802
    14  C   -0.109011
    15  C   -0.031329
    16  C    0.064316
    17  C   -0.137089
    18  C    0.044740
    19  C   -0.065714
    20  C   -0.061472
    21  C    0.062896
    22  C    0.110335
    23  C   -0.096197
    24  C    0.069143
    25  C    0.036348
    26  C   -0.073612
    27  C    0.107924
    28  C    0.095675
    29  C    0.333439
    30  C    0.006589
    31  C   -0.017764
    32  C    0.002277
    33  C   -0.146126
    34  C    0.121754
    35  C    0.127655
    36  C   -0.059839
    37  C    0.177820
    38  C   -0.052114
    39  C   -0.208585
    40  C    0.146917
    41  C    0.081113
    42  C    0.018147
    43  C   -0.121159
    44  H    0.025093
    45  H   -0.029926
    46  H    0.034585
    47  H    0.134846
    48  H    0.139664
    49  H    0.015724
    50  H   -0.000515
    51  H    0.011319
    52  H   -0.000005
    53  H    0.008798
    54  H    0.027827
    55  H    0.056471
    56  H    0.039671
    57  H    0.045616
    58  H    0.014474
    59  H   -0.007026
    60  H    0.106992
    61  H   -0.120910
    62  H   -0.020358
    63  H    0.001573
    64  H    0.045493
    65  H    0.042254
    66  H    0.029000
    67  H    0.051490
    68  H    0.057026
    69  H    0.024759
    70  H    0.036060
    71  H    0.015817
    72  H    0.223652
    73  H   -0.010228
    74  H    0.047957
    75  H    0.053937
    76  H    0.062373
    77  H    0.202321
    78  H    0.038640
    79  H    0.049883
 Sum of Mulliken charges =   0.00000

 Dipole moment (field-independent basis, Debye):
    X=              1.1645    Y=              1.7034    Z=              3.4595  Tot=              4.0281
 Quadrupole moment (field-independent basis, Debye-Ang):
   XX=           -228.1063   YY=           -251.8593   ZZ=           -263.8648
   XY=            -11.2120   XZ=             30.5823   YZ=              8.0112

 Normal termination of Gaussian 09 at Mon Jul  8 01:24:50 2019.
