 Gaussian 09, Revision D.01,
 Gaussian 09:  ES64L-G09RevD.01 24-Apr-2013

 --------------------------
 # td=(NStates=1) B3LYP/SVP
 --------------------------

 --
 TD
 --
 Symbolic Z-matrix:
 Charge =  0 Multiplicity = 1

                         Standard orientation:
 ---------------------------------------------------------------------
 Center     Atomic      Atomic             Coordinates (Angstroms)
 Number     Number       Type             X           Y           Z
 ---------------------------------------------------------------------
      1          8           0        5.366772   -0.169733   -3.344730
      2          8           0       -2.954454   -3.024513    2.924088
      3          8           0       -3.097448   -0.826825    3.337220
      4          8           0       -1.418009    7.139726    1.557399
      5          8           0       -0.396863    7.039409   -0.393655
      6          8           0       -2.174634   -4.014528    0.004448
      7          7           0        2.399763    0.806029    0.527635
      8          7           0        4.493366   -0.692590   -1.295560
      9          7           0       -1.760009    0.724590   -0.357866
     10          7           0       -2.816852   -1.905770   -0.559179
     11          6           0        4.947531   -1.265992    0.004132
     12          6           0        4.541846   -0.306876    1.161840
     13          6           0        2.987269   -0.098809    1.275972
     14          6           0        2.089396   -0.764902    2.055846
     15          6           0        0.887071   -0.230598    1.659230
     16          6           0        1.043190    0.862783    0.725477
     17          6           0        6.330533   -1.462612   -0.230072
     18          6           0       -0.474458   -0.263910    2.475297
     19          6           0        6.621951   -1.129794   -1.498923
     20          6           0        0.260944    1.909147    0.147922
     21          6           0       -0.981649    1.830761   -0.407003
     22          6           0        5.469975   -0.565012   -2.218610
     23          6           0       -1.872688    2.971449   -0.837501
     24          6           0        2.318037   -1.676421    3.204048
     25          6           0        7.187166   -2.230860    0.786936
     26          6           0       -3.086903    2.431055   -1.228401
     27          6           0       -0.988182   -1.815657    2.583145
     28          6           0       -3.063963    0.901375   -0.925819
     29          6           0       -1.389900    4.394708   -0.889535
     30          6           0        8.012961   -0.962293   -2.110740
     31          6           0       -1.476379    5.070167    0.488939
     32          6           0       -4.320391    3.170824   -1.799252
     33          6           0       -4.036892    0.071685   -1.226887
     34          6           0       -2.408558   -1.788891    3.012497
     35          6           0       -3.928071   -1.395833   -1.022248
     36          6           0        9.262620   -0.722780   -1.411394
     37          6           0       -1.055230    6.475872    0.445281
     38          6           0       -4.995391   -2.433139   -1.337844
     39          6           0       -4.399736   -3.628709   -1.130365
     40          6           0       -3.013196   -3.250255   -0.468299
     41          6           0       -6.376841   -2.053475   -1.872288
     42          6           0       -4.826604   -4.987475   -1.272135
     43          6           0       -7.188247   -2.889631   -2.538181
     44          1           0        4.492685   -2.303688    0.123291
     45          1           0        5.095589    0.721394    1.063848
     46          1           0        4.793048   -0.598571    2.205349
     47          1           0        2.859099    1.192238   -0.175156
     48          1           0        3.525886   -0.649320   -1.507088
     49          1           0       -0.223334    0.198425    3.432216
     50          1           0       -1.446512    0.320567    2.106581
     51          1           0        0.921421    2.588142   -0.009596
     52          1           0        3.330100   -1.708263    3.521000
     53          1           0        1.498057   -1.214766    4.006950
     54          1           0        2.099941   -2.720448    2.790799
     55          1           0        6.573439   -2.823095    1.465724
     56          1           0        7.575655   -1.457926    1.370974
     57          1           0        7.963829   -2.771426    0.384709
     58          1           0       -0.861909   -2.199619    1.617510
     59          1           0       -0.479274   -2.460581    3.262611
     60          1           0       -1.430742   -0.237650   -0.237131
     61          1           0       -1.642000    5.086472   -1.573486
     62          1           0       -0.321244    4.534734   -1.247486
     63          1           0        8.083938   -0.694211   -3.022969
     64          1           0       -0.863265    4.555440    1.117705
     65          1           0       -2.460413    4.957204    0.976678
     66          1           0       -4.121803    4.220063   -2.034340
     67          1           0       -5.281730    3.020348   -1.103023
     68          1           0       -4.492099    2.651948   -2.868982
     69          1           0       -4.908012    0.713486   -1.691216
     70          1           0        9.423766   -0.898432   -0.251510
     71          1           0       10.078818   -0.680150   -2.102341
     72          1           0       -3.921284   -2.835528    3.387245
     73          1           0       -6.687795   -0.940533   -1.322165
     74          1           0       -4.877277   -5.316929   -2.406870
     75          1           0       -3.981931   -5.663265   -0.881419
     76          1           0       -5.798212   -4.993330   -0.889015
     77          1           0       -0.792857    7.939332    1.521921
     78          1           0       -8.192390   -2.347232   -2.722863
     79          1           0       -6.811255   -3.854348   -2.798213
 ---------------------------------------------------------------------

 SCF Done:  E(RB3LYP) =  -1947.82703169     A.U. after   16 cycles

 Excitation energies and oscillator strengths:

 Excited State   1:      Singlet-A      2.0697 eV  599.04 nm  f=0.3956  <S**2>=0.000
     155 ->156         0.70519
 This state for optimization and/or second-order correction.
 Total Energy, E(TD-HF/TD-KS) =  -1947.75097047
 Copying the excited state density for this state as the 1-particle RhoCI density.

 The electronic state is 1-A.
 Alpha  occ. eigenvalues --  -19.18469 -19.17174 -19.13212 -19.11416 -19.11342
 Alpha  occ. eigenvalues --  -19.09728 -14.37402 -14.36652 -14.35059 -14.29965
 Alpha  occ. eigenvalues --  -10.32166 -10.30407 -10.27958 -10.27284 -10.25490
 Alpha  occ. eigenvalues --  -10.25094 -10.24958 -10.24165 -10.23316 -10.22482
 Alpha  occ. eigenvalues --  -10.22464 -10.22312 -10.21987 -10.21906 -10.21745
 Alpha  occ. eigenvalues --  -10.21574 -10.21034 -10.21020 -10.20596 -10.20544
 Alpha  occ. eigenvalues --  -10.20318 -10.20272 -10.20185 -10.20120 -10.20099
 Alpha  occ. eigenvalues --  -10.20089 -10.20038 -10.19836 -10.19772 -10.19473
 Alpha  occ. eigenvalues --  -10.18749 -10.18455 -10.18204  -1.10591  -1.07281
 Alpha  occ. eigenvalues --   -1.03445  -1.01852  -1.00988  -1.00646  -0.97692
 Alpha  occ. eigenvalues --   -0.96925  -0.95235  -0.93476  -0.82643  -0.82453
 Alpha  occ. eigenvalues --   -0.82021  -0.81697  -0.81014  -0.79387  -0.77994
 Alpha  occ. eigenvalues --   -0.77237  -0.76284  -0.75967  -0.74745  -0.72422
 Alpha  occ. eigenvalues --   -0.72139  -0.71328  -0.70421  -0.69585  -0.68143
 Alpha  occ. eigenvalues --   -0.66554  -0.66445  -0.64392  -0.61022  -0.60624
 Alpha  occ. eigenvalues --   -0.59328  -0.58639  -0.58523  -0.58298  -0.57158
 Alpha  occ. eigenvalues --   -0.56070  -0.55581  -0.54723  -0.54485  -0.53490
 Alpha  occ. eigenvalues --   -0.52069  -0.51751  -0.51082  -0.50828  -0.49980
 Alpha  occ. eigenvalues --   -0.49575  -0.48721  -0.48196  -0.47982  -0.47851
 Alpha  occ. eigenvalues --   -0.47611  -0.47185  -0.46711  -0.46670  -0.46123
 Alpha  occ. eigenvalues --   -0.45490  -0.45062  -0.44490  -0.44004  -0.43689
 Alpha  occ. eigenvalues --   -0.43540  -0.43214  -0.42772  -0.42603  -0.42306
 Alpha  occ. eigenvalues --   -0.41933  -0.41703  -0.41438  -0.41271  -0.41204
 Alpha  occ. eigenvalues --   -0.40870  -0.40502  -0.40416  -0.40367  -0.40045
 Alpha  occ. eigenvalues --   -0.39779  -0.39426  -0.39023  -0.38858  -0.38780
 Alpha  occ. eigenvalues --   -0.38168  -0.38129  -0.37959  -0.37541  -0.37084
 Alpha  occ. eigenvalues --   -0.36371  -0.35988  -0.35518  -0.34791  -0.34276
 Alpha  occ. eigenvalues --   -0.33949  -0.33557  -0.32726  -0.32398  -0.31216
 Alpha  occ. eigenvalues --   -0.30435  -0.30398  -0.29197  -0.29055  -0.28056
 Alpha  occ. eigenvalues --   -0.27039  -0.26893  -0.25946  -0.25785  -0.25165
 Alpha  occ. eigenvalues --   -0.25049  -0.24715  -0.23622  -0.23446  -0.18564
 Alpha virt. eigenvalues --   -0.10455  -0.06225  -0.05750  -0.01255  -0.00278
 Alpha virt. eigenvalues --   -0.00007   0.01351   0.01953   0.02925   0.03346
 Alpha virt. eigenvalues --    0.03854   0.03947   0.04790   0.05252   0.05365

 Mulliken charges:
               1
     1  O   -0.197167
     2  O   -0.231388
     3  O   -0.261064
     4  O   -0.198577
     5  O   -0.231035
     6  O   -0.192883
     7  N    0.064063
     8  N   -0.205983
     9  N   -0.101568
    10  N   -0.190907
    11  C    0.109787
    12  C    0.146793
    13  C   -0.189917
    14  C   -0.106140
    15  C   -0.121312
    16  C    0.005224
    17  C   -0.189389
    18  C   -0.043754
    19  C   -0.086434
    20  C   -0.012494
    21  C    0.130766
    22  C    0.148428
    23  C   -0.027491
    24  C    0.090262
    25  C    0.195179
    26  C   -0.139472
    27  C    0.062818
    28  C    0.133004
    29  C    0.089561
    30  C    0.050801
    31  C    0.059788
    32  C    0.021077
    33  C   -0.129853
    34  C    0.137903
    35  C    0.057849
    36  C   -0.067247
    37  C    0.110153
    38  C    0.003428
    39  C   -0.230942
    40  C    0.142087
    41  C   -0.056807
    42  C    0.065384
    43  C   -0.010318
    44  H    0.038671
    45  H    0.016143
    46  H    0.005178
    47  H    0.055458
    48  H    0.111126
    49  H    0.018018
    50  H    0.066060
    51  H   -0.090377
    52  H   -0.010633
    53  H    0.059890
    54  H    0.044931
    55  H    0.008043
    56  H    0.007475
    57  H    0.015072
    58  H    0.038671
    59  H    0.022086
    60  H    0.153598
    61  H   -0.037118
    62  H    0.010329
    63  H   -0.056010
    64  H    0.010586
    65  H    0.034794
    66  H    0.027620
    67  H    0.063967
    68  H    0.051745
    69  H    0.006803
    70  H    0.040521
    71  H    0.032716
    72  H    0.214157
    73  H    0.049074
    74  H    0.044823
    75  H    0.049901
    76  H    0.026205
    77  H    0.196110
    78  H    0.052505
    79  H    0.019650
 Sum of Mulliken charges =   0.00000

 Dipole moment (field-independent basis, Debye):
    X=             -0.0595    Y=              0.6565    Z=              3.1721  Tot=              3.2398
 Quadrupole moment (field-independent basis, Debye-Ang):
   XX=           -220.3209   YY=           -251.3752   ZZ=           -264.4801
   XY=             -7.0888   XZ=             36.1065   YZ=              4.3735

 Normal termination of Gaussian 09 at Mon Jul  8 05:35:04 2019.
