 Gaussian 09, Revision D.01,
 Gaussian 09:  ES64L-G09RevD.01 24-Apr-2013

 --------------------------
 # td=(NStates=1) B3LYP/SVP
 --------------------------

 --
 TD
 --
 Symbolic Z-matrix:
 Charge =  0 Multiplicity = 1

                         Standard orientation:
 ---------------------------------------------------------------------
 Center     Atomic      Atomic             Coordinates (Angstroms)
 Number     Number       Type             X           Y           Z
 ---------------------------------------------------------------------
      1          8           0        5.338660   -0.034363   -3.249020
      2          8           0       -3.001680   -3.173823    3.232735
      3          8           0       -3.194910   -0.939359    3.055393
      4          8           0       -1.500390    7.297806    1.613895
      5          8           0       -0.328317    6.905105   -0.217309
      6          8           0       -2.220391   -3.996699   -0.081550
      7          7           0        2.405051    0.694892    0.802105
      8          7           0        4.412031   -0.786554   -1.254345
      9          7           0       -1.801048    0.742399   -0.373789
     10          7           0       -2.723267   -1.710656   -0.696183
     11          6           0        4.824950   -1.348293   -0.010560
     12          6           0        4.543931   -0.408775    1.213660
     13          6           0        3.089084   -0.282881    1.464703
     14          6           0        2.056420   -0.970817    2.136046
     15          6           0        0.765549   -0.304951    1.753550
     16          6           0        1.057593    0.792547    0.915482
     17          6           0        6.331977   -1.462151   -0.269955
     18          6           0       -0.532074   -0.575820    2.584286
     19          6           0        6.710962   -0.889281   -1.443385
     20          6           0        0.296023    1.824982    0.244900
     21          6           0       -0.969725    1.810931   -0.231449
     22          6           0        5.475747   -0.458123   -2.078553
     23          6           0       -1.687112    2.953455   -0.757497
     24          6           0        2.168044   -1.976263    3.166583
     25          6           0        7.250006   -2.053594    0.772823
     26          6           0       -2.910256    2.412941   -1.131189
     27          6           0       -1.159599   -1.915513    2.478754
     28          6           0       -3.030443    1.067006   -0.881956
     29          6           0       -1.296496    4.336056   -0.765605
     30          6           0        7.931957   -0.595766   -2.183469
     31          6           0       -1.779033    5.151944    0.530048
     32          6           0       -3.987741    3.318685   -1.717801
     33          6           0       -4.002088    0.190568   -1.284951
     34          6           0       -2.442488   -1.895161    3.004744
     35          6           0       -3.920403   -1.204377   -1.271240
     36          6           0        9.230721   -0.695569   -1.786262
     37          6           0       -1.101834    6.493479    0.540161
     38          6           0       -4.915922   -2.325790   -1.627022
     39          6           0       -4.347507   -3.511235   -1.185421
     40          6           0       -2.958060   -3.105705   -0.695789
     41          6           0       -6.138768   -1.982723   -2.218739
     42          6           0       -4.854603   -4.878905   -1.356627
     43          6           0       -7.059025   -2.957611   -2.523505
     44          1           0        4.365367   -2.348253    0.134736
     45          1           0        5.271490    0.353998    1.046333
     46          1           0        4.798663   -1.218029    2.042816
     47          1           0        2.773011    1.203282    0.245053
     48          1           0        3.410963   -0.669749   -1.589029
     49          1           0       -0.382579   -0.425045    3.763419
     50          1           0       -1.317920    0.105839    1.918540
     51          1           0        0.790908    2.809642    0.125487
     52          1           0        3.361443   -2.387852    3.453437
     53          1           0        1.596861   -1.807003    4.129855
     54          1           0        1.871734   -2.896027    2.676520
     55          1           0        6.853241   -2.969544    1.006282
     56          1           0        7.422858   -1.265351    1.755899
     57          1           0        8.208701   -2.378978    0.295820
     58          1           0       -1.039712   -2.164545    1.382808
     59          1           0       -0.718857   -2.753072    2.932647
     60          1           0       -1.606648   -0.217809   -0.245137
     61          1           0       -1.449117    4.785767   -1.724626
     62          1           0       -0.063723    4.319556   -0.799881
     63          1           0        7.728593   -0.165699   -3.214052
     64          1           0       -1.594685    4.573019    1.528249
     65          1           0       -2.902611    5.268208    0.423358
     66          1           0       -3.856339    4.490071   -1.732133
     67          1           0       -5.095996    3.272732   -1.187396
     68          1           0       -4.482467    3.026721   -2.686481
     69          1           0       -4.867829    0.565947   -1.714768
     70          1           0        9.437515   -1.028801   -0.639487
     71          1           0       10.121409   -0.653726   -2.396051
     72          1           0       -3.912456   -2.880355    3.235377
     73          1           0       -6.513714   -0.832829   -2.652000
     74          1           0       -5.177425   -4.998389   -2.422094
     75          1           0       -3.936114   -5.483120   -1.104344
     76          1           0       -5.883684   -4.856332   -0.774707
     77          1           0       -0.878334    7.844033    1.406055
     78          1           0       -7.944283   -2.573832   -2.921498
     79          1           0       -7.020127   -4.014134   -2.185260
 ---------------------------------------------------------------------

 SCF Done:  E(RB3LYP) =  -1947.77105723     A.U. after   19 cycles

 Excitation energies and oscillator strengths:

 Excited State   1:      Singlet-A      2.0510 eV  604.50 nm  f=0.3142  <S**2>=0.000
     154 ->156         0.33006
     155 ->156         0.61853
     155 <-156        -0.10371
 This state for optimization and/or second-order correction.
 Total Energy, E(TD-HF/TD-KS) =  -1947.69568377
 Copying the excited state density for this state as the 1-particle RhoCI density.

 The electronic state is 1-A.
 Alpha  occ. eigenvalues --  -19.17365 -19.15479 -19.15080 -19.11300 -19.09919
 Alpha  occ. eigenvalues --  -19.09549 -14.37097 -14.36764 -14.35796 -14.30267
 Alpha  occ. eigenvalues --  -10.33480 -10.29758 -10.28194 -10.26929 -10.25574
 Alpha  occ. eigenvalues --  -10.24858 -10.24847 -10.24290 -10.24260 -10.24072
 Alpha  occ. eigenvalues --  -10.24028 -10.23343 -10.23103 -10.22771 -10.22764
 Alpha  occ. eigenvalues --  -10.22499 -10.22171 -10.21893 -10.21573 -10.21338
 Alpha  occ. eigenvalues --  -10.21310 -10.21174 -10.21047 -10.20945 -10.20815
 Alpha  occ. eigenvalues --  -10.20812 -10.20682 -10.20400 -10.20257 -10.20239
 Alpha  occ. eigenvalues --  -10.19650 -10.19318 -10.17645  -1.14248  -1.07098
 Alpha  occ. eigenvalues --   -1.04679  -1.01492  -1.01086  -1.00391  -0.97854
 Alpha  occ. eigenvalues --   -0.96729  -0.94160  -0.89669  -0.84026  -0.83144
 Alpha  occ. eigenvalues --   -0.82326  -0.82204  -0.81369  -0.80811  -0.78959
 Alpha  occ. eigenvalues --   -0.78351  -0.77648  -0.76188  -0.75327  -0.73558
 Alpha  occ. eigenvalues --   -0.72059  -0.71919  -0.70577  -0.69949  -0.69582
 Alpha  occ. eigenvalues --   -0.67410  -0.66801  -0.64739  -0.61588  -0.61454
 Alpha  occ. eigenvalues --   -0.59696  -0.58959  -0.57919  -0.57680  -0.57348
 Alpha  occ. eigenvalues --   -0.56926  -0.56556  -0.55015  -0.53860  -0.53295
 Alpha  occ. eigenvalues --   -0.52555  -0.52277  -0.51647  -0.51428  -0.51128
 Alpha  occ. eigenvalues --   -0.50458  -0.49822  -0.49560  -0.48276  -0.48087
 Alpha  occ. eigenvalues --   -0.47745  -0.47423  -0.46823  -0.46768  -0.46349
 Alpha  occ. eigenvalues --   -0.46084  -0.45290  -0.44893  -0.44379  -0.43863
 Alpha  occ. eigenvalues --   -0.43482  -0.43330  -0.43124  -0.43114  -0.42858
 Alpha  occ. eigenvalues --   -0.42521  -0.42321  -0.42011  -0.41941  -0.41439
 Alpha  occ. eigenvalues --   -0.41146  -0.40988  -0.40422  -0.40300  -0.39752
 Alpha  occ. eigenvalues --   -0.39374  -0.39249  -0.39093  -0.38656  -0.38393
 Alpha  occ. eigenvalues --   -0.38007  -0.37941  -0.37544  -0.37371  -0.37061
 Alpha  occ. eigenvalues --   -0.36390  -0.35822  -0.35200  -0.35117  -0.34289
 Alpha  occ. eigenvalues --   -0.34154  -0.33671  -0.33078  -0.32333  -0.31907
 Alpha  occ. eigenvalues --   -0.31566  -0.31135  -0.30209  -0.28836  -0.28273
 Alpha  occ. eigenvalues --   -0.26801  -0.26251  -0.26130  -0.25251  -0.24788
 Alpha  occ. eigenvalues --   -0.24377  -0.24052  -0.23718  -0.22319  -0.20047
 Alpha virt. eigenvalues --   -0.11964  -0.07271  -0.06887  -0.01591  -0.01191
 Alpha virt. eigenvalues --   -0.00537   0.00407   0.00991   0.01904   0.02371
 Alpha virt. eigenvalues --    0.02783   0.03482   0.04234   0.04592   0.04939

 Mulliken charges:
               1
     1  O   -0.266828
     2  O   -0.210269
     3  O   -0.245962
     4  O   -0.135373
     5  O   -0.169062
     6  O   -0.303622
     7  N    0.095251
     8  N   -0.208758
     9  N   -0.025809
    10  N   -0.328188
    11  C    0.080310
    12  C    0.176463
    13  C   -0.049469
    14  C   -0.112817
    15  C   -0.125216
    16  C    0.053558
    17  C   -0.249299
    18  C   -0.024171
    19  C    0.034899
    20  C   -0.076544
    21  C    0.097724
    22  C    0.135828
    23  C   -0.063514
    24  C    0.015944
    25  C    0.090154
    26  C   -0.053675
    27  C    0.052355
    28  C    0.169821
    29  C    0.019073
    30  C   -0.016069
    31  C   -0.013438
    32  C   -0.026803
    33  C   -0.080158
    34  C    0.137548
    35  C    0.071528
    36  C   -0.064945
    37  C    0.132116
    38  C    0.133906
    39  C   -0.202476
    40  C    0.214776
    41  C   -0.135486
    42  C    0.048361
    43  C   -0.017223
    44  H    0.019949
    45  H    0.000857
    46  H    0.023575
    47  H   -0.020671
    48  H    0.148550
    49  H    0.034564
    50  H    0.048522
    51  H   -0.006313
    52  H    0.019105
    53  H    0.046830
    54  H    0.035462
    55  H   -0.005651
    56  H    0.072464
    57  H    0.024897
    58  H    0.087101
    59  H   -0.003305
    60  H    0.115236
    61  H    0.027064
    62  H    0.029687
    63  H    0.038290
    64  H    0.078460
    65  H    0.062062
    66  H    0.043276
    67  H    0.023017
    68  H    0.025943
    69  H   -0.074163
    70  H    0.035055
    71  H    0.035274
    72  H    0.157671
    73  H    0.054060
    74  H    0.041269
    75  H    0.059235
    76  H    0.057614
    77  H    0.084350
    78  H    0.002721
    79  H    0.023502
 Sum of Mulliken charges =   0.00000

 Dipole moment (field-independent basis, Debye):
    X=              0.9033    Y=              2.5974    Z=              1.5992  Tot=              3.1812
 Quadrupole moment (field-independent basis, Debye-Ang):
   XX=           -216.8353   YY=           -258.0088   ZZ=           -269.5794
   XY=            -14.8476   XZ=             37.9311   YZ=              0.4215

 Normal termination of Gaussian 09 at Sun Jul  7 19:34:09 2019.
