 Gaussian 09, Revision D.01,
 Gaussian 09:  ES64L-G09RevD.01 24-Apr-2013

 --------------------------
 # td=(NStates=1) B3LYP/SVP
 --------------------------

 --
 TD
 --
 Symbolic Z-matrix:
 Charge =  0 Multiplicity = 1

                         Standard orientation:
 ---------------------------------------------------------------------
 Center     Atomic      Atomic             Coordinates (Angstroms)
 Number     Number       Type             X           Y           Z
 ---------------------------------------------------------------------
      1          8           0        5.362356   -0.244891   -3.376422
      2          8           0       -2.688216   -3.328060    3.553198
      3          8           0       -3.212907   -1.188231    3.230090
      4          8           0       -1.511050    7.321466    1.528868
      5          8           0       -0.517491    6.974255   -0.418198
      6          8           0       -2.026539   -3.869217   -0.141694
      7          7           0        2.325923    0.878314    0.650727
      8          7           0        4.451451   -0.674576   -1.296234
      9          7           0       -1.893554    0.812997   -0.414876
     10          7           0       -2.779805   -1.784787   -0.584184
     11          6           0        4.862422   -1.297919   -0.087050
     12          6           0        4.496430   -0.303228    1.186583
     13          6           0        3.003412   -0.097090    1.378380
     14          6           0        2.065198   -0.729315    2.121517
     15          6           0        0.787386   -0.189201    1.744821
     16          6           0        0.939321    0.841116    0.761300
     17          6           0        6.337416   -1.217414   -0.212464
     18          6           0       -0.511653   -0.393557    2.528849
     19          6           0        6.669599   -0.911627   -1.568794
     20          6           0        0.163661    1.899172    0.258955
     21          6           0       -1.088659    1.872972   -0.121958
     22          6           0        5.389484   -0.628706   -2.227876
     23          6           0       -1.862484    2.956180   -0.638081
     24          6           0        2.317939   -1.827509    3.140145
     25          6           0        7.199992   -1.726009    0.851290
     26          6           0       -3.041851    2.417897   -1.211787
     27          6           0       -0.979107   -1.896300    2.511331
     28          6           0       -3.075742    1.059183   -0.972387
     29          6           0       -1.351969    4.347046   -0.756360
     30          6           0        7.912196   -0.862077   -2.232331
     31          6           0       -1.639928    5.111952    0.593203
     32          6           0       -4.265219    3.116914   -1.872021
     33          6           0       -4.031046    0.033065   -1.337957
     34          6           0       -2.353775   -2.097872    3.050967
     35          6           0       -3.886392   -1.342566   -1.172221
     36          6           0        9.160046   -0.892645   -1.640151
     37          6           0       -1.179984    6.543622    0.492356
     38          6           0       -4.869186   -2.410003   -1.468033
     39          6           0       -4.197532   -3.566568   -1.182079
     40          6           0       -2.833157   -3.153371   -0.584976
     41          6           0       -6.123071   -2.178138   -2.142100
     42          6           0       -4.664390   -5.068958   -1.344851
     43          6           0       -7.053262   -2.941236   -2.732078
     44          1           0        4.418079   -2.214780    0.121248
     45          1           0        5.118774    0.535947    1.092158
     46          1           0        4.642046   -0.577330    1.995467
     47          1           0        2.872905    1.748472    0.240010
     48          1           0        3.342727   -0.913729   -1.400693
     49          1           0       -0.297066   -0.126923    3.460492
     50          1           0       -1.302311    0.290487    2.132162
     51          1           0        0.554126    2.946181    0.384970
     52          1           0        3.418260   -1.996449    3.545029
     53          1           0        1.575648   -1.653500    4.029297
     54          1           0        2.011254   -2.690596    2.577450
     55          1           0        6.935196   -2.708510    1.320736
     56          1           0        7.525013   -0.966207    1.449180
     57          1           0        8.174584   -2.166935    0.420164
     58          1           0       -0.993974   -2.279256    1.462247
     59          1           0       -0.330865   -2.787927    3.000751
     60          1           0       -1.753282   -0.045416   -0.006021
     61          1           0       -1.741218    4.872722   -1.539424
     62          1           0       -0.333645    4.373068   -0.910033
     63          1           0        8.026045   -0.525594   -3.258274
     64          1           0       -0.749506    4.765769    1.285086
     65          1           0       -2.514368    5.083077    1.063129
     66          1           0       -4.044791    4.178677   -2.279944
     67          1           0       -5.184446    3.320256   -0.963419
     68          1           0       -4.780399    2.312144   -2.788240
     69          1           0       -5.140858    0.348835   -1.778374
     70          1           0        9.448025   -0.902542   -0.505373
     71          1           0       10.294909   -0.525840   -2.170514
     72          1           0       -3.415618   -3.373859    4.251989
     73          1           0       -6.619481   -1.109700   -1.898325
     74          1           0       -4.507117   -5.247189   -2.439726
     75          1           0       -4.068969   -5.641337   -0.510007
     76          1           0       -5.797732   -4.950680   -1.064703
     77          1           0       -1.359820    8.321853    1.407571
     78          1           0       -7.977053   -2.413067   -2.981477
     79          1           0       -7.198987   -4.033198   -2.924212
 ---------------------------------------------------------------------

 SCF Done:  E(RB3LYP) =  -1947.73063158     A.U. after   16 cycles

 Excitation energies and oscillator strengths:

 Excited State   1:      Singlet-A      2.1363 eV  580.38 nm  f=0.4355  <S**2>=0.000
     154 ->156         0.11726
     155 ->156         0.68696
     155 <-156        -0.11327
 This state for optimization and/or second-order correction.
 Total Energy, E(TD-HF/TD-KS) =  -1947.65212492
 Copying the excited state density for this state as the 1-particle RhoCI density.

 The electronic state is 1-A.
 Alpha  occ. eigenvalues --  -19.18738 -19.15853 -19.12388 -19.09988 -19.09960
 Alpha  occ. eigenvalues --  -19.09076 -14.38300 -14.36428 -14.35783 -14.27398
 Alpha  occ. eigenvalues --  -10.32335 -10.30779 -10.27787 -10.25333 -10.24832
 Alpha  occ. eigenvalues --  -10.24600 -10.24163 -10.23597 -10.23480 -10.23105
 Alpha  occ. eigenvalues --  -10.22388 -10.22368 -10.22319 -10.22211 -10.21890
 Alpha  occ. eigenvalues --  -10.21429 -10.21429 -10.21025 -10.20732 -10.20709
 Alpha  occ. eigenvalues --  -10.20545 -10.20535 -10.20530 -10.20305 -10.20237
 Alpha  occ. eigenvalues --  -10.20151 -10.19997 -10.19858 -10.19619 -10.19616
 Alpha  occ. eigenvalues --  -10.19593 -10.19394 -10.19284  -1.09872  -1.05417
 Alpha  occ. eigenvalues --   -1.03823  -1.02936  -1.00804  -1.00512  -0.97769
 Alpha  occ. eigenvalues --   -0.95750  -0.95351  -0.92059  -0.84064  -0.82661
 Alpha  occ. eigenvalues --   -0.82165  -0.81087  -0.80410  -0.79507  -0.78406
 Alpha  occ. eigenvalues --   -0.77460  -0.75917  -0.75734  -0.74004  -0.72480
 Alpha  occ. eigenvalues --   -0.71382  -0.71178  -0.69918  -0.69307  -0.68181
 Alpha  occ. eigenvalues --   -0.67811  -0.67260  -0.64997  -0.61424  -0.61383
 Alpha  occ. eigenvalues --   -0.60347  -0.58958  -0.58290  -0.57566  -0.56685
 Alpha  occ. eigenvalues --   -0.56499  -0.55657  -0.55017  -0.54345  -0.53164
 Alpha  occ. eigenvalues --   -0.52855  -0.51827  -0.51457  -0.51149  -0.50307
 Alpha  occ. eigenvalues --   -0.49263  -0.48274  -0.48128  -0.47853  -0.47496
 Alpha  occ. eigenvalues --   -0.47427  -0.46884  -0.46212  -0.46100  -0.45622
 Alpha  occ. eigenvalues --   -0.45361  -0.44922  -0.44217  -0.44130  -0.43792
 Alpha  occ. eigenvalues --   -0.43229  -0.42906  -0.42542  -0.42440  -0.42092
 Alpha  occ. eigenvalues --   -0.41961  -0.41860  -0.41570  -0.41338  -0.40951
 Alpha  occ. eigenvalues --   -0.40736  -0.40484  -0.40405  -0.39227  -0.39110
 Alpha  occ. eigenvalues --   -0.38975  -0.38904  -0.38572  -0.38163  -0.38002
 Alpha  occ. eigenvalues --   -0.37704  -0.37416  -0.37038  -0.36928  -0.36329
 Alpha  occ. eigenvalues --   -0.36327  -0.35665  -0.35080  -0.34849  -0.34553
 Alpha  occ. eigenvalues --   -0.33562  -0.33275  -0.32982  -0.32688  -0.31565
 Alpha  occ. eigenvalues --   -0.31379  -0.29303  -0.29066  -0.28227  -0.27191
 Alpha  occ. eigenvalues --   -0.27059  -0.25445  -0.25132  -0.24951  -0.24435
 Alpha  occ. eigenvalues --   -0.24110  -0.23204  -0.23164  -0.22265  -0.19443
 Alpha virt. eigenvalues --   -0.11088  -0.07257  -0.06070  -0.00937  -0.00064
 Alpha virt. eigenvalues --    0.00090   0.00340   0.01068   0.02303   0.02758
 Alpha virt. eigenvalues --    0.02998   0.03844   0.04256   0.04324   0.04405

 Mulliken charges:
               1
     1  O   -0.217043
     2  O   -0.236904
     3  O   -0.288119
     4  O   -0.214102
     5  O   -0.227883
     6  O   -0.151260
     7  N   -0.148688
     8  N   -0.170694
     9  N    0.030600
    10  N   -0.249564
    11  C    0.073788
    12  C    0.413567
    13  C   -0.149026
    14  C   -0.114116
    15  C   -0.144639
    16  C    0.119407
    17  C   -0.165841
    18  C    0.172446
    19  C    0.012006
    20  C   -0.119757
    21  C    0.080511
    22  C    0.122568
    23  C   -0.107737
    24  C    0.047992
    25  C    0.101679
    26  C   -0.094000
    27  C   -0.054079
    28  C    0.104462
    29  C    0.220268
    30  C    0.001799
    31  C    0.017057
    32  C   -0.074146
    33  C   -0.134132
    34  C    0.160308
    35  C    0.041535
    36  C   -0.155261
    37  C    0.099984
    38  C    0.096778
    39  C   -0.262915
    40  C    0.112788
    41  C   -0.044029
    42  C    0.033271
    43  C   -0.086678
    44  H    0.004544
    45  H   -0.039903
    46  H   -0.141915
    47  H    0.152678
    48  H    0.173791
    49  H   -0.026177
    50  H    0.021851
    51  H    0.011786
    52  H    0.038275
    53  H    0.042464
    54  H    0.040644
    55  H    0.029286
    56  H    0.011059
    57  H    0.022640
    58  H    0.070605
    59  H    0.046168
    60  H    0.095741
    61  H   -0.016848
    62  H   -0.017637
    63  H    0.022300
    64  H    0.051827
    65  H   -0.001305
    66  H    0.044155
    67  H    0.060269
    68  H    0.070214
    69  H    0.018379
    70  H    0.038242
    71  H    0.052181
    72  H    0.210844
    73  H    0.030859
    74  H    0.057349
    75  H    0.065895
    76  H    0.048076
    77  H    0.216200
    78  H    0.017774
    79  H    0.025489
 Sum of Mulliken charges =   0.00000

 Dipole moment (field-independent basis, Debye):
    X=              1.4246    Y=              2.8972    Z=              5.2898  Tot=              6.1972
 Quadrupole moment (field-independent basis, Debye-Ang):
   XX=           -227.7023   YY=           -236.3061   ZZ=           -263.0893
   XY=            -11.7174   XZ=             33.2010   YZ=              3.2301

 Normal termination of Gaussian 09 at Tue Jul  9 21:15:37 2019.
