 Gaussian 09, Revision D.01,
 Gaussian 09:  ES64L-G09RevD.01 24-Apr-2013

 --------------------------
 # td=(NStates=1) B3LYP/SVP
 --------------------------

 --
 TD
 --
 Symbolic Z-matrix:
 Charge =  0 Multiplicity = 1

                         Standard orientation:
 ---------------------------------------------------------------------
 Center     Atomic      Atomic             Coordinates (Angstroms)
 Number     Number       Type             X           Y           Z
 ---------------------------------------------------------------------
      1          8           0        5.247507   -0.269581   -3.341671
      2          8           0       -2.977499   -3.042732    3.172573
      3          8           0       -3.234929   -0.818220    3.246716
      4          8           0       -1.571301    7.190815    1.422514
      5          8           0       -0.571170    6.969261   -0.547658
      6          8           0       -1.854122   -4.076343   -0.151801
      7          7           0        2.456932    1.029518    0.781260
      8          7           0        4.317295   -0.706286   -1.226168
      9          7           0       -1.861161    0.710390   -0.535990
     10          7           0       -2.659498   -1.880920   -0.481176
     11          6           0        4.807708   -1.141960    0.071314
     12          6           0        4.442095   -0.264174    1.238170
     13          6           0        2.968170   -0.001502    1.436868
     14          6           0        2.029465   -0.638495    2.167210
     15          6           0        0.749328   -0.071670    1.876895
     16          6           0        0.986278    0.940809    0.999802
     17          6           0        6.328047   -1.356206   -0.230281
     18          6           0       -0.570205   -0.239554    2.536509
     19          6           0        6.623398   -0.930684   -1.422487
     20          6           0        0.199115    1.971843    0.273049
     21          6           0       -1.087004    1.783263   -0.409009
     22          6           0        5.428280   -0.525316   -2.198622
     23          6           0       -1.933653    2.986571   -0.807974
     24          6           0        2.287878   -1.779872    3.078402
     25          6           0        7.345875   -1.734233    0.841329
     26          6           0       -3.136583    2.427826   -1.214584
     27          6           0       -1.077785   -1.662110    2.584185
     28          6           0       -3.017178    0.948842   -1.012647
     29          6           0       -1.493416    4.292023   -0.873536
     30          6           0        7.951487   -0.850305   -2.135454
     31          6           0       -1.839102    5.105323    0.354543
     32          6           0       -4.227667    3.054218   -1.900519
     33          6           0       -3.984224   -0.047483   -1.281953
     34          6           0       -2.509461   -1.812523    3.046896
     35          6           0       -3.763270   -1.467825   -1.093048
     36          6           0        9.177852   -0.822216   -1.634507
     37          6           0       -1.202009    6.475018    0.305927
     38          6           0       -4.737590   -2.588510   -1.415544
     39          6           0       -3.988985   -3.709072   -1.008822
     40          6           0       -2.680078   -3.272153   -0.518390
     41          6           0       -6.097665   -2.368023   -1.963118
     42          6           0       -4.531182   -5.057162   -1.170349
     43          6           0       -6.770362   -3.231254   -2.683284
     44          1           0        4.318364   -2.190412    0.182585
     45          1           0        5.090773    0.532554    1.218817
     46          1           0        4.770230   -0.676413    2.300943
     47          1           0        2.805590    1.277189   -0.085081
     48          1           0        3.247018   -1.251490   -1.513695
     49          1           0       -0.310905   -0.129267    3.657148
     50          1           0       -1.405210    0.219630    2.214709
     51          1           0        0.734587    3.183230    0.403252
     52          1           0        3.305676   -1.744201    3.410268
     53          1           0        1.882602   -1.552990    4.131608
     54          1           0        1.943201   -2.657981    2.610199
     55          1           0        6.942270   -2.331980    1.831901
     56          1           0        8.018108   -0.706920    1.155998
     57          1           0        8.176565   -2.354968    0.430947
     58          1           0       -1.297391   -2.041602    1.643829
     59          1           0       -0.470216   -2.304098    3.117818
     60          1           0       -1.586698   -0.376465   -0.298006
     61          1           0       -1.964357    4.920049   -1.682580
     62          1           0       -0.585540    4.575783   -1.219808
     63          1           0        7.772894   -0.710158   -3.201786
     64          1           0       -1.547427    4.623405    1.307595
     65          1           0       -2.944326    5.254969    0.599907
     66          1           0       -4.130732    4.064457   -2.193678
     67          1           0       -5.269448    3.133838   -1.265642
     68          1           0       -4.700387    2.490783   -2.818014
     69          1           0       -4.828002    0.212294   -1.797813
     70          1           0        9.281707   -1.191666   -0.584406
     71          1           0       10.020102   -0.685376   -2.208683
     72          1           0       -3.967771   -3.032208    3.279265
     73          1           0       -6.265863   -1.338269   -1.659504
     74          1           0       -4.212189   -5.599148   -2.103040
     75          1           0       -4.077038   -5.564173   -0.266322
     76          1           0       -5.706316   -4.963494   -1.083237
     77          1           0       -0.904840    7.878963    1.264999
     78          1           0       -7.787427   -2.819012   -2.976179
     79          1           0       -6.495807   -4.319985   -2.996997
 ---------------------------------------------------------------------

 SCF Done:  E(RB3LYP) =  -1947.81668457     A.U. after   17 cycles

 Excitation energies and oscillator strengths:

 Excited State   1:      Singlet-A      2.1777 eV  569.33 nm  f=0.4383  <S**2>=0.000
     153 ->156         0.10868
     154 ->156         0.10857
     155 ->156         0.68939
     155 <-156        -0.10678
 This state for optimization and/or second-order correction.
 Total Energy, E(TD-HF/TD-KS) =  -1947.73665495
 Copying the excited state density for this state as the 1-particle RhoCI density.

 The electronic state is 1-A.
 Alpha  occ. eigenvalues --  -19.18005 -19.17871 -19.14690 -19.12258 -19.10237
 Alpha  occ. eigenvalues --  -19.10180 -14.37677 -14.36143 -14.35524 -14.29336
 Alpha  occ. eigenvalues --  -10.32609 -10.30645 -10.29797 -10.26211 -10.25272
 Alpha  occ. eigenvalues --  -10.25121 -10.24715 -10.24699 -10.23928 -10.23631
 Alpha  occ. eigenvalues --  -10.22686 -10.22553 -10.22138 -10.21664 -10.21323
 Alpha  occ. eigenvalues --  -10.21190 -10.21013 -10.20973 -10.20781 -10.20693
 Alpha  occ. eigenvalues --  -10.20617 -10.20519 -10.19728 -10.19567 -10.19555
 Alpha  occ. eigenvalues --  -10.19533 -10.19293 -10.19056 -10.18999 -10.18744
 Alpha  occ. eigenvalues --  -10.18481 -10.18301 -10.17676  -1.11983  -1.08634
 Alpha  occ. eigenvalues --   -1.04987  -1.02584  -1.01927  -1.01425  -0.97979
 Alpha  occ. eigenvalues --   -0.97402  -0.92608  -0.92389  -0.84525  -0.82705
 Alpha  occ. eigenvalues --   -0.82116  -0.80577  -0.80351  -0.79293  -0.78389
 Alpha  occ. eigenvalues --   -0.77909  -0.76367  -0.75931  -0.74677  -0.72843
 Alpha  occ. eigenvalues --   -0.71620  -0.71082  -0.69433  -0.68561  -0.68448
 Alpha  occ. eigenvalues --   -0.67490  -0.65332  -0.63249  -0.61342  -0.60746
 Alpha  occ. eigenvalues --   -0.59561  -0.59276  -0.58280  -0.57470  -0.57440
 Alpha  occ. eigenvalues --   -0.56741  -0.56087  -0.55197  -0.53777  -0.53362
 Alpha  occ. eigenvalues --   -0.51962  -0.51701  -0.50900  -0.50532  -0.50372
 Alpha  occ. eigenvalues --   -0.49658  -0.49030  -0.48595  -0.48021  -0.47360
 Alpha  occ. eigenvalues --   -0.47233  -0.46712  -0.46421  -0.46065  -0.46028
 Alpha  occ. eigenvalues --   -0.45896  -0.45744  -0.45109  -0.44819  -0.44690
 Alpha  occ. eigenvalues --   -0.43568  -0.43491  -0.43191  -0.42700  -0.42493
 Alpha  occ. eigenvalues --   -0.42196  -0.41725  -0.41706  -0.41620  -0.41565
 Alpha  occ. eigenvalues --   -0.40955  -0.40870  -0.40718  -0.40494  -0.40323
 Alpha  occ. eigenvalues --   -0.39770  -0.39656  -0.39297  -0.38974  -0.38620
 Alpha  occ. eigenvalues --   -0.38092  -0.37416  -0.37189  -0.36947  -0.36688
 Alpha  occ. eigenvalues --   -0.36002  -0.35455  -0.34731  -0.34435  -0.34166
 Alpha  occ. eigenvalues --   -0.34000  -0.33956  -0.33528  -0.32747  -0.31685
 Alpha  occ. eigenvalues --   -0.30924  -0.30365  -0.30254  -0.28551  -0.28142
 Alpha  occ. eigenvalues --   -0.27452  -0.26102  -0.25862  -0.25736  -0.25523
 Alpha  occ. eigenvalues --   -0.25275  -0.23884  -0.23420  -0.22358  -0.19132
 Alpha virt. eigenvalues --   -0.10600  -0.06348  -0.05972  -0.01455  -0.00545
 Alpha virt. eigenvalues --   -0.00383   0.00439   0.01360   0.02146   0.02311
 Alpha virt. eigenvalues --    0.02758   0.04431   0.04737   0.04801   0.05275

 Mulliken charges:
               1
     1  O   -0.156972
     2  O   -0.168736
     3  O   -0.283876
     4  O   -0.194290
     5  O   -0.184738
     6  O   -0.195856
     7  N   -0.058032
     8  N   -0.359885
     9  N    0.009234
    10  N   -0.308058
    11  C    0.076635
    12  C    0.221060
    13  C   -0.088073
    14  C   -0.186511
    15  C   -0.041396
    16  C    0.003072
    17  C   -0.143274
    18  C    0.173601
    19  C   -0.064597
    20  C   -0.138373
    21  C    0.063283
    22  C    0.193056
    23  C   -0.025172
    24  C    0.149814
    25  C   -0.049580
    26  C   -0.046803
    27  C    0.042707
    28  C    0.052960
    29  C    0.099645
    30  C    0.010679
    31  C   -0.047536
    32  C    0.019462
    33  C   -0.068882
    34  C    0.103756
    35  C    0.059672
    36  C    0.015412
    37  C    0.118590
    38  C   -0.009302
    39  C   -0.204382
    40  C    0.158277
    41  C    0.020784
    42  C    0.021762
    43  C   -0.045205
    44  H    0.018646
    45  H   -0.042326
    46  H    0.009398
    47  H    0.099427
    48  H    0.194602
    49  H    0.016587
    50  H   -0.023217
    51  H    0.078235
    52  H   -0.026768
    53  H    0.009655
    54  H    0.045431
    55  H    0.054890
    56  H    0.066344
    57  H    0.054186
    58  H    0.019650
    59  H   -0.000012
    60  H    0.209832
    61  H    0.001357
    62  H   -0.021198
    63  H    0.005004
    64  H    0.038951
    65  H    0.052352
    66  H    0.000244
    67  H    0.026713
    68  H    0.041155
    69  H   -0.072104
    70  H    0.006763
    71  H    0.007987
    72  H    0.200138
    73  H    0.006026
    74  H    0.049092
    75  H    0.031326
    76  H    0.040790
    77  H    0.159113
    78  H    0.032000
    79  H    0.065800
 Sum of Mulliken charges =   0.00000

 Dipole moment (field-independent basis, Debye):
    X=              1.6264    Y=              0.9788    Z=              1.8546  Tot=              2.6539
 Quadrupole moment (field-independent basis, Debye-Ang):
   XX=           -211.6737   YY=           -253.3878   ZZ=           -263.5750
   XY=             -6.4857   XZ=             30.7670   YZ=              0.7147

 Normal termination of Gaussian 09 at Tue Jul  9 00:05:06 2019.
