 Gaussian 09, Revision D.01,
 Gaussian 09:  ES64L-G09RevD.01 24-Apr-2013

 --------------------------
 # td=(NStates=1) B3LYP/SVP
 --------------------------

 --
 TD
 --
 Symbolic Z-matrix:
 Charge =  0 Multiplicity = 1

                         Standard orientation:
 ---------------------------------------------------------------------
 Center     Atomic      Atomic             Coordinates (Angstroms)
 Number     Number       Type             X           Y           Z
 ---------------------------------------------------------------------
      1          8           0        5.075880   -0.205232   -3.267249
      2          8           0       -2.879994   -3.039333    3.286544
      3          8           0       -3.308845   -0.867450    3.047978
      4          8           0       -1.399166    7.157264    1.583716
      5          8           0       -0.473384    6.959429   -0.521422
      6          8           0       -1.918288   -4.078940   -0.029017
      7          7           0        2.441583    0.943040    0.614022
      8          7           0        4.322987   -0.707624   -1.130439
      9          7           0       -1.855117    0.704324   -0.449471
     10          7           0       -2.595386   -1.831992   -0.454121
     11          6           0        4.718267   -1.252548    0.116390
     12          6           0        4.549448   -0.262330    1.244384
     13          6           0        3.035873   -0.018987    1.381808
     14          6           0        2.034512   -0.648107    2.107857
     15          6           0        0.724615   -0.024614    1.817377
     16          6           0        1.061491    0.968465    0.798205
     17          6           0        6.226273   -1.385918   -0.177915
     18          6           0       -0.553358   -0.229555    2.595281
     19          6           0        6.619722   -0.985083   -1.494290
     20          6           0        0.206461    1.915325    0.121607
     21          6           0       -1.053464    1.794639   -0.285690
     22          6           0        5.341634   -0.643776   -2.179946
     23          6           0       -1.844154    2.927869   -0.900878
     24          6           0        2.236651   -1.741685    3.150757
     25          6           0        7.161526   -1.934753    0.884042
     26          6           0       -3.065524    2.421885   -1.241475
     27          6           0       -1.156447   -1.689306    2.486994
     28          6           0       -3.090941    0.936620   -1.030614
     29          6           0       -1.453509    4.421892   -0.845908
     30          6           0        7.830282   -0.841427   -2.232503
     31          6           0       -1.661699    5.100142    0.501627
     32          6           0       -4.212108    3.123087   -2.054759
     33          6           0       -3.956453   -0.036087   -1.299900
     34          6           0       -2.551046   -1.762435    3.004723
     35          6           0       -3.723921   -1.399591   -1.054828
     36          6           0        9.094884   -0.957391   -1.715428
     37          6           0       -1.109450    6.485213    0.448442
     38          6           0       -4.688643   -2.508196   -1.473636
     39          6           0       -4.137375   -3.552603   -1.111830
     40          6           0       -2.787925   -3.242634   -0.455430
     41          6           0       -6.060329   -2.271006   -1.987148
     42          6           0       -4.442030   -5.007467   -1.082625
     43          6           0       -6.886464   -3.181485   -2.602590
     44          1           0        4.181850   -2.165369    0.349254
     45          1           0        4.865806    0.729435    0.995868
     46          1           0        4.751633   -0.747332    2.313692
     47          1           0        3.001929    1.329593   -0.154304
     48          1           0        3.336008   -0.843972   -1.507192
     49          1           0       -0.390423   -0.011305    3.712760
     50          1           0       -1.213960    0.524787    2.191917
     51          1           0        0.708469    2.886552    0.146484
     52          1           0        3.342085   -1.938947    3.188725
     53          1           0        1.931731   -1.260697    4.303284
     54          1           0        1.608820   -2.571398    2.851523
     55          1           0        6.695125   -2.524769    1.599773
     56          1           0        7.574684   -1.164979    1.460150
     57          1           0        8.113732   -2.312220    0.503139
     58          1           0       -1.192069   -1.946830    1.507796
     59          1           0       -0.428445   -2.404199    3.084589
     60          1           0       -1.510048   -0.292689   -0.145089
     61          1           0       -2.025869    5.107743   -1.572053
     62          1           0       -0.337434    4.352928   -0.967343
     63          1           0        7.674871   -0.545410   -3.213669
     64          1           0       -1.214248    4.405832    1.125202
     65          1           0       -2.870831    5.223908    0.865779
     66          1           0       -3.783408    4.301003   -2.159519
     67          1           0       -5.096821    3.112643   -1.579135
     68          1           0       -4.500789    2.511023   -2.955786
     69          1           0       -4.929868    0.121339   -1.950805
     70          1           0        9.277643   -1.180788   -0.607075
     71          1           0        9.847450   -0.898512   -2.557234
     72          1           0       -3.836377   -3.026056    3.485817
     73          1           0       -6.639121   -1.253161   -2.280505
     74          1           0       -4.485585   -5.364457   -2.154483
     75          1           0       -3.423901   -5.691637   -0.614970
     76          1           0       -5.400487   -5.288444   -0.473523
     77          1           0       -0.711153    7.920090    1.451745
     78          1           0       -7.887608   -2.974044   -3.079134
     79          1           0       -6.442272   -4.388699   -2.622633
 ---------------------------------------------------------------------

 SCF Done:  E(RB3LYP) =  -1947.84001026     A.U. after   16 cycles

 Excitation energies and oscillator strengths:

 Excited State   1:      Singlet-A      2.2110 eV  560.77 nm  f=0.4354  <S**2>=0.000
     155 ->156         0.70339
 This state for optimization and/or second-order correction.
 Total Energy, E(TD-HF/TD-KS) =  -1947.75875905
 Copying the excited state density for this state as the 1-particle RhoCI density.

 The electronic state is 1-A.
 Alpha  occ. eigenvalues --  -19.20268 -19.16574 -19.14001 -19.11382 -19.11328
 Alpha  occ. eigenvalues --  -19.11072 -14.37971 -14.36712 -14.34539 -14.30544
 Alpha  occ. eigenvalues --  -10.33404 -10.30013 -10.29018 -10.27341 -10.25109
 Alpha  occ. eigenvalues --  -10.24985 -10.24191 -10.24182 -10.23775 -10.23163
 Alpha  occ. eigenvalues --  -10.22582 -10.22319 -10.22171 -10.22091 -10.22076
 Alpha  occ. eigenvalues --  -10.21681 -10.21469 -10.21327 -10.21172 -10.21156
 Alpha  occ. eigenvalues --  -10.21121 -10.21063 -10.20979 -10.20535 -10.20450
 Alpha  occ. eigenvalues --  -10.20237 -10.20143 -10.19643 -10.19631 -10.19473
 Alpha  occ. eigenvalues --  -10.19265 -10.18603 -10.18476  -1.10115  -1.09236
 Alpha  occ. eigenvalues --   -1.03639  -1.00460  -1.00233  -0.99118  -0.97959
 Alpha  occ. eigenvalues --   -0.97586  -0.93649  -0.92325  -0.82866  -0.81878
 Alpha  occ. eigenvalues --   -0.81748  -0.81464  -0.79995  -0.79649  -0.77865
 Alpha  occ. eigenvalues --   -0.77496  -0.76268  -0.75723  -0.74874  -0.72184
 Alpha  occ. eigenvalues --   -0.71768  -0.70363  -0.69596  -0.68419  -0.67437
 Alpha  occ. eigenvalues --   -0.66990  -0.65963  -0.63802  -0.61523  -0.59926
 Alpha  occ. eigenvalues --   -0.58979  -0.58585  -0.57784  -0.56916  -0.56253
 Alpha  occ. eigenvalues --   -0.55738  -0.54975  -0.54543  -0.54134  -0.53724
 Alpha  occ. eigenvalues --   -0.52274  -0.51545  -0.51105  -0.50606  -0.50153
 Alpha  occ. eigenvalues --   -0.49087  -0.48973  -0.48351  -0.48060  -0.47555
 Alpha  occ. eigenvalues --   -0.47251  -0.46903  -0.46812  -0.46174  -0.45697
 Alpha  occ. eigenvalues --   -0.45453  -0.44703  -0.44420  -0.44213  -0.43843
 Alpha  occ. eigenvalues --   -0.43557  -0.43193  -0.43062  -0.42640  -0.42354
 Alpha  occ. eigenvalues --   -0.41756  -0.41699  -0.41256  -0.41133  -0.40826
 Alpha  occ. eigenvalues --   -0.40490  -0.40404  -0.40014  -0.39827  -0.39320
 Alpha  occ. eigenvalues --   -0.39240  -0.39099  -0.38762  -0.38543  -0.37802
 Alpha  occ. eigenvalues --   -0.37752  -0.37403  -0.37007  -0.36585  -0.36266
 Alpha  occ. eigenvalues --   -0.36191  -0.35358  -0.35233  -0.34916  -0.34226
 Alpha  occ. eigenvalues --   -0.34006  -0.33116  -0.32548  -0.32357  -0.32234
 Alpha  occ. eigenvalues --   -0.32011  -0.31594  -0.29391  -0.28819  -0.28240
 Alpha  occ. eigenvalues --   -0.27136  -0.26791  -0.26231  -0.26002  -0.24957
 Alpha  occ. eigenvalues --   -0.24707  -0.23939  -0.23563  -0.23403  -0.19332
 Alpha virt. eigenvalues --   -0.10547  -0.07346  -0.05561  -0.02386  -0.01349
 Alpha virt. eigenvalues --    0.00104   0.01571   0.02531   0.02586   0.02724
 Alpha virt. eigenvalues --    0.03497   0.03720   0.04521   0.04880   0.04928

 Mulliken charges:
               1
     1  O   -0.194245
     2  O   -0.180222
     3  O   -0.192612
     4  O   -0.194141
     5  O   -0.264705
     6  O   -0.253538
     7  N   -0.070573
     8  N   -0.292425
     9  N   -0.131990
    10  N   -0.285648
    11  C    0.139931
    12  C    0.228551
    13  C   -0.158935
    14  C   -0.165164
    15  C   -0.101177
    16  C    0.009543
    17  C   -0.194364
    18  C    0.086273
    19  C   -0.033510
    20  C   -0.105638
    21  C    0.134331
    22  C    0.159087
    23  C   -0.100948
    24  C    0.043440
    25  C    0.160898
    26  C   -0.116983
    27  C    0.020702
    28  C    0.201016
    29  C    0.045781
    30  C    0.003617
    31  C   -0.022545
    32  C    0.107639
    33  C   -0.159053
    34  C    0.105312
    35  C    0.037622
    36  C   -0.032429
    37  C    0.177316
    38  C    0.106431
    39  C   -0.153385
    40  C    0.186789
    41  C   -0.069104
    42  C   -0.033587
    43  C   -0.124305
    44  H    0.016223
    45  H   -0.017983
    46  H    0.038095
    47  H    0.121180
    48  H    0.144006
    49  H    0.019577
    50  H    0.001692
    51  H    0.001091
    52  H   -0.003590
    53  H    0.041285
    54  H    0.053730
    55  H   -0.003145
    56  H    0.004879
    57  H    0.021387
    58  H    0.027688
    59  H    0.043689
    60  H    0.192645
    61  H    0.039702
    62  H    0.030961
    63  H   -0.016660
    64  H    0.021615
    65  H    0.069984
    66  H    0.043731
    67  H   -0.014706
    68  H    0.032220
    69  H    0.003953
    70  H    0.036625
    71  H    0.043455
    72  H    0.170995
    73  H    0.038540
    74  H    0.044809
    75  H    0.074038
    76  H    0.052989
    77  H    0.206010
    78  H    0.051354
    79  H    0.044886
 Sum of Mulliken charges =   0.00000

 Dipole moment (field-independent basis, Debye):
    X=              1.1281    Y=              1.8588    Z=              2.6747  Tot=              3.4470
 Quadrupole moment (field-independent basis, Debye-Ang):
   XX=           -209.2880   YY=           -255.2687   ZZ=           -262.6484
   XY=             -6.5055   XZ=             30.6509   YZ=              6.9792

 Normal termination of Gaussian 09 at Mon Jul  8 23:28:37 2019.
