 Gaussian 09, Revision D.01,
 Gaussian 09:  ES64L-G09RevD.01 24-Apr-2013

 --------------------------
 # td=(NStates=1) B3LYP/SVP
 --------------------------

 --
 TD
 --
 Symbolic Z-matrix:
 Charge =  0 Multiplicity = 1

                         Standard orientation:
 ---------------------------------------------------------------------
 Center     Atomic      Atomic             Coordinates (Angstroms)
 Number     Number       Type             X           Y           Z
 ---------------------------------------------------------------------
      1          8           0        5.238095   -0.236104   -3.381557
      2          8           0       -3.020123   -2.972119    3.405958
      3          8           0       -3.351118   -0.743954    2.898041
      4          8           0       -1.111663    7.218494    1.469294
      5          8           0       -0.320627    6.956717   -0.671424
      6          8           0       -1.975600   -4.007116   -0.150577
      7          7           0        2.328664    0.873784    0.590664
      8          7           0        4.405631   -0.627785   -1.174568
      9          7           0       -1.913132    0.697416   -0.319847
     10          7           0       -2.707589   -1.826620   -0.485183
     11          6           0        4.774688   -1.225787   -0.068563
     12          6           0        4.515333   -0.388023    1.229848
     13          6           0        2.996867   -0.109171    1.294444
     14          6           0        2.048194   -0.700222    2.168988
     15          6           0        0.719787   -0.059923    1.899148
     16          6           0        1.031006    0.901901    0.838143
     17          6           0        6.336824   -1.392909   -0.187813
     18          6           0       -0.578180   -0.277974    2.577244
     19          6           0        6.575745   -1.071883   -1.344675
     20          6           0        0.247727    1.900309    0.128833
     21          6           0       -1.013914    1.783216   -0.305044
     22          6           0        5.402402   -0.636013   -2.197142
     23          6           0       -1.911742    2.943527   -0.861834
     24          6           0        2.229925   -1.757081    3.155613
     25          6           0        7.167387   -2.042356    0.874787
     26          6           0       -3.094649    2.374682   -1.076646
     27          6           0       -1.186468   -1.702556    2.572796
     28          6           0       -3.131541    0.951720   -0.927060
     29          6           0       -1.328041    4.309375   -0.833270
     30          6           0        7.935691   -0.986648   -2.011330
     31          6           0       -1.417306    5.079722    0.412802
     32          6           0       -4.230676    3.137222   -1.756772
     33          6           0       -4.121428    0.083690   -1.280498
     34          6           0       -2.637724   -1.788531    2.924778
     35          6           0       -3.866354   -1.312276   -1.035637
     36          6           0        9.124397   -0.987777   -1.564913
     37          6           0       -0.879632    6.524724    0.385960
     38          6           0       -4.764146   -2.439987   -1.388685
     39          6           0       -4.139466   -3.598819   -1.164728
     40          6           0       -2.819859   -3.159593   -0.569402
     41          6           0       -6.134010   -2.138623   -1.999005
     42          6           0       -4.599534   -5.066725   -1.304218
     43          6           0       -6.865400   -2.957945   -2.563931
     44          1           0        4.308414   -2.181982    0.081087
     45          1           0        4.949340    0.704630    0.971695
     46          1           0        4.989023   -0.836212    2.107987
     47          1           0        2.655398    1.181279   -0.323769
     48          1           0        3.281412   -1.181137   -1.349022
     49          1           0       -0.488045    0.073494    3.817789
     50          1           0       -1.307959    0.627904    2.298103
     51          1           0        0.741631    2.813821   -0.162589
     52          1           0        3.312574   -1.703046    3.649935
     53          1           0        1.545790   -1.497916    4.028522
     54          1           0        2.039829   -2.757495    2.634437
     55          1           0        6.562388   -2.845914    1.553599
     56          1           0        7.502718   -1.216519    1.437447
     57          1           0        7.972130   -2.500798    0.618265
     58          1           0       -1.251288   -1.853226    1.384768
     59          1           0       -0.737064   -2.532993    3.035270
     60          1           0       -1.775652   -0.487111   -0.363139
     61          1           0       -1.877786    4.915602   -1.597552
     62          1           0       -0.339341    4.434677   -1.237312
     63          1           0        7.799881   -0.881436   -3.016619
     64          1           0       -1.006246    4.569017    1.278697
     65          1           0       -2.477168    5.148950    0.878511
     66          1           0       -4.075029    4.078622   -1.840706
     67          1           0       -5.166139    3.172869   -1.205979
     68          1           0       -4.715849    2.620899   -2.628780
     69          1           0       -4.936621    0.369851   -1.621436
     70          1           0        9.616586   -1.115280   -0.461600
     71          1           0        9.906119   -1.041456   -2.339978
     72          1           0       -4.027015   -2.904274    3.527569
     73          1           0       -6.468702   -1.223729   -1.852060
     74          1           0       -4.252329   -5.356624   -2.309398
     75          1           0       -4.134212   -5.678781   -0.396686
     76          1           0       -5.686471   -5.199778   -1.213636
     77          1           0       -0.652584    8.223582    1.356356
     78          1           0       -7.955569   -2.678523   -2.847038
     79          1           0       -6.634302   -3.941472   -2.861383
 ---------------------------------------------------------------------

 SCF Done:  E(RB3LYP) =  -1947.74039516     A.U. after   16 cycles

 Excitation energies and oscillator strengths:

 Excited State   1:      Singlet-A      2.1180 eV  585.38 nm  f=0.3566  <S**2>=0.000
     155 ->156         0.69986
 This state for optimization and/or second-order correction.
 Total Energy, E(TD-HF/TD-KS) =  -1947.66255952
 Copying the excited state density for this state as the 1-particle RhoCI density.

 The electronic state is 1-A.
 Alpha  occ. eigenvalues --  -19.21393 -19.18363 -19.12543 -19.12372 -19.09913
 Alpha  occ. eigenvalues --  -19.09542 -14.37771 -14.36748 -14.35568 -14.30572
 Alpha  occ. eigenvalues --  -10.33220 -10.30557 -10.30352 -10.26461 -10.24629
 Alpha  occ. eigenvalues --  -10.24458 -10.23895 -10.23554 -10.22564 -10.22532
 Alpha  occ. eigenvalues --  -10.22373 -10.21657 -10.21247 -10.21171 -10.21012
 Alpha  occ. eigenvalues --  -10.20950 -10.20742 -10.20475 -10.20286 -10.20273
 Alpha  occ. eigenvalues --  -10.20181 -10.19978 -10.19883 -10.19836 -10.19676
 Alpha  occ. eigenvalues --  -10.19528 -10.18926 -10.18875 -10.18786 -10.18719
 Alpha  occ. eigenvalues --  -10.18429 -10.18419 -10.18242  -1.10139  -1.07838
 Alpha  occ. eigenvalues --   -1.02165  -0.99364  -0.98933  -0.98568  -0.96851
 Alpha  occ. eigenvalues --   -0.96459  -0.96230  -0.92154  -0.83868  -0.82777
 Alpha  occ. eigenvalues --   -0.81568  -0.81365  -0.80096  -0.78991  -0.78178
 Alpha  occ. eigenvalues --   -0.77719  -0.76426  -0.76134  -0.75510  -0.73155
 Alpha  occ. eigenvalues --   -0.72002  -0.70731  -0.69865  -0.68956  -0.68200
 Alpha  occ. eigenvalues --   -0.66265  -0.65896  -0.64403  -0.61101  -0.60884
 Alpha  occ. eigenvalues --   -0.60523  -0.59438  -0.58661  -0.57904  -0.56238
 Alpha  occ. eigenvalues --   -0.55310  -0.54860  -0.54468  -0.54059  -0.53717
 Alpha  occ. eigenvalues --   -0.52713  -0.52195  -0.50965  -0.50351  -0.49177
 Alpha  occ. eigenvalues --   -0.48824  -0.48301  -0.48142  -0.47782  -0.47514
 Alpha  occ. eigenvalues --   -0.47254  -0.46828  -0.46489  -0.45868  -0.45481
 Alpha  occ. eigenvalues --   -0.45237  -0.45009  -0.44650  -0.44176  -0.44003
 Alpha  occ. eigenvalues --   -0.43784  -0.43604  -0.43513  -0.43086  -0.42730
 Alpha  occ. eigenvalues --   -0.42643  -0.42329  -0.41848  -0.41318  -0.40940
 Alpha  occ. eigenvalues --   -0.40819  -0.40475  -0.40298  -0.40047  -0.39729
 Alpha  occ. eigenvalues --   -0.39496  -0.39203  -0.38504  -0.38298  -0.38214
 Alpha  occ. eigenvalues --   -0.37690  -0.37238  -0.36770  -0.36639  -0.36398
 Alpha  occ. eigenvalues --   -0.35790  -0.35629  -0.34531  -0.33547  -0.33260
 Alpha  occ. eigenvalues --   -0.32978  -0.32939  -0.32082  -0.31972  -0.31568
 Alpha  occ. eigenvalues --   -0.30703  -0.29339  -0.28772  -0.28010  -0.27788
 Alpha  occ. eigenvalues --   -0.27623  -0.27106  -0.26113  -0.25866  -0.25172
 Alpha  occ. eigenvalues --   -0.24249  -0.23785  -0.23421  -0.23243  -0.19293
 Alpha virt. eigenvalues --   -0.10798  -0.05478  -0.05124  -0.02216  -0.00865
 Alpha virt. eigenvalues --   -0.00466   0.00425   0.01176   0.01357   0.01834
 Alpha virt. eigenvalues --    0.02984   0.03978   0.04712   0.04964   0.05664

 Mulliken charges:
               1
     1  O   -0.229411
     2  O   -0.178080
     3  O   -0.296549
     4  O   -0.201056
     5  O   -0.295232
     6  O   -0.258972
     7  N   -0.014151
     8  N   -0.217235
     9  N   -0.194531
    10  N   -0.279223
    11  C   -0.011863
    12  C    0.173324
    13  C   -0.109066
    14  C   -0.155283
    15  C   -0.039047
    16  C    0.039280
    17  C   -0.187746
    18  C   -0.044811
    19  C   -0.072111
    20  C   -0.100522
    21  C    0.103608
    22  C    0.219963
    23  C   -0.056565
    24  C    0.031487
    25  C    0.185923
    26  C   -0.146518
    27  C    0.040680
    28  C    0.176066
    29  C    0.131405
    30  C    0.089328
    31  C   -0.020777
    32  C    0.203608
    33  C    0.021101
    34  C    0.125021
    35  C    0.106805
    36  C   -0.082524
    37  C    0.162482
    38  C    0.030499
    39  C   -0.216039
    40  C    0.130729
    41  C    0.102808
    42  C    0.066529
    43  C   -0.025982
    44  H    0.003448
    45  H    0.010837
    46  H    0.005042
    47  H    0.126862
    48  H    0.197177
    49  H    0.009708
    50  H    0.059077
    51  H   -0.012087
    52  H    0.015645
    53  H    0.035377
    54  H    0.059755
    55  H    0.043679
    56  H    0.018456
    57  H   -0.035780
    58  H    0.094149
    59  H    0.008416
    60  H    0.230128
    61  H    0.006435
    62  H    0.013065
    63  H   -0.026574
    64  H    0.022594
    65  H    0.035349
    66  H   -0.056657
    67  H   -0.017794
    68  H    0.017845
    69  H   -0.161528
    70  H    0.034747
    71  H    0.024738
    72  H    0.202192
    73  H   -0.071691
    74  H    0.042800
    75  H    0.057322
    76  H    0.025304
    77  H    0.255064
    78  H    0.023398
    79  H   -0.003848
 Sum of Mulliken charges =   0.00000

 Dipole moment (field-independent basis, Debye):
    X=              0.2277    Y=              1.5290    Z=              2.8740  Tot=              3.2633
 Quadrupole moment (field-independent basis, Debye-Ang):
   XX=           -211.1077   YY=           -237.3049   ZZ=           -265.7798
   XY=            -11.2464   XZ=             30.2098   YZ=             10.1620

 Normal termination of Gaussian 09 at Mon Jul  8 03:02:58 2019.
