 Gaussian 09, Revision D.01,
 Gaussian 09:  ES64L-G09RevD.01 24-Apr-2013

 --------------------------
 # td=(NStates=1) B3LYP/SVP
 --------------------------

 --
 TD
 --
 Symbolic Z-matrix:
 Charge =  0 Multiplicity = 1

                         Standard orientation:
 ---------------------------------------------------------------------
 Center     Atomic      Atomic             Coordinates (Angstroms)
 Number     Number       Type             X           Y           Z
 ---------------------------------------------------------------------
      1          8           0        5.344063   -0.398264   -3.306997
      2          8           0       -2.904628   -3.088804    2.901182
      3          8           0       -3.151160   -0.901320    3.310470
      4          8           0       -1.477579    7.069673    1.523440
      5          8           0       -0.653320    6.964511   -0.554497
      6          8           0       -1.888787   -4.116047   -0.230076
      7          7           0        2.366932    0.907415    0.484658
      8          7           0        4.456845   -0.649548   -1.231794
      9          7           0       -1.825898    0.753585   -0.363122
     10          7           0       -2.740356   -1.897512   -0.484661
     11          6           0        4.945867   -1.251424    0.089459
     12          6           0        4.503066   -0.073664    1.160587
     13          6           0        3.006411    0.025091    1.390645
     14          6           0        2.078003   -0.548964    2.199172
     15          6           0        0.767707    0.006374    1.792220
     16          6           0        0.951827    0.862693    0.671150
     17          6           0        6.434644   -1.243978   -0.111617
     18          6           0       -0.442625   -0.207881    2.549658
     19          6           0        6.724901   -0.935919   -1.314181
     20          6           0        0.140500    2.004739    0.076203
     21          6           0       -1.166638    1.854157   -0.365362
     22          6           0        5.474788   -0.628312   -2.072457
     23          6           0       -2.004208    2.904708   -0.788189
     24          6           0        2.313680   -1.667063    3.245626
     25          6           0        7.268571   -1.861562    0.857095
     26          6           0       -3.148097    2.418952   -1.156949
     27          6           0       -1.068652   -1.673080    2.388598
     28          6           0       -3.016733    0.997370   -0.935813
     29          6           0       -1.475401    4.360799   -0.918719
     30          6           0        7.998182   -0.749211   -2.068714
     31          6           0       -1.658277    5.073257    0.409224
     32          6           0       -4.381221    3.042837   -1.899766
     33          6           0       -4.035733   -0.072590   -1.232846
     34          6           0       -2.504856   -1.825948    2.912441
     35          6           0       -3.847792   -1.442030   -0.997916
     36          6           0        9.267150   -0.934229   -1.658501
     37          6           0       -1.291892    6.516579    0.311731
     38          6           0       -4.799711   -2.476950   -1.377999
     39          6           0       -4.149906   -3.697035   -1.071820
     40          6           0       -2.791292   -3.275859   -0.589440
     41          6           0       -6.113270   -2.274705   -1.868334
     42          6           0       -4.543142   -5.095116   -1.118895
     43          6           0       -7.060877   -3.129099   -2.384946
     44          1           0        4.410156   -1.991119    0.437688
     45          1           0        4.978296    0.879891    1.060166
     46          1           0        4.871609   -0.582847    2.147933
     47          1           0        2.860710    1.378586   -0.201760
     48          1           0        3.596036   -0.595269   -1.595547
     49          1           0       -0.297989    0.124380    3.627966
     50          1           0       -1.397088    0.392232    2.274852
     51          1           0        0.836597    2.803226   -0.233790
     52          1           0        3.446655   -1.909704    3.344879
     53          1           0        1.850130   -1.278333    4.195207
     54          1           0        1.680441   -2.701223    3.005364
     55          1           0        6.725138   -2.542887    1.541171
     56          1           0        7.510718   -0.874676    1.648084
     57          1           0        7.993908   -2.416523    0.425912
     58          1           0       -1.220868   -1.789970    1.302763
     59          1           0       -0.458581   -2.563811    2.746269
     60          1           0       -1.644870   -0.361072   -0.256957
     61          1           0       -2.161423    4.846641   -1.665755
     62          1           0       -0.317419    4.242820   -1.229420
     63          1           0        7.780687   -0.582602   -3.198757
     64          1           0       -0.915829    4.580273    1.278197
     65          1           0       -2.718451    4.793155    0.968028
     66          1           0       -4.180011    4.070832   -2.292930
     67          1           0       -5.412560    3.114630   -1.434226
     68          1           0       -4.534237    2.472856   -2.862869
     69          1           0       -4.906034    0.583459   -1.565458
     70          1           0        9.558327   -1.225412   -0.478342
     71          1           0       10.099252   -0.905976   -2.340783
     72          1           0       -3.849087   -3.337673    3.285174
     73          1           0       -6.630382   -1.149038   -1.971544
     74          1           0       -4.748699   -5.550735   -2.180180
     75          1           0       -3.605803   -5.686930   -0.635080
     76          1           0       -5.551498   -5.359597   -0.532747
     77          1           0       -1.095040    8.106285    1.542593
     78          1           0       -7.946993   -2.720719   -2.506910
     79          1           0       -6.807022   -4.316358   -2.361008
 ---------------------------------------------------------------------

 SCF Done:  E(RB3LYP) =  -1947.79828895     A.U. after   19 cycles

 Excitation energies and oscillator strengths:

 Excited State   1:      Singlet-A      2.0490 eV  605.11 nm  f=0.3874  <S**2>=0.000
     154 ->156         0.25158
     155 ->156         0.65725
     155 <-156        -0.11031
 This state for optimization and/or second-order correction.
 Total Energy, E(TD-HF/TD-KS) =  -1947.72299131
 Copying the excited state density for this state as the 1-particle RhoCI density.

 The electronic state is 1-A.
 Alpha  occ. eigenvalues --  -19.19072 -19.17212 -19.13681 -19.10613 -19.09737
 Alpha  occ. eigenvalues --  -19.08811 -14.37731 -14.37452 -14.35173 -14.29702
 Alpha  occ. eigenvalues --  -10.32230 -10.30355 -10.27530 -10.26412 -10.25732
 Alpha  occ. eigenvalues --  -10.25332 -10.24265 -10.24118 -10.23585 -10.23456
 Alpha  occ. eigenvalues --  -10.23319 -10.23212 -10.22923 -10.22616 -10.22274
 Alpha  occ. eigenvalues --  -10.22139 -10.21609 -10.21309 -10.21296 -10.21033
 Alpha  occ. eigenvalues --  -10.20845 -10.20835 -10.20732 -10.20447 -10.20364
 Alpha  occ. eigenvalues --  -10.20337 -10.20138 -10.20098 -10.20064 -10.19888
 Alpha  occ. eigenvalues --  -10.19775 -10.19307 -10.19120  -1.10641  -1.07833
 Alpha  occ. eigenvalues --   -1.02791  -1.01922  -1.01280  -0.99159  -0.98449
 Alpha  occ. eigenvalues --   -0.96862  -0.93416  -0.92736  -0.84750  -0.83831
 Alpha  occ. eigenvalues --   -0.81643  -0.80988  -0.80138  -0.79405  -0.77793
 Alpha  occ. eigenvalues --   -0.76910  -0.75629  -0.75182  -0.74150  -0.73113
 Alpha  occ. eigenvalues --   -0.72287  -0.71183  -0.69667  -0.68931  -0.68040
 Alpha  occ. eigenvalues --   -0.67416  -0.66287  -0.63705  -0.61486  -0.61133
 Alpha  occ. eigenvalues --   -0.60020  -0.59574  -0.59447  -0.58395  -0.57867
 Alpha  occ. eigenvalues --   -0.55786  -0.55692  -0.54804  -0.53655  -0.52875
 Alpha  occ. eigenvalues --   -0.52259  -0.51744  -0.51031  -0.50619  -0.49836
 Alpha  occ. eigenvalues --   -0.49756  -0.48985  -0.48576  -0.47749  -0.47285
 Alpha  occ. eigenvalues --   -0.46931  -0.46862  -0.46658  -0.45925  -0.45679
 Alpha  occ. eigenvalues --   -0.44800  -0.44707  -0.44564  -0.43987  -0.43927
 Alpha  occ. eigenvalues --   -0.43378  -0.43192  -0.42776  -0.42575  -0.42397
 Alpha  occ. eigenvalues --   -0.41768  -0.41534  -0.41492  -0.41076  -0.40915
 Alpha  occ. eigenvalues --   -0.40658  -0.40577  -0.39935  -0.39488  -0.39135
 Alpha  occ. eigenvalues --   -0.38826  -0.38708  -0.38566  -0.38395  -0.38166
 Alpha  occ. eigenvalues --   -0.38036  -0.37514  -0.37251  -0.36574  -0.36401
 Alpha  occ. eigenvalues --   -0.35757  -0.35470  -0.35053  -0.34437  -0.33875
 Alpha  occ. eigenvalues --   -0.33505  -0.33296  -0.32716  -0.32185  -0.31973
 Alpha  occ. eigenvalues --   -0.30945  -0.30816  -0.29732  -0.28962  -0.28178
 Alpha  occ. eigenvalues --   -0.27810  -0.26221  -0.26127  -0.25242  -0.24589
 Alpha  occ. eigenvalues --   -0.24140  -0.23839  -0.23712  -0.21943  -0.19617
 Alpha virt. eigenvalues --   -0.11571  -0.07104  -0.05534  -0.01271  -0.00670
 Alpha virt. eigenvalues --    0.00563   0.00979   0.01309   0.01965   0.02846
 Alpha virt. eigenvalues --    0.03355   0.03487   0.03747   0.04483   0.05031

 Mulliken charges:
               1
     1  O   -0.283945
     2  O   -0.213344
     3  O   -0.221900
     4  O   -0.252868
     5  O   -0.174247
     6  O   -0.272717
     7  N   -0.132367
     8  N   -0.113555
     9  N   -0.007337
    10  N   -0.266321
    11  C    0.183272
    12  C    0.096520
    13  C   -0.054104
    14  C   -0.100935
    15  C   -0.062634
    16  C    0.048068
    17  C   -0.156405
    18  C    0.009341
    19  C   -0.007417
    20  C   -0.109220
    21  C    0.093014
    22  C    0.099603
    23  C   -0.106019
    24  C    0.016000
    25  C    0.099004
    26  C   -0.071299
    27  C   -0.044372
    28  C   -0.084465
    29  C    0.128973
    30  C    0.000994
    31  C   -0.154897
    32  C    0.037806
    33  C   -0.083224
    34  C    0.128960
    35  C    0.156639
    36  C   -0.077834
    37  C    0.167681
    38  C    0.109097
    39  C   -0.142744
    40  C    0.171455
    41  C   -0.141570
    42  C   -0.048325
    43  C    0.000649
    44  H   -0.038377
    45  H    0.009082
    46  H    0.005062
    47  H    0.091134
    48  H    0.083501
    49  H    0.024554
    50  H    0.030095
    51  H    0.013645
    52  H    0.025789
    53  H    0.035977
    54  H    0.066309
    55  H    0.013208
    56  H    0.054277
    57  H    0.015542
    58  H    0.062387
    59  H    0.035414
    60  H    0.216125
    61  H    0.022583
    62  H    0.052190
    63  H    0.047043
    64  H    0.076059
    65  H    0.068839
    66  H    0.015217
    67  H    0.050307
    68  H    0.039795
    69  H   -0.010943
    70  H    0.045458
    71  H    0.028809
    72  H    0.223055
    73  H    0.021132
    74  H    0.052388
    75  H    0.064854
    76  H    0.044842
    77  H    0.232582
    78  H   -0.017300
    79  H    0.036356
 Sum of Mulliken charges =   0.00000

 Dipole moment (field-independent basis, Debye):
    X=              0.2382    Y=              3.5247    Z=              4.0368  Tot=              5.3643
 Quadrupole moment (field-independent basis, Debye-Ang):
   XX=           -222.2846   YY=           -240.6695   ZZ=           -268.9832
   XY=            -12.2623   XZ=             31.2439   YZ=             -3.2241

 Normal termination of Gaussian 09 at Wed Jul 10 16:49:40 2019.
