 Gaussian 09, Revision D.01,
 Gaussian 09:  ES64L-G09RevD.01 24-Apr-2013

 --------------------------
 # td=(NStates=1) B3LYP/SVP
 --------------------------

 --
 TD
 --
 Symbolic Z-matrix:
 Charge =  0 Multiplicity = 1

                         Standard orientation:
 ---------------------------------------------------------------------
 Center     Atomic      Atomic             Coordinates (Angstroms)
 Number     Number       Type             X           Y           Z
 ---------------------------------------------------------------------
      1          8           0        5.294906   -0.237139   -3.295530
      2          8           0       -2.769451   -2.852385    3.599061
      3          8           0       -3.159156   -0.601224    3.367628
      4          8           0       -1.953723    7.097069    1.328206
      5          8           0       -0.906393    6.899782   -0.681235
      6          8           0       -1.690170   -4.127370   -0.048024
      7          7           0        2.301734    1.004666    0.493373
      8          7           0        4.446180   -0.754837   -1.238639
      9          7           0       -1.881038    0.623648   -0.391151
     10          7           0       -2.539668   -2.058509   -0.591857
     11          6           0        4.866277   -1.134022    0.069828
     12          6           0        4.405322   -0.061600    1.148360
     13          6           0        2.955314    0.205540    1.327623
     14          6           0        2.074989   -0.417001    2.257874
     15          6           0        0.770742    0.134143    1.877893
     16          6           0        0.964064    0.911120    0.766965
     17          6           0        6.322109   -1.178238   -0.097296
     18          6           0       -0.623128   -0.030349    2.574181
     19          6           0        6.727704   -0.866692   -1.417543
     20          6           0        0.094057    1.912884   -0.040964
     21          6           0       -1.195562    1.813935   -0.381242
     22          6           0        5.484801   -0.592083   -2.180943
     23          6           0       -2.031996    2.866137   -1.038303
     24          6           0        2.215374   -1.334376    3.377011
     25          6           0        7.232103   -1.575152    0.946816
     26          6           0       -3.234298    2.231524   -1.333556
     27          6           0       -1.063482   -1.473502    2.711668
     28          6           0       -3.027722    0.807470   -1.052950
     29          6           0       -1.648729    4.281470   -1.079376
     30          6           0        7.973057   -0.667157   -2.150082
     31          6           0       -2.005644    5.028425    0.236185
     32          6           0       -4.392731    2.734176   -2.095307
     33          6           0       -3.933142   -0.172857   -1.255970
     34          6           0       -2.454144   -1.611587    3.206926
     35          6           0       -3.673985   -1.570166   -1.015354
     36          6           0        9.137363   -0.767203   -1.535157
     37          6           0       -1.526848    6.466952    0.230978
     38          6           0       -4.581525   -2.785489   -1.406787
     39          6           0       -3.896012   -3.900671   -1.066171
     40          6           0       -2.513859   -3.453966   -0.505062
     41          6           0       -5.907622   -2.550898   -1.912730
     42          6           0       -4.210794   -5.361584   -1.181062
     43          6           0       -6.595236   -3.504472   -2.603174
     44          1           0        4.540500   -2.047110    0.411330
     45          1           0        4.995374    0.939105    1.066348
     46          1           0        5.008894   -0.237149    2.191819
     47          1           0        2.849746    1.182783   -0.491079
     48          1           0        3.555943   -0.814856   -1.677850
     49          1           0       -0.583849    0.572087    3.469322
     50          1           0       -1.316291    0.470381    2.192479
     51          1           0        0.440369    3.145845   -0.041965
     52          1           0        3.335439   -1.540148    3.699703
     53          1           0        1.948400   -0.764094    4.404924
     54          1           0        1.741456   -2.277819    3.312967
     55          1           0        6.646874   -2.062585    1.815420
     56          1           0        7.508369   -0.904528    1.586105
     57          1           0        8.083353   -2.237254    0.724593
     58          1           0       -1.004443   -1.612035    1.520644
     59          1           0       -0.442646   -2.232600    3.292592
     60          1           0       -1.669236   -0.181293   -0.171487
     61          1           0       -2.012354    4.794197   -1.946805
     62          1           0       -0.578491    4.190074   -1.163227
     63          1           0        8.058075   -0.754319   -3.074368
     64          1           0       -1.411460    4.456610    0.978042
     65          1           0       -3.060115    4.979549    0.556752
     66          1           0       -4.400625    3.829863   -2.191854
     67          1           0       -5.454974    2.261700   -1.590512
     68          1           0       -4.272853    2.301046   -3.217918
     69          1           0       -4.861984   -0.039168   -1.604419
     70          1           0        9.412034   -0.942038   -0.437206
     71          1           0       10.021026   -0.574382   -2.202952
     72          1           0       -3.666722   -2.915619    3.755324
     73          1           0       -6.231779   -1.508556   -1.837196
     74          1           0       -4.091349   -5.685953   -2.155947
     75          1           0       -3.349611   -5.962558   -0.626965
     76          1           0       -5.115956   -5.811427   -0.762605
     77          1           0       -1.684731    8.225908    1.566696
     78          1           0       -7.441643   -3.083739   -2.964097
     79          1           0       -6.554206   -4.602835   -2.749211
 ---------------------------------------------------------------------

 SCF Done:  E(RB3LYP) =  -1947.75861508     A.U. after   16 cycles

 Excitation energies and oscillator strengths:

 Excited State   1:      Singlet-A      2.3045 eV  538.01 nm  f=0.3562  <S**2>=0.000
     153 ->156         0.11395
     155 ->156         0.69160
 This state for optimization and/or second-order correction.
 Total Energy, E(TD-HF/TD-KS) =  -1947.67392575
 Copying the excited state density for this state as the 1-particle RhoCI density.

 The electronic state is 1-A.
 Alpha  occ. eigenvalues --  -19.19576 -19.17715 -19.12811 -19.11465 -19.11073
 Alpha  occ. eigenvalues --  -19.10069 -14.37908 -14.35647 -14.34037 -14.28494
 Alpha  occ. eigenvalues --  -10.32277 -10.30956 -10.27543 -10.26724 -10.24392
 Alpha  occ. eigenvalues --  -10.24333 -10.24087 -10.23501 -10.22717 -10.22450
 Alpha  occ. eigenvalues --  -10.22295 -10.22247 -10.22245 -10.21977 -10.21741
 Alpha  occ. eigenvalues --  -10.21320 -10.21224 -10.20436 -10.20372 -10.20239
 Alpha  occ. eigenvalues --  -10.19955 -10.19912 -10.19701 -10.19499 -10.19422
 Alpha  occ. eigenvalues --  -10.19026 -10.19001 -10.18679 -10.18640 -10.18608
 Alpha  occ. eigenvalues --  -10.18369 -10.17814 -10.17186  -1.09453  -1.08943
 Alpha  occ. eigenvalues --   -1.05189  -1.03929  -1.01004  -1.00625  -0.98885
 Alpha  occ. eigenvalues --   -0.98566  -0.94215  -0.92018  -0.84038  -0.82463
 Alpha  occ. eigenvalues --   -0.81623  -0.80404  -0.80039  -0.79491  -0.78232
 Alpha  occ. eigenvalues --   -0.77582  -0.76394  -0.75496  -0.74238  -0.72492
 Alpha  occ. eigenvalues --   -0.72363  -0.70915  -0.69607  -0.69238  -0.68855
 Alpha  occ. eigenvalues --   -0.67827  -0.65705  -0.63885  -0.60725  -0.60621
 Alpha  occ. eigenvalues --   -0.60355  -0.59873  -0.58829  -0.58464  -0.58066
 Alpha  occ. eigenvalues --   -0.56131  -0.55676  -0.55162  -0.54470  -0.53489
 Alpha  occ. eigenvalues --   -0.52622  -0.52298  -0.51530  -0.50793  -0.50133
 Alpha  occ. eigenvalues --   -0.48802  -0.48457  -0.47943  -0.47789  -0.47599
 Alpha  occ. eigenvalues --   -0.47116  -0.46868  -0.46806  -0.46210  -0.45917
 Alpha  occ. eigenvalues --   -0.45494  -0.45133  -0.44305  -0.44089  -0.43912
 Alpha  occ. eigenvalues --   -0.43614  -0.43328  -0.42996  -0.42857  -0.42558
 Alpha  occ. eigenvalues --   -0.42489  -0.42083  -0.41492  -0.41199  -0.41127
 Alpha  occ. eigenvalues --   -0.40812  -0.40707  -0.40419  -0.40284  -0.40062
 Alpha  occ. eigenvalues --   -0.39743  -0.39152  -0.39066  -0.38313  -0.37996
 Alpha  occ. eigenvalues --   -0.37757  -0.37377  -0.36995  -0.36724  -0.36317
 Alpha  occ. eigenvalues --   -0.35850  -0.35671  -0.35333  -0.35137  -0.34533
 Alpha  occ. eigenvalues --   -0.34414  -0.33061  -0.32621  -0.32177  -0.31599
 Alpha  occ. eigenvalues --   -0.31250  -0.30868  -0.28902  -0.28531  -0.27060
 Alpha  occ. eigenvalues --   -0.26463  -0.26242  -0.26174  -0.25570  -0.24442
 Alpha  occ. eigenvalues --   -0.23657  -0.23479  -0.23009  -0.21975  -0.19480
 Alpha virt. eigenvalues --   -0.09933  -0.06303  -0.05692  -0.02824  -0.00655
 Alpha virt. eigenvalues --    0.00495   0.00678   0.01100   0.01488   0.03050
 Alpha virt. eigenvalues --    0.03124   0.03746   0.04056   0.04506   0.05177

 Mulliken charges:
               1
     1  O   -0.185435
     2  O   -0.126175
     3  O   -0.267184
     4  O   -0.289449
     5  O   -0.192989
     6  O   -0.115004
     7  N   -0.073427
     8  N   -0.224133
     9  N    0.115113
    10  N   -0.256627
    11  C    0.263345
    12  C    0.015439
    13  C   -0.073554
    14  C   -0.095634
    15  C   -0.147967
    16  C    0.007412
    17  C   -0.196143
    18  C    0.285288
    19  C   -0.051436
    20  C   -0.116137
    21  C    0.075312
    22  C    0.111770
    23  C   -0.084336
    24  C    0.030446
    25  C    0.156519
    26  C   -0.112081
    27  C   -0.088625
    28  C    0.134000
    29  C    0.147472
    30  C    0.119011
    31  C   -0.023254
    32  C   -0.000522
    33  C   -0.044970
    34  C    0.148164
    35  C    0.008641
    36  C   -0.067699
    37  C    0.164067
    38  C    0.054330
    39  C   -0.234751
    40  C    0.137064
    41  C   -0.048305
    42  C    0.078427
    43  C    0.021993
    44  H   -0.007464
    45  H    0.003849
    46  H    0.011195
    47  H    0.176807
    48  H    0.110744
    49  H   -0.019900
    50  H   -0.107950
    51  H    0.046622
    52  H   -0.004388
    53  H    0.030213
    54  H    0.038468
    55  H   -0.011436
    56  H   -0.032337
    57  H    0.049292
    58  H    0.107146
    59  H    0.046075
    60  H   -0.005675
    61  H    0.005915
    62  H    0.003113
    63  H   -0.078373
    64  H    0.036961
    65  H    0.040504
    66  H    0.028345
    67  H    0.059790
    68  H    0.061997
    69  H   -0.111408
    70  H    0.032976
    71  H    0.022418
    72  H    0.151512
    73  H    0.003287
    74  H    0.008158
    75  H    0.024126
    76  H    0.023646
    77  H    0.270944
    78  H   -0.011715
    79  H    0.038564
 Sum of Mulliken charges =   0.00000

 Dipole moment (field-independent basis, Debye):
    X=             -0.3949    Y=              2.5282    Z=              2.8357  Tot=              3.8195
 Quadrupole moment (field-independent basis, Debye-Ang):
   XX=           -213.6459   YY=           -232.3247   ZZ=           -261.3783
   XY=            -10.3186   XZ=             29.6726   YZ=              8.0016

 Normal termination of Gaussian 09 at Tue Jul  9 19:00:07 2019.
