 Gaussian 09, Revision D.01,
 Gaussian 09:  ES64L-G09RevD.01 24-Apr-2013

 --------------------------
 # td=(NStates=1) B3LYP/SVP
 --------------------------

 --
 TD
 --
 Symbolic Z-matrix:
 Charge =  0 Multiplicity = 1

                         Standard orientation:
 ---------------------------------------------------------------------
 Center     Atomic      Atomic             Coordinates (Angstroms)
 Number     Number       Type             X           Y           Z
 ---------------------------------------------------------------------
      1          8           0        5.531532   -0.040684   -3.371139
      2          8           0       -2.720911   -3.150445    3.266924
      3          8           0       -3.098655   -0.925235    3.458744
      4          8           0       -1.836381    7.073156    1.625134
      5          8           0       -1.015684    7.050519   -0.557411
      6          8           0       -1.952071   -4.071380   -0.106488
      7          7           0        2.406655    0.957856    0.538561
      8          7           0        4.468938   -0.488859   -1.315181
      9          7           0       -1.883472    0.600304   -0.325897
     10          7           0       -2.467862   -1.883847   -0.718580
     11          6           0        4.905252   -1.066719   -0.062303
     12          6           0        4.450462   -0.198381    1.179601
     13          6           0        2.982014   -0.021228    1.333295
     14          6           0        1.999398   -0.605957    2.110045
     15          6           0        0.728686    0.004427    1.710630
     16          6           0        1.045364    1.011876    0.719322
     17          6           0        6.360005   -1.328948   -0.181101
     18          6           0       -0.623299   -0.192109    2.315942
     19          6           0        6.844849   -0.806357   -1.408793
     20          6           0        0.194477    2.003339    0.134645
     21          6           0       -1.059488    1.759979   -0.269600
     22          6           0        5.540307   -0.341666   -2.145747
     23          6           0       -1.870802    2.811261   -0.816951
     24          6           0        2.198124   -1.658124    3.235949
     25          6           0        7.134262   -1.828509    0.995380
     26          6           0       -3.167951    2.282114   -1.230425
     27          6           0       -1.018208   -1.720193    2.437425
     28          6           0       -3.034705    0.859089   -0.918357
     29          6           0       -1.542485    4.277053   -0.917633
     30          6           0        8.148120   -0.754871   -1.931055
     31          6           0       -1.929690    5.072279    0.382972
     32          6           0       -4.419326    2.930132   -1.694600
     33          6           0       -3.975054   -0.135647   -1.307450
     34          6           0       -2.400890   -1.898681    3.080242
     35          6           0       -3.710431   -1.502243   -1.222610
     36          6           0        9.355100   -0.706590   -1.356344
     37          6           0       -1.535176    6.550778    0.371163
     38          6           0       -4.770376   -2.614558   -1.512500
     39          6           0       -4.091774   -3.768980   -1.108800
     40          6           0       -2.752660   -3.333424   -0.494939
     41          6           0       -5.919752   -2.313745   -2.126806
     42          6           0       -4.494312   -5.101870   -1.132978
     43          6           0       -6.927873   -3.226955   -2.542515
     44          1           0        4.175469   -1.887033   -0.051017
     45          1           0        4.922727    0.816741    0.943476
     46          1           0        4.773885   -0.724732    2.092820
     47          1           0        2.958415    1.571933   -0.027204
     48          1           0        3.584622   -0.715605   -1.585959
     49          1           0       -0.719149    0.112898    3.339915
     50          1           0       -1.375617    0.351415    1.862772
     51          1           0        0.680002    2.837367   -0.128581
     52          1           0        3.321491   -1.643928    3.529400
     53          1           0        1.581449   -1.324984    4.018921
     54          1           0        1.995987   -2.731783    2.625182
     55          1           0        6.517716   -2.753765    1.248784
     56          1           0        7.451596   -1.096200    1.956272
     57          1           0        8.048475   -2.235558    0.435543
     58          1           0       -1.207886   -2.230141    1.337659
     59          1           0       -0.132206   -2.286948    2.927746
     60          1           0       -1.739237   -0.476105   -0.192496
     61          1           0       -2.091393    4.752656   -1.754356
     62          1           0       -0.543774    4.467120   -1.291695
     63          1           0        8.244207   -0.487793   -3.109892
     64          1           0       -1.616723    4.798440    1.521722
     65          1           0       -3.115904    4.983879    0.531362
     66          1           0       -4.074704    4.012697   -2.047561
     67          1           0       -5.359064    2.830606   -1.010665
     68          1           0       -4.538393    2.424596   -2.783900
     69          1           0       -4.822674    0.245235   -1.936420
     70          1           0        9.490688   -0.999915   -0.241606
     71          1           0       10.366576   -0.756894   -1.959959
     72          1           0       -3.602209   -3.157881    3.584096
     73          1           0       -6.118794   -1.349881   -2.281124
     74          1           0       -4.129329   -5.454839   -2.115880
     75          1           0       -3.777660   -5.601896   -0.493694
     76          1           0       -5.636883   -5.439151   -0.808711
     77          1           0       -1.582127    8.090833    1.581310
     78          1           0       -7.919294   -2.920112   -2.995779
     79          1           0       -6.795747   -4.426300   -2.249528
 ---------------------------------------------------------------------

 SCF Done:  E(RB3LYP) =  -1947.83708995     A.U. after   16 cycles

 Excitation energies and oscillator strengths:

 Excited State   1:      Singlet-A      2.1029 eV  589.58 nm  f=0.4423  <S**2>=0.000
     154 ->156         0.13947
     155 ->156         0.68528
 This state for optimization and/or second-order correction.
 Total Energy, E(TD-HF/TD-KS) =  -1947.75980928
 Copying the excited state density for this state as the 1-particle RhoCI density.

 The electronic state is 1-A.
 Alpha  occ. eigenvalues --  -19.19272 -19.18345 -19.14313 -19.10906 -19.10892
 Alpha  occ. eigenvalues --  -19.09637 -14.38169 -14.35912 -14.35725 -14.29655
 Alpha  occ. eigenvalues --  -10.32685 -10.31148 -10.29333 -10.26672 -10.24818
 Alpha  occ. eigenvalues --  -10.24050 -10.23809 -10.23055 -10.23010 -10.22987
 Alpha  occ. eigenvalues --  -10.22938 -10.22864 -10.22753 -10.22566 -10.22555
 Alpha  occ. eigenvalues --  -10.21948 -10.21882 -10.21721 -10.21405 -10.21353
 Alpha  occ. eigenvalues --  -10.21345 -10.21219 -10.21125 -10.20821 -10.20141
 Alpha  occ. eigenvalues --  -10.19877 -10.19793 -10.19781 -10.19755 -10.19387
 Alpha  occ. eigenvalues --  -10.19330 -10.18192 -10.17773  -1.10641  -1.09596
 Alpha  occ. eigenvalues --   -1.05097  -1.02166  -1.00927  -0.98422  -0.97879
 Alpha  occ. eigenvalues --   -0.97694  -0.94602  -0.89279  -0.83046  -0.82886
 Alpha  occ. eigenvalues --   -0.81384  -0.81003  -0.80585  -0.79282  -0.77515
 Alpha  occ. eigenvalues --   -0.77016  -0.76506  -0.75370  -0.74384  -0.71905
 Alpha  occ. eigenvalues --   -0.71371  -0.70581  -0.69092  -0.68813  -0.67864
 Alpha  occ. eigenvalues --   -0.67433  -0.65899  -0.63249  -0.63180  -0.61119
 Alpha  occ. eigenvalues --   -0.59812  -0.58530  -0.57591  -0.57026  -0.56600
 Alpha  occ. eigenvalues --   -0.55855  -0.55388  -0.54655  -0.54400  -0.53100
 Alpha  occ. eigenvalues --   -0.51430  -0.51003  -0.50345  -0.49876  -0.49357
 Alpha  occ. eigenvalues --   -0.49057  -0.48765  -0.48182  -0.47850  -0.47614
 Alpha  occ. eigenvalues --   -0.47328  -0.46999  -0.46694  -0.45961  -0.45396
 Alpha  occ. eigenvalues --   -0.45253  -0.44960  -0.44384  -0.44252  -0.43876
 Alpha  occ. eigenvalues --   -0.43259  -0.43106  -0.42986  -0.42608  -0.42282
 Alpha  occ. eigenvalues --   -0.42135  -0.42096  -0.41593  -0.41209  -0.41174
 Alpha  occ. eigenvalues --   -0.40538  -0.40466  -0.40400  -0.40030  -0.39518
 Alpha  occ. eigenvalues --   -0.39197  -0.38827  -0.38626  -0.38430  -0.38208
 Alpha  occ. eigenvalues --   -0.38013  -0.37913  -0.37481  -0.36924  -0.36521
 Alpha  occ. eigenvalues --   -0.35771  -0.35251  -0.34800  -0.34661  -0.34231
 Alpha  occ. eigenvalues --   -0.34148  -0.33500  -0.33347  -0.32745  -0.32232
 Alpha  occ. eigenvalues --   -0.31645  -0.30673  -0.29276  -0.29140  -0.28769
 Alpha  occ. eigenvalues --   -0.26720  -0.26374  -0.24914  -0.24834  -0.24368
 Alpha  occ. eigenvalues --   -0.24132  -0.24056  -0.22983  -0.21316  -0.18863
 Alpha virt. eigenvalues --   -0.10308  -0.07352  -0.06920  -0.00940  -0.00104
 Alpha virt. eigenvalues --    0.00088   0.01033   0.01183   0.02180   0.02712
 Alpha virt. eigenvalues --    0.03464   0.03837   0.04715   0.04790   0.05357

 Mulliken charges:
               1
     1  O   -0.265322
     2  O   -0.100598
     3  O   -0.288840
     4  O   -0.257630
     5  O   -0.176115
     6  O   -0.143883
     7  N   -0.061293
     8  N   -0.134272
     9  N   -0.100626
    10  N   -0.380931
    11  C    0.051722
    12  C    0.196062
    13  C   -0.107092
    14  C   -0.157393
    15  C   -0.092969
    16  C    0.056140
    17  C   -0.123685
    18  C    0.168582
    19  C   -0.000954
    20  C   -0.076616
    21  C    0.225651
    22  C    0.158171
    23  C   -0.112045
    24  C    0.057210
    25  C    0.003756
    26  C   -0.136471
    27  C   -0.153227
    28  C    0.052554
    29  C    0.137625
    30  C   -0.069981
    31  C   -0.115656
    32  C    0.025048
    33  C   -0.126190
    34  C    0.143133
    35  C    0.091107
    36  C   -0.097726
    37  C    0.162735
    38  C    0.152645
    39  C   -0.203875
    40  C    0.159196
    41  C   -0.029907
    42  C    0.072690
    43  C   -0.089598
    44  H    0.003553
    45  H    0.003259
    46  H   -0.003409
    47  H    0.107230
    48  H    0.106981
    49  H   -0.003817
    50  H   -0.024143
    51  H   -0.064851
    52  H    0.018681
    53  H    0.038423
    54  H    0.080646
    55  H    0.033017
    56  H    0.091075
    57  H    0.044561
    58  H    0.103101
    59  H    0.041610
    60  H    0.193211
    61  H    0.009709
    62  H    0.007767
    63  H    0.051133
    64  H    0.068523
    65  H    0.059598
    66  H    0.027162
    67  H    0.078901
    68  H    0.048529
    69  H   -0.013457
    70  H    0.028139
    71  H    0.055375
    72  H    0.159060
    73  H   -0.069094
    74  H    0.032261
    75  H    0.004657
    76  H    0.065655
    77  H    0.212096
    78  H    0.043725
    79  H    0.050000
 Sum of Mulliken charges =   0.00000

 Dipole moment (field-independent basis, Debye):
    X=              0.4101    Y=              1.7985    Z=              3.5179  Tot=              3.9722
 Quadrupole moment (field-independent basis, Debye-Ang):
   XX=           -222.5599   YY=           -238.2719   ZZ=           -269.4410
   XY=             -7.8505   XZ=             32.7301   YZ=              2.8655

 Normal termination of Gaussian 09 at Wed Jul 10 13:57:50 2019.
