 Gaussian 09, Revision D.01,
 Gaussian 09:  ES64L-G09RevD.01 24-Apr-2013

 --------------------------
 # td=(NStates=1) B3LYP/SVP
 --------------------------

 --
 TD
 --
 Symbolic Z-matrix:
 Charge =  0 Multiplicity = 1

                         Standard orientation:
 ---------------------------------------------------------------------
 Center     Atomic      Atomic             Coordinates (Angstroms)
 Number     Number       Type             X           Y           Z
 ---------------------------------------------------------------------
      1          8           0        5.356256   -0.187826   -3.283522
      2          8           0       -3.016440   -2.906825    3.348005
      3          8           0       -3.166086   -0.651940    3.274837
      4          8           0       -2.063748    7.236402    1.374872
      5          8           0       -0.639329    6.920667   -0.382116
      6          8           0       -1.850709   -4.103855    0.004824
      7          7           0        2.352692    0.832399    0.450914
      8          7           0        4.411089   -0.718658   -1.203599
      9          7           0       -1.771498    0.636432   -0.482575
     10          7           0       -2.647264   -1.978943   -0.449758
     11          6           0        4.984290   -1.196102    0.063100
     12          6           0        4.495127   -0.311334    1.332876
     13          6           0        2.949211   -0.138775    1.301221
     14          6           0        1.928451   -0.672613    2.153712
     15          6           0        0.779202   -0.106747    1.801813
     16          6           0        0.934277    0.847117    0.653450
     17          6           0        6.459136   -1.128717   -0.125357
     18          6           0       -0.485899   -0.219015    2.602160
     19          6           0        6.769118   -0.822775   -1.342247
     20          6           0        0.169591    1.924758    0.117050
     21          6           0       -1.147601    1.812107   -0.382846
     22          6           0        5.506877   -0.549842   -2.003861
     23          6           0       -1.953151    2.926061   -0.968165
     24          6           0        2.218717   -1.632794    3.159166
     25          6           0        7.433364   -1.699345    0.900598
     26          6           0       -3.111081    2.289840   -1.346461
     27          6           0       -1.132737   -1.619553    2.569602
     28          6           0       -3.063190    0.889784   -1.052448
     29          6           0       -1.565960    4.298376   -0.879223
     30          6           0        7.962811   -0.580533   -2.125482
     31          6           0       -2.067985    5.109797    0.355262
     32          6           0       -4.371194    2.877724   -1.944164
     33          6           0       -3.904946   -0.114472   -1.400944
     34          6           0       -2.514388   -1.674933    3.055154
     35          6           0       -3.712664   -1.464285   -1.077337
     36          6           0        9.212546   -0.415431   -1.609841
     37          6           0       -1.562528    6.518899    0.402236
     38          6           0       -4.669953   -2.636367   -1.494470
     39          6           0       -3.997208   -3.763136   -1.048371
     40          6           0       -2.670937   -3.313894   -0.447605
     41          6           0       -5.901858   -2.462674   -2.141023
     42          6           0       -4.362555   -5.147157   -1.092419
     43          6           0       -6.725254   -3.429199   -2.638679
     44          1           0        4.760422   -2.321083    0.382714
     45          1           0        4.959018    0.675619    1.354806
     46          1           0        4.730889   -0.726209    2.070990
     47          1           0        2.800652    1.214797   -0.623044
     48          1           0        3.636717   -0.881647   -1.466621
     49          1           0       -0.406378    0.156722    3.616317
     50          1           0       -1.103337    0.628364    2.215647
     51          1           0        0.572346    2.950068    0.076046
     52          1           0        3.210649   -1.591824    3.479936
     53          1           0        1.575003   -1.189846    4.081198
     54          1           0        2.016832   -2.805124    2.867267
     55          1           0        6.883513   -2.258274    1.673291
     56          1           0        7.902690   -1.093449    1.708512
     57          1           0        8.192235   -2.283987    0.598366
     58          1           0       -1.241005   -2.046791    1.535244
     59          1           0       -0.375695   -2.259644    3.237004
     60          1           0       -1.494944   -0.325712   -0.175837
     61          1           0       -1.768491    4.989164   -1.772990
     62          1           0       -0.497182    4.551755   -0.873982
     63          1           0        7.775185   -0.251760   -3.329615
     64          1           0       -1.602817    4.641269    1.195068
     65          1           0       -3.104768    5.038057    0.642427
     66          1           0       -4.181794    4.021469   -2.107368
     67          1           0       -5.077729    2.688586   -1.199541
     68          1           0       -4.591895    2.238957   -2.940889
     69          1           0       -4.860685    0.077677   -2.049782
     70          1           0        9.299767   -1.062403   -0.586069
     71          1           0       10.017945   -0.235756   -2.175856
     72          1           0       -3.874841   -2.730555    3.443535
     73          1           0       -6.113476   -1.390478   -2.609842
     74          1           0       -3.995887   -5.801946   -2.015336
     75          1           0       -3.836822   -5.812025   -0.254351
     76          1           0       -5.465609   -5.406095   -0.918970
     77          1           0       -1.492034    8.083380    1.517961
     78          1           0       -7.575461   -3.027917   -3.095797
     79          1           0       -6.337445   -4.673549   -2.479259
 ---------------------------------------------------------------------

 SCF Done:  E(RB3LYP) =  -1947.72662998     A.U. after   20 cycles

 Excitation energies and oscillator strengths:

 Excited State   1:      Singlet-A      2.0014 eV  619.50 nm  f=0.4628  <S**2>=0.000
     154 ->156         0.13154
     155 ->156         0.69386
     155 <-156        -0.12617
 This state for optimization and/or second-order correction.
 Total Energy, E(TD-HF/TD-KS) =  -1947.65308155
 Copying the excited state density for this state as the 1-particle RhoCI density.

 The electronic state is 1-A.
 Alpha  occ. eigenvalues --  -19.21166 -19.16389 -19.12917 -19.10928 -19.09595
 Alpha  occ. eigenvalues --  -19.09366 -14.39795 -14.36928 -14.36131 -14.29025
 Alpha  occ. eigenvalues --  -10.33543 -10.30562 -10.29104 -10.27143 -10.25754
 Alpha  occ. eigenvalues --  -10.24805 -10.24348 -10.24081 -10.24008 -10.23576
 Alpha  occ. eigenvalues --  -10.22954 -10.21756 -10.21741 -10.21708 -10.21557
 Alpha  occ. eigenvalues --  -10.21393 -10.21307 -10.21164 -10.21150 -10.21136
 Alpha  occ. eigenvalues --  -10.21032 -10.20810 -10.20337 -10.20279 -10.20120
 Alpha  occ. eigenvalues --  -10.19889 -10.19718 -10.19685 -10.19648 -10.19632
 Alpha  occ. eigenvalues --  -10.19009 -10.18875 -10.18854  -1.11216  -1.09368
 Alpha  occ. eigenvalues --   -1.01091  -1.00689  -0.98915  -0.98807  -0.98275
 Alpha  occ. eigenvalues --   -0.95524  -0.92482  -0.92097  -0.85773  -0.83460
 Alpha  occ. eigenvalues --   -0.82339  -0.81795  -0.80264  -0.80234  -0.78543
 Alpha  occ. eigenvalues --   -0.77644  -0.76360  -0.75842  -0.74655  -0.74532
 Alpha  occ. eigenvalues --   -0.73017  -0.71636  -0.69219  -0.69129  -0.68429
 Alpha  occ. eigenvalues --   -0.67198  -0.66370  -0.64448  -0.64213  -0.62088
 Alpha  occ. eigenvalues --   -0.60960  -0.60085  -0.59064  -0.58356  -0.57317
 Alpha  occ. eigenvalues --   -0.57120  -0.55203  -0.54450  -0.54192  -0.53320
 Alpha  occ. eigenvalues --   -0.52338  -0.51574  -0.51059  -0.50893  -0.50032
 Alpha  occ. eigenvalues --   -0.49747  -0.49080  -0.48564  -0.48333  -0.47782
 Alpha  occ. eigenvalues --   -0.47367  -0.47004  -0.46764  -0.45970  -0.45795
 Alpha  occ. eigenvalues --   -0.45365  -0.45030  -0.44601  -0.44379  -0.44202
 Alpha  occ. eigenvalues --   -0.44060  -0.43228  -0.43063  -0.43002  -0.42783
 Alpha  occ. eigenvalues --   -0.42478  -0.42315  -0.41692  -0.41559  -0.40966
 Alpha  occ. eigenvalues --   -0.40635  -0.40307  -0.40076  -0.39765  -0.39459
 Alpha  occ. eigenvalues --   -0.39135  -0.39109  -0.38533  -0.38379  -0.38078
 Alpha  occ. eigenvalues --   -0.37886  -0.37475  -0.37405  -0.37160  -0.37093
 Alpha  occ. eigenvalues --   -0.36715  -0.36380  -0.34949  -0.34439  -0.34247
 Alpha  occ. eigenvalues --   -0.33908  -0.32783  -0.32411  -0.32265  -0.32144
 Alpha  occ. eigenvalues --   -0.30944  -0.30743  -0.28515  -0.28268  -0.26789
 Alpha  occ. eigenvalues --   -0.26721  -0.26376  -0.26296  -0.25739  -0.25078
 Alpha  occ. eigenvalues --   -0.24384  -0.23739  -0.23540  -0.21532  -0.18798
 Alpha virt. eigenvalues --   -0.11160  -0.07059  -0.06314  -0.02392  -0.01616
 Alpha virt. eigenvalues --   -0.01036  -0.00660   0.01100   0.01169   0.02115
 Alpha virt. eigenvalues --    0.02721   0.03535   0.03828   0.04749   0.05169

 Mulliken charges:
               1
     1  O   -0.338444
     2  O   -0.122917
     3  O   -0.262089
     4  O   -0.167199
     5  O   -0.299386
     6  O   -0.216821
     7  N   -0.225883
     8  N   -0.018590
     9  N   -0.087928
    10  N   -0.240490
    11  C   -0.005168
    12  C    0.435349
    13  C   -0.124754
    14  C   -0.061163
    15  C   -0.102515
    16  C    0.101415
    17  C   -0.136194
    18  C    0.073931
    19  C    0.033252
    20  C   -0.103129
    21  C    0.027991
    22  C    0.131893
    23  C    0.033678
    24  C    0.044772
    25  C    0.109390
    26  C   -0.169237
    27  C   -0.014303
    28  C    0.189013
    29  C    0.009074
    30  C   -0.081828
    31  C    0.039539
    32  C    0.089126
    33  C   -0.165475
    34  C    0.123900
    35  C    0.061594
    36  C    0.003754
    37  C    0.141607
    38  C    0.073940
    39  C   -0.140603
    40  C    0.131579
    41  C   -0.102612
    42  C   -0.045115
    43  C   -0.047598
    44  H    0.052137
    45  H    0.003265
    46  H   -0.174010
    47  H    0.207796
    48  H    0.026695
    49  H    0.001093
    50  H   -0.002567
    51  H    0.000715
    52  H   -0.017773
    53  H    0.038542
    54  H    0.072878
    55  H   -0.009677
    56  H    0.024216
    57  H    0.014644
    58  H    0.085584
    59  H    0.050600
    60  H    0.166676
    61  H    0.027534
    62  H    0.013503
    63  H    0.075261
    64  H    0.023396
    65  H    0.021244
    66  H    0.039900
    67  H    0.025199
    68  H    0.057506
    69  H    0.006542
    70  H    0.027591
    71  H   -0.000262
    72  H    0.122585
    73  H    0.017312
    74  H    0.049441
    75  H    0.037459
    76  H    0.036953
    77  H    0.224698
    78  H    0.008166
    79  H    0.069801
 Sum of Mulliken charges =   0.00000

 Dipole moment (field-independent basis, Debye):
    X=              1.7708    Y=              3.0663    Z=              4.0017  Tot=              5.3434
 Quadrupole moment (field-independent basis, Debye-Ang):
   XX=           -220.3026   YY=           -244.4182   ZZ=           -264.8478
   XY=            -20.6239   XZ=             36.4463   YZ=              8.6204

 Normal termination of Gaussian 09 at Wed Jul 10 15:42:27 2019.
