 Gaussian 09, Revision D.01,
 Gaussian 09:  ES64L-G09RevD.01 24-Apr-2013

 --------------------------
 # td=(NStates=1) B3LYP/SVP
 --------------------------

 --
 TD
 --
 Symbolic Z-matrix:
 Charge =  0 Multiplicity = 1

                         Standard orientation:
 ---------------------------------------------------------------------
 Center     Atomic      Atomic             Coordinates (Angstroms)
 Number     Number       Type             X           Y           Z
 ---------------------------------------------------------------------
      1          8           0        5.633485   -0.265048   -3.331534
      2          8           0       -3.033054   -2.940628    3.255844
      3          8           0       -3.255829   -0.717621    3.017729
      4          8           0       -1.838690    7.381786    1.300800
      5          8           0       -0.014538    6.716493   -0.231844
      6          8           0       -2.091553   -4.113510   -0.053940
      7          7           0        2.364056    0.836886    0.533866
      8          7           0        4.557300   -0.869640   -1.396516
      9          7           0       -1.973742    0.636168   -0.376173
     10          7           0       -2.759623   -1.973887   -0.490104
     11          6           0        4.970099   -1.288776   -0.038664
     12          6           0        4.456652   -0.288629    1.133198
     13          6           0        2.933948   -0.113574    1.294748
     14          6           0        2.020176   -0.741711    2.044346
     15          6           0        0.732741   -0.031474    1.784480
     16          6           0        1.011745    0.840284    0.758029
     17          6           0        6.483055   -1.313131   -0.059274
     18          6           0       -0.553527   -0.330406    2.471154
     19          6           0        6.840773   -0.957533   -1.298494
     20          6           0        0.128071    1.865784    0.196123
     21          6           0       -1.122803    1.766916   -0.315723
     22          6           0        5.647409   -0.684200   -2.173582
     23          6           0       -1.971783    2.927089   -0.853689
     24          6           0        2.170640   -1.761332    3.092676
     25          6           0        7.320410   -1.734056    1.030649
     26          6           0       -3.125816    2.376546   -1.195700
     27          6           0       -1.108624   -1.721038    2.462016
     28          6           0       -3.209927    0.981131   -0.959374
     29          6           0       -1.369311    4.317863   -0.887524
     30          6           0        8.129494   -0.901290   -1.994265
     31          6           0       -1.860510    5.174178    0.315106
     32          6           0       -4.263006    3.195408   -1.794952
     33          6           0       -4.146619   -0.042128   -1.197111
     34          6           0       -2.492908   -1.690324    2.920175
     35          6           0       -3.848019   -1.429753   -0.980212
     36          6           0        9.300715   -0.728110   -1.389976
     37          6           0       -1.152930    6.578449    0.423995
     38          6           0       -4.867363   -2.520471   -1.488068
     39          6           0       -4.228412   -3.632584   -1.128118
     40          6           0       -2.879547   -3.301916   -0.498352
     41          6           0       -6.115181   -2.124145   -2.117079
     42          6           0       -4.615552   -5.169775   -1.041213
     43          6           0       -7.029580   -3.145964   -2.477685
     44          1           0        4.508513   -2.131580    0.208171
     45          1           0        4.902599    0.742535    1.094595
     46          1           0        4.920777   -0.695346    2.013648
     47          1           0        2.978422    1.418266   -0.067358
     48          1           0        3.496675   -0.887857   -1.716740
     49          1           0       -0.340649    0.131745    3.492722
     50          1           0       -1.220565    0.584289    2.116310
     51          1           0        0.708781    2.797702   -0.023496
     52          1           0        3.425806   -1.706757    3.221802
     53          1           0        1.671238   -1.481807    3.999609
     54          1           0        1.925340   -2.707525    2.666043
     55          1           0        6.791771   -2.263376    1.797750
     56          1           0        8.013320   -0.960559    1.619075
     57          1           0        8.094027   -2.432103    0.810699
     58          1           0       -1.234579   -2.078461    1.446959
     59          1           0       -0.551486   -2.226437    3.016746
     60          1           0       -1.754130   -0.306172    0.049819
     61          1           0       -1.598368    4.883071   -1.766556
     62          1           0       -0.197216    4.312787   -1.137559
     63          1           0        8.110712   -0.808093   -2.969139
     64          1           0       -1.685456    4.577697    1.139558
     65          1           0       -3.205207    5.533646    0.047002
     66          1           0       -3.964079    4.391691   -2.111773
     67          1           0       -4.984450    3.043414   -1.207902
     68          1           0       -4.582652    2.822326   -2.861599
     69          1           0       -5.248738    0.227191   -1.811520
     70          1           0        9.548028   -0.453077   -0.397387
     71          1           0       10.080150   -0.577372   -2.141981
     72          1           0       -4.053693   -2.882036    3.306574
     73          1           0       -6.353594   -1.007048   -2.242731
     74          1           0       -4.637136   -5.494421   -2.119276
     75          1           0       -3.697128   -5.579421   -0.549417
     76          1           0       -5.500324   -5.078879   -0.487295
     77          1           0       -1.220564    8.220628    1.275350
     78          1           0       -7.953895   -2.919616   -3.024064
     79          1           0       -6.813795   -4.135491   -2.466421
 ---------------------------------------------------------------------

 SCF Done:  E(RB3LYP) =  -1947.77561200     A.U. after   16 cycles

 Excitation energies and oscillator strengths:

 Excited State   1:      Singlet-A      2.2833 eV  543.01 nm  f=0.4522  <S**2>=0.000
     155 ->156         0.69398
 This state for optimization and/or second-order correction.
 Total Energy, E(TD-HF/TD-KS) =  -1947.69170293
 Copying the excited state density for this state as the 1-particle RhoCI density.

 The electronic state is 1-A.
 Alpha  occ. eigenvalues --  -19.22866 -19.15936 -19.15038 -19.11212 -19.10554
 Alpha  occ. eigenvalues --  -19.08963 -14.37861 -14.36975 -14.36047 -14.29401
 Alpha  occ. eigenvalues --  -10.35404 -10.30990 -10.27731 -10.26166 -10.26091
 Alpha  occ. eigenvalues --  -10.24597 -10.24543 -10.24401 -10.24259 -10.22463
 Alpha  occ. eigenvalues --  -10.22028 -10.22003 -10.21954 -10.21945 -10.21915
 Alpha  occ. eigenvalues --  -10.21855 -10.21679 -10.21479 -10.21149 -10.21062
 Alpha  occ. eigenvalues --  -10.20875 -10.20108 -10.20021 -10.19796 -10.19686
 Alpha  occ. eigenvalues --  -10.19685 -10.19016 -10.18794 -10.18616 -10.18608
 Alpha  occ. eigenvalues --  -10.18456 -10.18284 -10.17843  -1.09685  -1.05588
 Alpha  occ. eigenvalues --   -1.02154  -1.01265  -0.99221  -0.98767  -0.97101
 Alpha  occ. eigenvalues --   -0.96597  -0.93349  -0.93303  -0.82830  -0.82682
 Alpha  occ. eigenvalues --   -0.82353  -0.81273  -0.79999  -0.79352  -0.78400
 Alpha  occ. eigenvalues --   -0.77753  -0.77133  -0.75267  -0.73984  -0.72685
 Alpha  occ. eigenvalues --   -0.71916  -0.71329  -0.69575  -0.68683  -0.68394
 Alpha  occ. eigenvalues --   -0.67931  -0.65987  -0.64213  -0.61288  -0.60816
 Alpha  occ. eigenvalues --   -0.59948  -0.59282  -0.58722  -0.58101  -0.57281
 Alpha  occ. eigenvalues --   -0.55670  -0.55453  -0.54913  -0.54473  -0.53601
 Alpha  occ. eigenvalues --   -0.52799  -0.51864  -0.51352  -0.50890  -0.50810
 Alpha  occ. eigenvalues --   -0.50472  -0.48541  -0.48143  -0.47722  -0.47425
 Alpha  occ. eigenvalues --   -0.47180  -0.47035  -0.46770  -0.45904  -0.45782
 Alpha  occ. eigenvalues --   -0.45244  -0.44977  -0.44727  -0.44371  -0.44147
 Alpha  occ. eigenvalues --   -0.43611  -0.43166  -0.42665  -0.42453  -0.42301
 Alpha  occ. eigenvalues --   -0.41992  -0.41894  -0.41562  -0.41519  -0.41245
 Alpha  occ. eigenvalues --   -0.41114  -0.40837  -0.40324  -0.40036  -0.39977
 Alpha  occ. eigenvalues --   -0.39755  -0.39141  -0.39104  -0.38363  -0.38116
 Alpha  occ. eigenvalues --   -0.37960  -0.37689  -0.37560  -0.36796  -0.36579
 Alpha  occ. eigenvalues --   -0.36254  -0.35682  -0.35269  -0.34760  -0.34460
 Alpha  occ. eigenvalues --   -0.33567  -0.33249  -0.33058  -0.31650  -0.31380
 Alpha  occ. eigenvalues --   -0.31242  -0.30038  -0.29173  -0.28895  -0.27309
 Alpha  occ. eigenvalues --   -0.26868  -0.26308  -0.25879  -0.24937  -0.24556
 Alpha  occ. eigenvalues --   -0.24524  -0.24007  -0.23642  -0.22478  -0.19912
 Alpha virt. eigenvalues --   -0.10780  -0.05945  -0.05552  -0.04410  -0.01529
 Alpha virt. eigenvalues --    0.00496   0.00664   0.01274   0.01522   0.02036
 Alpha virt. eigenvalues --    0.02821   0.03300   0.04021   0.04675   0.04873

 Mulliken charges:
               1
     1  O   -0.244896
     2  O   -0.257262
     3  O   -0.255728
     4  O   -0.193299
     5  O   -0.309834
     6  O   -0.205359
     7  N   -0.049478
     8  N   -0.228767
     9  N   -0.161108
    10  N   -0.199432
    11  C    0.200434
    12  C    0.113382
    13  C   -0.093419
    14  C   -0.168123
    15  C   -0.113766
    16  C    0.032805
    17  C   -0.115021
    18  C   -0.024710
    19  C   -0.060476
    20  C   -0.117614
    21  C    0.112737
    22  C    0.151037
    23  C   -0.042893
    24  C    0.097656
    25  C    0.068153
    26  C   -0.118342
    27  C    0.286229
    28  C    0.169679
    29  C    0.057734
    30  C    0.067357
    31  C   -0.041047
    32  C    0.096071
    33  C   -0.177069
    34  C    0.105783
    35  C    0.042771
    36  C   -0.012664
    37  C    0.223157
    38  C    0.046618
    39  C   -0.287325
    40  C    0.132614
    41  C   -0.048402
    42  C    0.108503
    43  C    0.010811
    44  H   -0.037563
    45  H   -0.003653
    46  H   -0.015872
    47  H    0.127882
    48  H    0.169299
    49  H    0.012662
    50  H    0.027030
    51  H    0.001002
    52  H    0.008784
    53  H    0.029520
    54  H    0.036386
    55  H    0.001113
    56  H    0.045639
    57  H    0.014354
    58  H    0.067780
    59  H   -0.069568
    60  H    0.177532
    61  H   -0.006640
    62  H    0.056525
    63  H   -0.048141
    64  H    0.037500
    65  H    0.068947
    66  H    0.046963
    67  H   -0.021615
    68  H    0.034784
    69  H    0.040929
    70  H    0.005699
    71  H    0.019288
    72  H    0.208181
    73  H    0.018272
    74  H    0.037648
    75  H    0.044032
    76  H    0.029599
    77  H    0.220610
    78  H    0.022365
    79  H   -0.004774
 Sum of Mulliken charges =   0.00000

 Dipole moment (field-independent basis, Debye):
    X=             -0.2330    Y=              4.5972    Z=              2.8628  Tot=              5.4207
 Quadrupole moment (field-independent basis, Debye-Ang):
   XX=           -227.2942   YY=           -237.6724   ZZ=           -265.6765
   XY=            -14.9237   XZ=             38.3863   YZ=              2.9059

 Normal termination of Gaussian 09 at Tue Jul  9 12:55:09 2019.
