 Gaussian 09, Revision D.01,
 Gaussian 09:  ES64L-G09RevD.01 24-Apr-2013

 --------------------------
 # td=(NStates=1) B3LYP/SVP
 --------------------------

 --
 TD
 --
 Symbolic Z-matrix:
 Charge =  0 Multiplicity = 1

                         Standard orientation:
 ---------------------------------------------------------------------
 Center     Atomic      Atomic             Coordinates (Angstroms)
 Number     Number       Type             X           Y           Z
 ---------------------------------------------------------------------
      1          8           0        5.214082   -0.306663   -3.363065
      2          8           0       -2.921431   -2.971032    3.429034
      3          8           0       -3.335204   -0.840544    3.078750
      4          8           0       -1.537605    7.256335    1.437104
      5          8           0       -0.653092    7.003096   -0.506752
      6          8           0       -1.774835   -3.989969   -0.167192
      7          7           0        2.405351    0.959622    0.575420
      8          7           0        4.382146   -0.693468   -1.221736
      9          7           0       -1.908201    0.613163   -0.466328
     10          7           0       -2.663792   -1.871653   -0.501895
     11          6           0        4.943908   -1.250025    0.030629
     12          6           0        4.479448   -0.373015    1.197111
     13          6           0        3.017915   -0.082591    1.322498
     14          6           0        2.037401   -0.655739    2.209711
     15          6           0        0.740620   -0.084042    1.799112
     16          6           0        0.956922    0.923862    0.808350
     17          6           0        6.405041   -1.313811   -0.155098
     18          6           0       -0.503310   -0.288263    2.584907
     19          6           0        6.730425   -0.905872   -1.362697
     20          6           0        0.222346    1.863639    0.173216
     21          6           0       -1.103124    1.767378   -0.358206
     22          6           0        5.428032   -0.631543   -2.181691
     23          6           0       -1.909149    2.909566   -0.857445
     24          6           0        2.255616   -1.637961    3.284558
     25          6           0        7.205766   -1.861001    0.937836
     26          6           0       -3.087253    2.363798   -1.326315
     27          6           0       -1.060078   -1.719803    2.582241
     28          6           0       -3.045372    0.870250   -1.046689
     29          6           0       -1.496215    4.338448   -0.848883
     30          6           0        8.015082   -0.799761   -2.096934
     31          6           0       -1.783210    5.099434    0.330734
     32          6           0       -4.258796    3.067267   -1.927423
     33          6           0       -4.096106   -0.025496   -1.294445
     34          6           0       -2.560827   -1.701528    3.023469
     35          6           0       -3.850441   -1.407094   -0.974817
     36          6           0        9.255241   -0.623608   -1.605831
     37          6           0       -1.260008    6.482153    0.405234
     38          6           0       -4.698813   -2.565310   -1.361780
     39          6           0       -3.987191   -3.668120   -1.097320
     40          6           0       -2.727424   -3.260723   -0.553083
     41          6           0       -6.066013   -2.400647   -1.834124
     42          6           0       -4.348263   -5.088099   -1.290832
     43          6           0       -6.833762   -3.328892   -2.592525
     44          1           0        4.353008   -2.232469   -0.014868
     45          1           0        4.983784    0.734623    0.904095
     46          1           0        4.772985   -0.533633    2.168283
     47          1           0        2.849870    1.472891   -0.382515
     48          1           0        3.218308   -0.406859   -1.299821
     49          1           0       -0.654131    0.115591    3.472212
     50          1           0       -1.413728    0.346778    2.047081
     51          1           0        0.630063    2.986557   -0.056242
     52          1           0        3.314220   -2.103065    3.359572
     53          1           0        2.000314   -1.216919    4.469261
     54          1           0        1.427737   -2.711518    3.265418
     55          1           0        6.432102   -2.556322    1.558198
     56          1           0        7.564220   -0.875915    1.582088
     57          1           0        7.992704   -2.310323    0.552602
     58          1           0       -0.984080   -2.188129    1.520376
     59          1           0       -0.470476   -2.374760    3.167326
     60          1           0       -1.692522   -0.518544   -0.313720
     61          1           0       -1.882675    4.770356   -1.680437
     62          1           0       -0.381626    4.409215   -0.899454
     63          1           0        7.829473   -0.737992   -3.129810
     64          1           0       -1.403345    4.719755    1.371272
     65          1           0       -2.934614    4.963326    0.555848
     66          1           0       -4.043074    4.110558   -2.150100
     67          1           0       -5.194338    3.048361   -1.261229
     68          1           0       -4.728789    2.677832   -2.737337
     69          1           0       -4.921809    0.337813   -1.866141
     70          1           0        9.290672   -0.567780   -0.362043
     71          1           0       10.058981   -0.299905   -2.260089
     72          1           0       -3.996957   -2.765693    3.345523
     73          1           0       -6.612498   -1.480975   -1.853313
     74          1           0       -4.218252   -5.187083   -2.522185
     75          1           0       -3.517417   -5.711230   -0.717918
     76          1           0       -5.507562   -5.310450   -1.168773
     77          1           0       -1.203098    8.224194    1.458005
     78          1           0       -7.905304   -2.913879   -2.880149
     79          1           0       -6.606440   -4.254952   -2.743078
 ---------------------------------------------------------------------

 SCF Done:  E(RB3LYP) =  -1947.76150581     A.U. after   20 cycles

 Excitation energies and oscillator strengths:

 Excited State   1:      Singlet-A      2.0978 eV  591.02 nm  f=0.4701  <S**2>=0.000
     154 ->156         0.14539
     155 ->156         0.69149
     155 <-156        -0.11034
 This state for optimization and/or second-order correction.
 Total Energy, E(TD-HF/TD-KS) =  -1947.68441245
 Copying the excited state density for this state as the 1-particle RhoCI density.

 The electronic state is 1-A.
 Alpha  occ. eigenvalues --  -19.18382 -19.16250 -19.12739 -19.11608 -19.10111
 Alpha  occ. eigenvalues --  -19.10082 -14.40120 -14.36612 -14.36002 -14.29724
 Alpha  occ. eigenvalues --  -10.32331 -10.30615 -10.29353 -10.26269 -10.25286
 Alpha  occ. eigenvalues --  -10.25236 -10.25040 -10.24568 -10.24199 -10.24124
 Alpha  occ. eigenvalues --  -10.23879 -10.23250 -10.22925 -10.22662 -10.22243
 Alpha  occ. eigenvalues --  -10.21700 -10.21480 -10.21478 -10.21367 -10.21333
 Alpha  occ. eigenvalues --  -10.21304 -10.21224 -10.21160 -10.21033 -10.20388
 Alpha  occ. eigenvalues --  -10.20278 -10.20132 -10.20022 -10.20014 -10.19530
 Alpha  occ. eigenvalues --  -10.19243 -10.19242 -10.19072  -1.10202  -1.09476
 Alpha  occ. eigenvalues --   -1.00626  -0.99801  -0.99454  -0.98843  -0.98386
 Alpha  occ. eigenvalues --   -0.95919  -0.92862  -0.92118  -0.84344  -0.82685
 Alpha  occ. eigenvalues --   -0.81832  -0.81000  -0.80603  -0.79315  -0.78864
 Alpha  occ. eigenvalues --   -0.77649  -0.76262  -0.75783  -0.74766  -0.72829
 Alpha  occ. eigenvalues --   -0.71573  -0.70700  -0.69527  -0.68955  -0.68085
 Alpha  occ. eigenvalues --   -0.66344  -0.65308  -0.63830  -0.61670  -0.60893
 Alpha  occ. eigenvalues --   -0.60378  -0.59119  -0.57608  -0.57166  -0.56232
 Alpha  occ. eigenvalues --   -0.55849  -0.55199  -0.54819  -0.54432  -0.53414
 Alpha  occ. eigenvalues --   -0.52539  -0.51857  -0.51235  -0.50323  -0.49736
 Alpha  occ. eigenvalues --   -0.49010  -0.48381  -0.48106  -0.48020  -0.47884
 Alpha  occ. eigenvalues --   -0.47306  -0.46943  -0.46626  -0.46266  -0.45701
 Alpha  occ. eigenvalues --   -0.45367  -0.45023  -0.44101  -0.44059  -0.43734
 Alpha  occ. eigenvalues --   -0.43424  -0.43296  -0.43200  -0.42807  -0.42739
 Alpha  occ. eigenvalues --   -0.42500  -0.42051  -0.41686  -0.41521  -0.41299
 Alpha  occ. eigenvalues --   -0.40554  -0.40250  -0.40099  -0.39822  -0.39658
 Alpha  occ. eigenvalues --   -0.39534  -0.39263  -0.38844  -0.38382  -0.38253
 Alpha  occ. eigenvalues --   -0.37767  -0.37592  -0.37214  -0.36921  -0.36527
 Alpha  occ. eigenvalues --   -0.36253  -0.36219  -0.35782  -0.35574  -0.34870
 Alpha  occ. eigenvalues --   -0.34227  -0.33545  -0.32185  -0.31921  -0.31412
 Alpha  occ. eigenvalues --   -0.30987  -0.30811  -0.28595  -0.28026  -0.27610
 Alpha  occ. eigenvalues --   -0.27487  -0.26182  -0.25639  -0.25287  -0.24996
 Alpha  occ. eigenvalues --   -0.24959  -0.24564  -0.24032  -0.22500  -0.19311
 Alpha virt. eigenvalues --   -0.11096  -0.07168  -0.05744  -0.02042  -0.01226
 Alpha virt. eigenvalues --   -0.00370  -0.00101   0.00899   0.00993   0.01892
 Alpha virt. eigenvalues --    0.02131   0.02377   0.03304   0.03482   0.03949

 Mulliken charges:
               1
     1  O   -0.245192
     2  O   -0.264294
     3  O   -0.178432
     4  O   -0.202052
     5  O   -0.241460
     6  O   -0.248667
     7  N   -0.237006
     8  N   -0.348864
     9  N   -0.102109
    10  N   -0.314718
    11  C    0.139676
    12  C    0.133696
    13  C   -0.056014
    14  C   -0.031694
    15  C   -0.012202
    16  C    0.185661
    17  C   -0.190177
    18  C    0.035729
    19  C   -0.062200
    20  C   -0.166535
    21  C    0.053997
    22  C    0.200917
    23  C   -0.100299
    24  C   -0.109220
    25  C    0.098982
    26  C   -0.129631
    27  C   -0.027982
    28  C    0.062436
    29  C    0.201863
    30  C    0.022336
    31  C   -0.072739
    32  C    0.135478
    33  C   -0.088364
    34  C    0.137090
    35  C    0.119182
    36  C   -0.050835
    37  C    0.128507
    38  C    0.084804
    39  C   -0.157633
    40  C    0.155291
    41  C   -0.051280
    42  C   -0.019698
    43  C   -0.006731
    44  H    0.042274
    45  H    0.020452
    46  H   -0.010794
    47  H    0.188825
    48  H    0.195720
    49  H   -0.030422
    50  H    0.033339
    51  H    0.037629
    52  H    0.034832
    53  H    0.054147
    54  H    0.069283
    55  H    0.052251
    56  H    0.063738
    57  H    0.001766
    58  H    0.087798
    59  H    0.004988
    60  H    0.225076
    61  H   -0.013419
    62  H    0.001951
    63  H   -0.005526
    64  H    0.047542
    65  H    0.053790
    66  H    0.009061
    67  H    0.020652
    68  H   -0.012970
    69  H   -0.033671
    70  H    0.038411
    71  H    0.038718
    72  H    0.207698
    73  H   -0.011654
    74  H    0.053441
    75  H    0.072966
    76  H    0.051883
    77  H    0.227242
    78  H    0.043658
    79  H   -0.040292
 Sum of Mulliken charges =   0.00000

 Dipole moment (field-independent basis, Debye):
    X=              0.2498    Y=              3.7159    Z=              3.2876  Tot=              4.9678
 Quadrupole moment (field-independent basis, Debye-Ang):
   XX=           -216.2389   YY=           -251.0939   ZZ=           -267.3609
   XY=             -9.8189   XZ=             34.3571   YZ=              8.0340

 Normal termination of Gaussian 09 at Mon Jul  8 21:16:01 2019.
