 Gaussian 09, Revision D.01,
 Gaussian 09:  ES64L-G09RevD.01 24-Apr-2013

 --------------------------
 # td=(NStates=1) B3LYP/SVP
 --------------------------

 --
 TD
 --
 Symbolic Z-matrix:
 Charge =  0 Multiplicity = 1

                         Standard orientation:
 ---------------------------------------------------------------------
 Center     Atomic      Atomic             Coordinates (Angstroms)
 Number     Number       Type             X           Y           Z
 ---------------------------------------------------------------------
      1          8           0        5.162116   -0.216539   -3.274856
      2          8           0       -2.685277   -3.080443    3.608626
      3          8           0       -3.233618   -0.828288    3.206029
      4          8           0       -1.751887    7.029642    1.590927
      5          8           0       -0.551843    6.917506   -0.256810
      6          8           0       -1.907691   -3.994200    0.054823
      7          7           0        2.348413    0.860975    0.529828
      8          7           0        4.409004   -0.593178   -1.153360
      9          7           0       -1.861172    0.717893   -0.445411
     10          7           0       -2.668575   -1.827562   -0.495005
     11          6           0        4.876598   -1.179546    0.075196
     12          6           0        4.480250   -0.294486    1.225238
     13          6           0        2.966038   -0.049984    1.363317
     14          6           0        1.907806   -0.654673    2.097982
     15          6           0        0.721724   -0.043776    1.715777
     16          6           0        0.963252    0.936552    0.755521
     17          6           0        6.340285   -1.295468   -0.219060
     18          6           0       -0.623714   -0.217996    2.473582
     19          6           0        6.627580   -0.789632   -1.434175
     20          6           0        0.211352    1.843440    0.038546
     21          6           0       -1.075932    1.794585   -0.361614
     22          6           0        5.312535   -0.395564   -2.042570
     23          6           0       -1.862287    2.889183   -0.970207
     24          6           0        2.269946   -1.617859    3.150968
     25          6           0        7.369549   -1.903497    0.773165
     26          6           0       -3.105701    2.370777   -1.252840
     27          6           0       -1.023242   -1.690817    2.607995
     28          6           0       -3.099729    0.933800   -1.057906
     29          6           0       -1.569667    4.381752   -0.997092
     30          6           0        7.902463   -0.674587   -2.203184
     31          6           0       -1.831701    4.941599    0.393242
     32          6           0       -4.281416    2.960806   -1.951928
     33          6           0       -4.029071   -0.091837   -1.396095
     34          6           0       -2.417269   -1.799232    3.176757
     35          6           0       -3.706921   -1.384305   -1.159039
     36          6           0        9.074862   -0.584809   -1.552731
     37          6           0       -1.299787    6.390923    0.493040
     38          6           0       -4.652792   -2.572687   -1.520006
     39          6           0       -3.989481   -3.701716   -1.233069
     40          6           0       -2.747866   -3.233409   -0.507899
     41          6           0       -6.042225   -2.377276   -2.034787
     42          6           0       -4.326146   -5.052551   -1.193643
     43          6           0       -6.783319   -3.192220   -2.773728
     44          1           0        4.454711   -2.187560    0.152654
     45          1           0        5.079259    0.693810    0.990151
     46          1           0        4.860924   -0.802118    2.188273
     47          1           0        2.827968    1.054169   -0.374128
     48          1           0        3.366802   -0.792246   -1.729772
     49          1           0       -0.635453    0.187214    3.409329
     50          1           0       -1.350097    0.398917    1.837252
     51          1           0        0.866534    2.668547   -0.196785
     52          1           0        3.225043   -1.772023    3.176303
     53          1           0        1.771395   -1.286566    3.930117
     54          1           0        1.827642   -2.602349    2.868863
     55          1           0        6.906391   -2.811546    1.235482
     56          1           0        7.692263   -1.256149    1.579796
     57          1           0        8.197757   -2.340290    0.319314
     58          1           0       -0.858318   -2.142532    1.662770
     59          1           0       -0.321191   -2.340949    3.394229
     60          1           0       -1.557554   -0.239858    0.005945
     61          1           0       -2.173102    4.835985   -1.754645
     62          1           0       -0.419526    4.495768   -1.219701
     63          1           0        7.887752   -0.640003   -3.194075
     64          1           0       -1.233965    4.256625    1.254548
     65          1           0       -2.806555    5.101810    1.115899
     66          1           0       -4.155862    3.977671   -1.804959
     67          1           0       -5.263966    2.802742   -1.362841
     68          1           0       -4.444228    2.906285   -3.039681
     69          1           0       -4.975478    0.209670   -1.631730
     70          1           0        9.397660   -0.583552   -0.554575
     71          1           0        9.992072   -0.477970   -2.187533
     72          1           0       -3.549640   -3.121973    4.062120
     73          1           0       -6.462424   -1.469041   -1.771101
     74          1           0       -4.541142   -5.515817   -2.181581
     75          1           0       -3.531177   -5.593602   -0.675170
     76          1           0       -5.417945   -5.107295   -0.660949
     77          1           0       -1.623422    7.993687    1.577276
     78          1           0       -7.695836   -2.828588   -2.879799
     79          1           0       -6.521216   -4.272129   -2.896094
 ---------------------------------------------------------------------

 SCF Done:  E(RB3LYP) =  -1947.85979282     A.U. after   17 cycles

 Excitation energies and oscillator strengths:

 Excited State   1:      Singlet-A      2.2073 eV  561.71 nm  f=0.5225  <S**2>=0.000
     154 ->156         0.11927
     155 ->156         0.69709
     155 <-156        -0.12337
 This state for optimization and/or second-order correction.
 Total Energy, E(TD-HF/TD-KS) =  -1947.77867763
 Copying the excited state density for this state as the 1-particle RhoCI density.

 The electronic state is 1-A.
 Alpha  occ. eigenvalues --  -19.17864 -19.17567 -19.12721 -19.11659 -19.09700
 Alpha  occ. eigenvalues --  -19.09207 -14.37916 -14.37537 -14.36579 -14.28473
 Alpha  occ. eigenvalues --  -10.31985 -10.31621 -10.27846 -10.25934 -10.25813
 Alpha  occ. eigenvalues --  -10.24572 -10.23867 -10.23841 -10.23523 -10.23478
 Alpha  occ. eigenvalues --  -10.22702 -10.22394 -10.22276 -10.22144 -10.21277
 Alpha  occ. eigenvalues --  -10.21183 -10.20764 -10.20661 -10.20266 -10.20223
 Alpha  occ. eigenvalues --  -10.19858 -10.19855 -10.19558 -10.19401 -10.19156
 Alpha  occ. eigenvalues --  -10.19079 -10.19026 -10.18980 -10.18351 -10.18078
 Alpha  occ. eigenvalues --  -10.17926 -10.17889 -10.17445  -1.10255  -1.06463
 Alpha  occ. eigenvalues --   -1.02732  -1.01351  -0.98720  -0.98385  -0.97901
 Alpha  occ. eigenvalues --   -0.97399  -0.95174  -0.91293  -0.82691  -0.82471
 Alpha  occ. eigenvalues --   -0.82351  -0.81816  -0.80617  -0.80125  -0.78190
 Alpha  occ. eigenvalues --   -0.77299  -0.77035  -0.76155  -0.75609  -0.73420
 Alpha  occ. eigenvalues --   -0.71988  -0.71828  -0.70186  -0.68978  -0.68442
 Alpha  occ. eigenvalues --   -0.67003  -0.66856  -0.63816  -0.61565  -0.60779
 Alpha  occ. eigenvalues --   -0.60247  -0.58967  -0.58252  -0.57725  -0.57158
 Alpha  occ. eigenvalues --   -0.56321  -0.55998  -0.55613  -0.54917  -0.53726
 Alpha  occ. eigenvalues --   -0.53123  -0.52404  -0.51122  -0.50210  -0.49648
 Alpha  occ. eigenvalues --   -0.49183  -0.48496  -0.48270  -0.47786  -0.47621
 Alpha  occ. eigenvalues --   -0.47271  -0.46695  -0.46273  -0.46117  -0.45848
 Alpha  occ. eigenvalues --   -0.45475  -0.44867  -0.44808  -0.44330  -0.43988
 Alpha  occ. eigenvalues --   -0.43760  -0.43317  -0.43228  -0.42992  -0.42463
 Alpha  occ. eigenvalues --   -0.42169  -0.41974  -0.41810  -0.41528  -0.41064
 Alpha  occ. eigenvalues --   -0.40748  -0.40646  -0.40472  -0.40092  -0.39796
 Alpha  occ. eigenvalues --   -0.39570  -0.39085  -0.38850  -0.38369  -0.37971
 Alpha  occ. eigenvalues --   -0.37868  -0.37678  -0.37635  -0.37302  -0.37157
 Alpha  occ. eigenvalues --   -0.36571  -0.35754  -0.35142  -0.35098  -0.34341
 Alpha  occ. eigenvalues --   -0.33827  -0.33055  -0.32901  -0.32683  -0.32110
 Alpha  occ. eigenvalues --   -0.30646  -0.30506  -0.28860  -0.28385  -0.27079
 Alpha  occ. eigenvalues --   -0.26669  -0.26211  -0.25598  -0.25473  -0.25162
 Alpha  occ. eigenvalues --   -0.24753  -0.24001  -0.23663  -0.22200  -0.18822
 Alpha virt. eigenvalues --   -0.10460  -0.05728  -0.05453  -0.00780  -0.00731
 Alpha virt. eigenvalues --   -0.00362   0.00039   0.00918   0.01526   0.03314
 Alpha virt. eigenvalues --    0.03937   0.04597   0.04962   0.05359   0.05526

 Mulliken charges:
               1
     1  O   -0.282441
     2  O   -0.196738
     3  O   -0.280264
     4  O   -0.199178
     5  O   -0.191516
     6  O   -0.260274
     7  N   -0.117813
     8  N   -0.206072
     9  N   -0.113411
    10  N   -0.249151
    11  C    0.123826
    12  C    0.142171
    13  C   -0.082835
    14  C   -0.193011
    15  C   -0.121796
    16  C    0.078966
    17  C   -0.205342
    18  C    0.111939
    19  C   -0.019143
    20  C   -0.101554
    21  C    0.114091
    22  C    0.094308
    23  C   -0.119450
    24  C    0.306069
    25  C    0.115654
    26  C   -0.130075
    27  C   -0.052037
    28  C    0.114789
    29  C    0.154762
    30  C    0.077285
    31  C   -0.143596
    32  C    0.122207
    33  C   -0.095791
    34  C    0.198509
    35  C    0.141632
    36  C   -0.028316
    37  C    0.124336
    38  C    0.027763
    39  C   -0.172826
    40  C    0.159115
    41  C   -0.034006
    42  C    0.047490
    43  C    0.051933
    44  H    0.019728
    45  H    0.023379
    46  H    0.024722
    47  H    0.129998
    48  H    0.201072
    49  H   -0.015901
    50  H    0.023620
    51  H   -0.012644
    52  H   -0.075294
    53  H   -0.017002
    54  H    0.021834
    55  H    0.004919
    56  H    0.036148
    57  H    0.009703
    58  H    0.059032
    59  H    0.045451
    60  H    0.191075
    61  H    0.019391
    62  H    0.048754
    63  H   -0.034669
    64  H    0.073085
    65  H    0.070278
    66  H   -0.036234
    67  H    0.025388
    68  H    0.044134
    69  H   -0.061764
    70  H    0.005564
    71  H    0.021459
    72  H    0.186210
    73  H   -0.031945
    74  H    0.026698
    75  H    0.034628
    76  H    0.036153
    77  H    0.187231
    78  H   -0.017608
    79  H    0.023199
 Sum of Mulliken charges =   0.00000

 Dipole moment (field-independent basis, Debye):
    X=              1.4822    Y=              2.0976    Z=              3.8874  Tot=              4.6593
 Quadrupole moment (field-independent basis, Debye-Ang):
   XX=           -212.7088   YY=           -246.4652   ZZ=           -260.3478
   XY=            -19.0123   XZ=             27.0691   YZ=              0.0995

 Normal termination of Gaussian 09 at Wed Jul 10 10:26:45 2019.
