 Gaussian 09, Revision D.01,
 Gaussian 09:  ES64L-G09RevD.01 24-Apr-2013

 --------------------------
 # td=(NStates=1) B3LYP/SVP
 --------------------------

 --
 TD
 --
 Symbolic Z-matrix:
 Charge =  0 Multiplicity = 1

                         Standard orientation:
 ---------------------------------------------------------------------
 Center     Atomic      Atomic             Coordinates (Angstroms)
 Number     Number       Type             X           Y           Z
 ---------------------------------------------------------------------
      1          8           0        5.317925   -0.193671   -3.411415
      2          8           0       -2.584820   -3.261536    3.432817
      3          8           0       -3.150769   -1.021182    3.186698
      4          8           0       -1.861888    7.063297    1.760429
      5          8           0       -0.930030    7.194738   -0.358158
      6          8           0       -1.973613   -4.001541    0.138144
      7          7           0        2.302188    0.940644    0.669050
      8          7           0        4.478628   -0.602243   -1.287573
      9          7           0       -1.832116    0.667370   -0.516912
     10          7           0       -2.645941   -1.844319   -0.555643
     11          6           0        4.807260   -1.106471   -0.029540
     12          6           0        4.411239   -0.080457    1.162154
     13          6           0        2.933306    0.011229    1.383430
     14          6           0        2.000285   -0.563378    2.182521
     15          6           0        0.727834    0.015180    1.779313
     16          6           0        0.978626    1.006104    0.819665
     17          6           0        6.334783   -1.212997   -0.121558
     18          6           0       -0.556957   -0.380986    2.461732
     19          6           0        6.723499   -0.781297   -1.383007
     20          6           0        0.193616    1.858124    0.042315
     21          6           0       -1.061384    1.807070   -0.382161
     22          6           0        5.441145   -0.608817   -2.272872
     23          6           0       -1.914406    2.909981   -0.944423
     24          6           0        2.147929   -1.559671    3.275595
     25          6           0        7.187181   -1.707714    0.940439
     26          6           0       -3.126324    2.285706   -1.363558
     27          6           0       -0.883521   -1.823516    2.369726
     28          6           0       -3.109183    0.914988   -1.071173
     29          6           0       -1.502123    4.340670   -0.941046
     30          6           0        8.055045   -0.746822   -2.053010
     31          6           0       -1.818508    5.089699    0.419761
     32          6           0       -4.291942    3.037477   -1.941011
     33          6           0       -4.091455   -0.064771   -1.266771
     34          6           0       -2.365143   -1.902410    3.023355
     35          6           0       -3.754074   -1.405553   -1.157781
     36          6           0        9.327584   -0.742003   -1.624083
     37          6           0       -1.460461    6.583538    0.478401
     38          6           0       -4.662606   -2.528883   -1.506976
     39          6           0       -4.039299   -3.744156   -1.074327
     40          6           0       -2.740354   -3.287023   -0.488885
     41          6           0       -5.951875   -2.328244   -2.117129
     42          6           0       -4.216612   -5.190492   -1.174383
     43          6           0       -6.870108   -3.327264   -2.520813
     44          1           0        4.460154   -2.146277    0.363612
     45          1           0        5.035397    0.795139    1.198729
     46          1           0        4.631355   -0.523383    2.173759
     47          1           0        2.905274    1.261763   -0.136173
     48          1           0        3.547545   -0.472078   -1.437164
     49          1           0       -0.346023   -0.141285    3.479035
     50          1           0       -1.592823    0.065171    2.287868
     51          1           0        0.829597    2.875455    0.069008
     52          1           0        3.338623   -2.010648    3.019134
     53          1           0        1.991630   -0.948378    4.428124
     54          1           0        1.285432   -2.556822    3.312883
     55          1           0        6.451004   -1.935737    1.985906
     56          1           0        8.012071   -0.689943    1.203153
     57          1           0        7.720105   -2.632242    0.333063
     58          1           0       -0.983428   -2.166481    1.320213
     59          1           0       -0.335452   -2.609131    2.711157
     60          1           0       -1.374040   -0.373512   -0.693382
     61          1           0       -2.141232    4.766940   -1.838441
     62          1           0       -0.542542    4.419575   -1.145099
     63          1           0        7.779814   -0.612759   -3.115529
     64          1           0       -1.279103    4.583128    1.241705
     65          1           0       -2.895294    5.035575    0.736602
     66          1           0       -4.158354    4.049203   -2.684123
     67          1           0       -5.018873    3.205723   -1.144386
     68          1           0       -4.621766    2.207143   -2.779643
     69          1           0       -4.993847    0.246840   -2.097550
     70          1           0        9.591026   -1.165486   -0.585870
     71          1           0       10.103990   -0.527839   -2.212655
     72          1           0       -3.588057   -3.204666    3.805699
     73          1           0       -6.526748   -1.404542   -2.193260
     74          1           0       -4.288594   -5.636855   -2.177172
     75          1           0       -3.586144   -5.640287   -0.454233
     76          1           0       -5.250675   -5.532634   -0.898928
     77          1           0       -1.388567    7.841091    1.721861
     78          1           0       -7.899263   -3.098955   -2.695968
     79          1           0       -6.643909   -4.294862   -2.675900
 ---------------------------------------------------------------------

 SCF Done:  E(RB3LYP) =  -1947.73296796     A.U. after   16 cycles

 Excitation energies and oscillator strengths:

 Excited State   1:      Singlet-A      2.0229 eV  612.91 nm  f=0.3271  <S**2>=0.000
     154 ->156         0.27341
     155 ->156         0.64749
 This state for optimization and/or second-order correction.
 Total Energy, E(TD-HF/TD-KS) =  -1947.65862839
 Copying the excited state density for this state as the 1-particle RhoCI density.

 The electronic state is 1-A.
 Alpha  occ. eigenvalues --  -19.17911 -19.16399 -19.15488 -19.13221 -19.11679
 Alpha  occ. eigenvalues --  -19.11136 -14.38262 -14.36345 -14.36334 -14.29108
 Alpha  occ. eigenvalues --  -10.33295 -10.30971 -10.30105 -10.26689 -10.26403
 Alpha  occ. eigenvalues --  -10.25569 -10.25028 -10.24367 -10.24098 -10.23122
 Alpha  occ. eigenvalues --  -10.22898 -10.22692 -10.22658 -10.22602 -10.22437
 Alpha  occ. eigenvalues --  -10.22409 -10.22170 -10.22118 -10.21329 -10.21278
 Alpha  occ. eigenvalues --  -10.21157 -10.20855 -10.20811 -10.20413 -10.20394
 Alpha  occ. eigenvalues --  -10.20363 -10.19388 -10.19371 -10.19188 -10.19150
 Alpha  occ. eigenvalues --  -10.18594 -10.18013 -10.17699  -1.11380  -1.06674
 Alpha  occ. eigenvalues --   -1.03767  -1.03738  -1.01711  -1.01304  -0.97962
 Alpha  occ. eigenvalues --   -0.96836  -0.96491  -0.91344  -0.83030  -0.82370
 Alpha  occ. eigenvalues --   -0.81922  -0.81326  -0.80272  -0.79558  -0.77530
 Alpha  occ. eigenvalues --   -0.77061  -0.76402  -0.75975  -0.74881  -0.72559
 Alpha  occ. eigenvalues --   -0.71363  -0.70518  -0.69784  -0.68274  -0.67635
 Alpha  occ. eigenvalues --   -0.66958  -0.65546  -0.64627  -0.63048  -0.61157
 Alpha  occ. eigenvalues --   -0.58889  -0.58438  -0.57549  -0.56918  -0.55940
 Alpha  occ. eigenvalues --   -0.55322  -0.54959  -0.54232  -0.53701  -0.53232
 Alpha  occ. eigenvalues --   -0.52767  -0.51932  -0.51019  -0.50654  -0.49959
 Alpha  occ. eigenvalues --   -0.49515  -0.49237  -0.49167  -0.48183  -0.47762
 Alpha  occ. eigenvalues --   -0.47338  -0.46963  -0.46653  -0.46050  -0.45640
 Alpha  occ. eigenvalues --   -0.45074  -0.44655  -0.44456  -0.43994  -0.43771
 Alpha  occ. eigenvalues --   -0.43383  -0.43287  -0.43104  -0.42367  -0.42328
 Alpha  occ. eigenvalues --   -0.42151  -0.41997  -0.41607  -0.41535  -0.41249
 Alpha  occ. eigenvalues --   -0.40839  -0.40363  -0.40316  -0.39872  -0.39493
 Alpha  occ. eigenvalues --   -0.39380  -0.38958  -0.38907  -0.38348  -0.38327
 Alpha  occ. eigenvalues --   -0.38065  -0.37898  -0.37727  -0.37109  -0.36684
 Alpha  occ. eigenvalues --   -0.35904  -0.35756  -0.35368  -0.34979  -0.34472
 Alpha  occ. eigenvalues --   -0.34179  -0.33926  -0.33625  -0.31698  -0.31158
 Alpha  occ. eigenvalues --   -0.30894  -0.30580  -0.30208  -0.28799  -0.27803
 Alpha  occ. eigenvalues --   -0.27532  -0.27499  -0.26857  -0.25481  -0.24422
 Alpha  occ. eigenvalues --   -0.24304  -0.23901  -0.23636  -0.21587  -0.19732
 Alpha virt. eigenvalues --   -0.11429  -0.07422  -0.06522  -0.01354  -0.00676
 Alpha virt. eigenvalues --   -0.00485   0.00068   0.01270   0.01564   0.02664
 Alpha virt. eigenvalues --    0.02700   0.02776   0.03235   0.04337   0.04471

 Mulliken charges:
               1
     1  O   -0.217683
     2  O   -0.282552
     3  O   -0.199879
     4  O   -0.197332
     5  O   -0.152732
     6  O   -0.207015
     7  N   -0.020571
     8  N   -0.115806
     9  N   -0.169402
    10  N   -0.315897
    11  C    0.104576
    12  C    0.098806
    13  C   -0.120979
    14  C   -0.047451
    15  C   -0.111105
    16  C    0.048252
    17  C   -0.162843
    18  C    0.099636
    19  C   -0.108546
    20  C   -0.133373
    21  C    0.131493
    22  C    0.189814
    23  C   -0.111110
    24  C   -0.120428
    25  C   -0.099304
    26  C   -0.100015
    27  C    0.024343
    28  C    0.118716
    29  C    0.192076
    30  C    0.005249
    31  C   -0.031903
    32  C   -0.032543
    33  C   -0.137221
    34  C    0.158919
    35  C    0.072698
    36  C   -0.004402
    37  C    0.136103
    38  C    0.099632
    39  C   -0.172781
    40  C    0.164369
    41  C   -0.080581
    42  C    0.120535
    43  C   -0.006575
    44  H    0.032890
    45  H    0.010114
    46  H    0.008207
    47  H    0.119047
    48  H    0.083756
    49  H   -0.014892
    50  H    0.052499
    51  H    0.028011
    52  H    0.031751
    53  H    0.060785
    54  H    0.083352
    55  H    0.062717
    56  H    0.086458
    57  H    0.098045
    58  H    0.056006
    59  H   -0.030537
    60  H    0.210801
    61  H    0.027157
    62  H   -0.034692
    63  H    0.011969
    64  H    0.045043
    65  H    0.046627
    66  H    0.062691
    67  H    0.054737
    68  H    0.043897
    69  H    0.042058
    70  H    0.027358
    71  H   -0.004774
    72  H    0.204150
    73  H    0.003261
    74  H    0.030128
    75  H    0.025055
    76  H   -0.001752
    77  H    0.133711
    78  H    0.019382
    79  H   -0.020204
 Sum of Mulliken charges =   0.00000

 Dipole moment (field-independent basis, Debye):
    X=              0.5531    Y=              2.0184    Z=              1.7687  Tot=              2.7401
 Quadrupole moment (field-independent basis, Debye-Ang):
   XX=           -226.4999   YY=           -252.2591   ZZ=           -266.6826
   XY=             -2.8921   XZ=             31.7735   YZ=              6.4687

 Normal termination of Gaussian 09 at Tue Jul  9 07:30:54 2019.
