 Gaussian 09, Revision D.01,
 Gaussian 09:  ES64L-G09RevD.01 24-Apr-2013

 --------------------------
 # td=(NStates=1) B3LYP/SVP
 --------------------------

 --
 TD
 --
 Symbolic Z-matrix:
 Charge =  0 Multiplicity = 1

                         Standard orientation:
 ---------------------------------------------------------------------
 Center     Atomic      Atomic             Coordinates (Angstroms)
 Number     Number       Type             X           Y           Z
 ---------------------------------------------------------------------
      1          8           0        5.490399   -0.100578   -3.333432
      2          8           0       -2.998473   -3.139894    3.282127
      3          8           0       -3.193623   -0.913722    3.430115
      4          8           0       -1.010482    7.260300    1.600691
      5          8           0       -0.147483    6.926025   -0.446337
      6          8           0       -2.209132   -3.981811   -0.249480
      7          7           0        2.380145    0.708460    0.611551
      8          7           0        4.401810   -0.751464   -1.262247
      9          7           0       -1.978814    0.727914   -0.358938
     10          7           0       -2.804582   -1.734060   -0.472933
     11          6           0        4.678492   -1.348606   -0.117226
     12          6           0        4.419764   -0.608089    1.227386
     13          6           0        2.994594   -0.293767    1.249459
     14          6           0        1.965434   -0.810026    2.104083
     15          6           0        0.792425   -0.228437    1.766970
     16          6           0        0.978423    0.799613    0.724735
     17          6           0        6.270182   -1.590110   -0.256797
     18          6           0       -0.507139   -0.320042    2.594861
     19          6           0        6.671429   -1.164257   -1.415799
     20          6           0        0.230723    1.855624    0.224512
     21          6           0       -1.134816    1.819596   -0.225488
     22          6           0        5.506397   -0.596899   -2.235107
     23          6           0       -1.769493    3.050053   -0.735583
     24          6           0        2.172849   -1.970845    3.051270
     25          6           0        7.045319   -2.256829    0.751986
     26          6           0       -3.042706    2.566873   -1.186558
     27          6           0       -1.163023   -1.732951    2.427466
     28          6           0       -3.009056    1.091764   -1.012170
     29          6           0       -1.139957    4.386243   -0.705786
     30          6           0        8.028609   -0.970105   -2.065923
     31          6           0       -1.410598    5.097326    0.545938
     32          6           0       -4.169155    3.391529   -1.774915
     33          6           0       -4.042261    0.095039   -1.298144
     34          6           0       -2.527907   -1.896549    3.025815
     35          6           0       -4.049905   -1.227887   -1.068281
     36          6           0        9.181365   -0.767099   -1.458555
     37          6           0       -0.704314    6.551044    0.488184
     38          6           0       -4.951170   -2.237691   -1.521965
     39          6           0       -4.350001   -3.408045   -1.161858
     40          6           0       -2.989414   -3.092099   -0.631140
     41          6           0       -6.251324   -1.947560   -2.204364
     42          6           0       -4.781064   -4.876785   -1.400547
     43          6           0       -7.246480   -2.857234   -2.594140
     44          1           0        4.210971   -2.431743   -0.044741
     45          1           0        4.951082    0.429391    1.335864
     46          1           0        4.821677   -1.162271    2.033414
     47          1           0        2.915942    0.995083   -0.298851
     48          1           0        3.605668   -0.911486   -1.472429
     49          1           0       -0.423911   -0.162091    3.803278
     50          1           0       -1.212991    0.530483    2.370771
     51          1           0        0.727235    2.694838    0.081238
     52          1           0        3.242255   -2.046739    3.272093
     53          1           0        1.641951   -1.719981    3.990336
     54          1           0        1.676061   -2.883826    2.702338
     55          1           0        6.633463   -3.262430    1.177615
     56          1           0        7.183849   -1.477238    1.836974
     57          1           0        8.144726   -2.339015    0.281942
     58          1           0       -1.200665   -2.182108    1.353512
     59          1           0       -0.529095   -2.414968    3.053488
     60          1           0       -1.712219   -0.256914   -0.300070
     61          1           0       -1.451262    5.044327   -1.586741
     62          1           0       -0.146414    4.296855   -0.878936
     63          1           0        8.066105   -1.015331   -3.242932
     64          1           0       -0.808137    4.657695    1.427801
     65          1           0       -2.406053    4.942989    0.741461
     66          1           0       -3.867590    4.378619   -1.888059
     67          1           0       -5.027486    3.183672   -1.147471
     68          1           0       -4.465318    3.150376   -2.769382
     69          1           0       -4.870546    0.680261   -1.611262
     70          1           0        9.283639   -0.721492   -0.380904
     71          1           0       10.183489   -0.567522   -1.880080
     72          1           0       -3.817457   -2.928502    3.737699
     73          1           0       -6.374660   -0.631753   -2.240596
     74          1           0       -5.033336   -5.154188   -2.517902
     75          1           0       -4.126726   -5.561334   -1.006350
     76          1           0       -5.683826   -4.959282   -0.843692
     77          1           0       -0.436180    8.096434    1.563479
     78          1           0       -8.197378   -2.415198   -3.023916
     79          1           0       -7.113747   -3.950860   -2.194400
 ---------------------------------------------------------------------

 SCF Done:  E(RB3LYP) =  -1947.80319854     A.U. after   19 cycles

 Excitation energies and oscillator strengths:

 Excited State   1:      Singlet-A      1.9265 eV  643.58 nm  f=0.2751  <S**2>=0.000
     154 ->156         0.27251
     155 ->156         0.65165
     155 <-156        -0.10863
 This state for optimization and/or second-order correction.
 Total Energy, E(TD-HF/TD-KS) =  -1947.73240178
 Copying the excited state density for this state as the 1-particle RhoCI density.

 The electronic state is 1-A.
 Alpha  occ. eigenvalues --  -19.19685 -19.16449 -19.15015 -19.14117 -19.09888
 Alpha  occ. eigenvalues --  -19.06965 -14.39949 -14.37106 -14.34933 -14.27196
 Alpha  occ. eigenvalues --  -10.33334 -10.31802 -10.30090 -10.26197 -10.24714
 Alpha  occ. eigenvalues --  -10.24509 -10.24493 -10.24225 -10.23935 -10.23505
 Alpha  occ. eigenvalues --  -10.23115 -10.22622 -10.22257 -10.22234 -10.22018
 Alpha  occ. eigenvalues --  -10.21833 -10.21703 -10.21645 -10.21531 -10.21108
 Alpha  occ. eigenvalues --  -10.20710 -10.20440 -10.20389 -10.20337 -10.20207
 Alpha  occ. eigenvalues --  -10.19880 -10.19394 -10.19359 -10.19305 -10.18953
 Alpha  occ. eigenvalues --  -10.18829 -10.17866 -10.17565  -1.12256  -1.07625
 Alpha  occ. eigenvalues --   -1.05646  -1.03947  -1.00801  -1.00141  -0.98886
 Alpha  occ. eigenvalues --   -0.97341  -0.96311  -0.88612  -0.84648  -0.84184
 Alpha  occ. eigenvalues --   -0.82488  -0.81314  -0.79751  -0.78716  -0.77841
 Alpha  occ. eigenvalues --   -0.77310  -0.76139  -0.75597  -0.73429  -0.72813
 Alpha  occ. eigenvalues --   -0.72167  -0.71330  -0.69712  -0.68799  -0.68152
 Alpha  occ. eigenvalues --   -0.66757  -0.66242  -0.64120  -0.63349  -0.60935
 Alpha  occ. eigenvalues --   -0.60064  -0.59416  -0.58240  -0.57830  -0.57610
 Alpha  occ. eigenvalues --   -0.57078  -0.55942  -0.54665  -0.54211  -0.53571
 Alpha  occ. eigenvalues --   -0.53091  -0.51950  -0.51522  -0.50326  -0.49990
 Alpha  occ. eigenvalues --   -0.49668  -0.49358  -0.49288  -0.48515  -0.47730
 Alpha  occ. eigenvalues --   -0.47229  -0.46713  -0.46539  -0.46083  -0.45970
 Alpha  occ. eigenvalues --   -0.45802  -0.45183  -0.44920  -0.44388  -0.43985
 Alpha  occ. eigenvalues --   -0.43867  -0.43561  -0.43509  -0.43061  -0.42404
 Alpha  occ. eigenvalues --   -0.42300  -0.41838  -0.41623  -0.41263  -0.40963
 Alpha  occ. eigenvalues --   -0.40801  -0.40353  -0.40209  -0.40181  -0.39955
 Alpha  occ. eigenvalues --   -0.39574  -0.39231  -0.38833  -0.38450  -0.38307
 Alpha  occ. eigenvalues --   -0.38055  -0.37790  -0.37626  -0.37178  -0.36363
 Alpha  occ. eigenvalues --   -0.35923  -0.35526  -0.35037  -0.34938  -0.34462
 Alpha  occ. eigenvalues --   -0.33507  -0.33047  -0.32433  -0.32337  -0.32158
 Alpha  occ. eigenvalues --   -0.30800  -0.29872  -0.29394  -0.29152  -0.28188
 Alpha  occ. eigenvalues --   -0.27402  -0.26546  -0.26535  -0.26131  -0.25848
 Alpha  occ. eigenvalues --   -0.25260  -0.23108  -0.21576  -0.20902  -0.18455
 Alpha virt. eigenvalues --   -0.10756  -0.06554  -0.05803  -0.01151  -0.00801
 Alpha virt. eigenvalues --    0.00031   0.00412   0.01551   0.01764   0.02617
 Alpha virt. eigenvalues --    0.03282   0.03946   0.04316   0.04720   0.04940

 Mulliken charges:
               1
     1  O   -0.163388
     2  O   -0.163002
     3  O   -0.296813
     4  O   -0.204318
     5  O   -0.151055
     6  O   -0.266971
     7  N   -0.086190
     8  N   -0.065589
     9  N    0.067137
    10  N   -0.374454
    11  C   -0.042843
    12  C    0.205151
    13  C   -0.118892
    14  C   -0.143133
    15  C   -0.050392
    16  C    0.098062
    17  C   -0.138544
    18  C    0.003640
    19  C   -0.033640
    20  C   -0.033831
    21  C    0.060697
    22  C    0.194829
    23  C   -0.110003
    24  C    0.119451
    25  C   -0.073195
    26  C   -0.162904
    27  C   -0.030979
    28  C   -0.036163
    29  C    0.167410
    30  C   -0.003919
    31  C   -0.021517
    32  C    0.171586
    33  C   -0.085394
    34  C    0.148490
    35  C    0.170175
    36  C   -0.053368
    37  C    0.132390
    38  C    0.046346
    39  C   -0.204858
    40  C    0.150072
    41  C   -0.062672
    42  C    0.129221
    43  C   -0.071396
    44  H    0.040092
    45  H    0.024825
    46  H   -0.014928
    47  H    0.141643
    48  H    0.036039
    49  H    0.030357
    50  H    0.030302
    51  H   -0.071715
    52  H   -0.004375
    53  H    0.014929
    54  H    0.054182
    55  H    0.064572
    56  H    0.052856
    57  H    0.059268
    58  H    0.105101
    59  H    0.021999
    60  H    0.148624
    61  H    0.024292
    62  H   -0.035416
    63  H    0.048453
    64  H    0.037500
    65  H    0.017625
    66  H   -0.011883
    67  H    0.031328
    68  H    0.011738
    69  H   -0.063919
    70  H    0.012464
    71  H    0.036316
    72  H    0.167323
    73  H    0.037455
    74  H    0.042909
    75  H   -0.005969
    76  H    0.010565
    77  H    0.195838
    78  H    0.044392
    79  H    0.049983
 Sum of Mulliken charges =   0.00000

 Dipole moment (field-independent basis, Debye):
    X=              5.4935    Y=              4.3800    Z=              2.6886  Tot=              7.5227
 Quadrupole moment (field-independent basis, Debye-Ang):
   XX=           -219.1833   YY=           -243.3723   ZZ=           -264.6376
   XY=            -16.8191   XZ=             26.1616   YZ=              1.3597

 Normal termination of Gaussian 09 at Wed Jul 10 08:36:36 2019.
