 Gaussian 09, Revision D.01,
 Gaussian 09:  ES64L-G09RevD.01 24-Apr-2013

 --------------------------
 # td=(NStates=1) B3LYP/SVP
 --------------------------

 --
 TD
 --
 Symbolic Z-matrix:
 Charge =  0 Multiplicity = 1

                         Standard orientation:
 ---------------------------------------------------------------------
 Center     Atomic      Atomic             Coordinates (Angstroms)
 Number     Number       Type             X           Y           Z
 ---------------------------------------------------------------------
      1          8           0        5.244051   -0.268790   -3.378071
      2          8           0       -2.633990   -3.101437    3.339399
      3          8           0       -3.298703   -1.003256    3.194640
      4          8           0       -2.219272    7.166607    1.485840
      5          8           0       -0.952296    7.052235   -0.409915
      6          8           0       -1.809623   -4.027718    0.087663
      7          7           0        2.359163    1.088882    0.592662
      8          7           0        4.411385   -0.574848   -1.236723
      9          7           0       -1.750225    0.620283   -0.480908
     10          7           0       -2.563120   -2.009728   -0.618840
     11          6           0        4.834899   -1.126395    0.028821
     12          6           0        4.480769   -0.091442    1.245234
     13          6           0        3.041754    0.103796    1.344902
     14          6           0        2.090273   -0.452279    2.216918
     15          6           0        0.777417    0.078699    1.871115
     16          6           0        1.000711    0.980231    0.857966
     17          6           0        6.401635   -1.177731   -0.169498
     18          6           0       -0.500711   -0.101192    2.481904
     19          6           0        6.651253   -0.869441   -1.445599
     20          6           0        0.203971    1.965884    0.219880
     21          6           0       -1.065945    1.837797   -0.385611
     22          6           0        5.417142   -0.525468   -2.183804
     23          6           0       -2.007264    2.859656   -0.838814
     24          6           0        2.366984   -1.486161    3.248368
     25          6           0        7.345794   -1.690679    0.935625
     26          6           0       -3.108804    2.283279   -1.335809
     27          6           0       -0.928664   -1.608327    2.428800
     28          6           0       -2.999728    0.811221   -1.031442
     29          6           0       -1.503552    4.400011   -0.903467
     30          6           0        8.060794   -0.783982   -2.171996
     31          6           0       -1.967688    5.049834    0.323528
     32          6           0       -4.270904    2.817086   -2.131288
     33          6           0       -3.837858   -0.306825   -1.451469
     34          6           0       -2.445800   -1.857554    2.993779
     35          6           0       -3.651586   -1.620403   -1.167301
     36          6           0        9.258499   -0.661405   -1.567264
     37          6           0       -1.629967    6.551726    0.431361
     38          6           0       -4.659616   -2.665194   -1.454488
     39          6           0       -4.036252   -3.802365   -1.008645
     40          6           0       -2.741404   -3.405193   -0.384650
     41          6           0       -5.987247   -2.358281   -2.027986
     42          6           0       -4.420952   -5.290034   -0.974316
     43          6           0       -6.948370   -3.306768   -2.465208
     44          1           0        4.353727   -2.095109    0.125005
     45          1           0        5.128635    0.640891    0.838410
     46          1           0        4.891107   -0.364585    2.355604
     47          1           0        2.717876    1.664044   -0.160218
     48          1           0        3.434586   -0.591509   -1.588223
     49          1           0       -0.695590    0.024611    3.638947
     50          1           0       -1.435438    0.672592    2.362096
     51          1           0        0.658488    3.030013   -0.150937
     52          1           0        3.541931   -1.615270    3.189757
     53          1           0        2.058287   -1.313662    4.248927
     54          1           0        1.991777   -2.500045    2.982823
     55          1           0        6.831598   -2.482455    1.511911
     56          1           0        7.844791   -0.809779    1.507075
     57          1           0        8.191299   -2.131682    0.406559
     58          1           0       -1.168288   -2.029084    1.458025
     59          1           0       -0.104939   -2.152563    3.044655
     60          1           0       -1.556743   -0.317480   -0.292918
     61          1           0       -2.028333    4.974362   -1.791579
     62          1           0       -0.452215    4.471930   -0.911069
     63          1           0        7.883369   -0.625590   -3.196365
     64          1           0       -1.513399    4.685082    1.313462
     65          1           0       -3.001389    4.914030    0.448666
     66          1           0       -4.400207    3.879355   -2.200301
     67          1           0       -5.383808    2.554692   -1.778496
     68          1           0       -3.957638    2.403739   -3.083822
     69          1           0       -4.890931    0.183724   -1.861166
     70          1           0        9.398706   -0.995365   -0.553505
     71          1           0       10.216709   -0.692452   -2.158593
     72          1           0       -3.482218   -3.338049    3.685653
     73          1           0       -6.133793   -1.318022   -2.145573
     74          1           0       -4.542223   -5.625369   -2.046297
     75          1           0       -3.647098   -5.922864   -0.442692
     76          1           0       -5.383155   -5.493813   -0.638586
     77          1           0       -1.756835    8.126839    1.553482
     78          1           0       -7.872637   -3.013600   -2.796619
     79          1           0       -6.895265   -4.523403   -2.401175
 ---------------------------------------------------------------------

 SCF Done:  E(RB3LYP) =  -1947.88470536     A.U. after   17 cycles

 Excitation energies and oscillator strengths:

 Excited State   1:      Singlet-A      2.0591 eV  602.12 nm  f=0.4614  <S**2>=0.000
     155 ->156         0.69460
     155 <-156        -0.11136
 This state for optimization and/or second-order correction.
 Total Energy, E(TD-HF/TD-KS) =  -1947.80903382
 Copying the excited state density for this state as the 1-particle RhoCI density.

 The electronic state is 1-A.
 Alpha  occ. eigenvalues --  -19.19778 -19.17017 -19.13375 -19.10572 -19.10271
 Alpha  occ. eigenvalues --  -19.10128 -14.38004 -14.36326 -14.35750 -14.27711
 Alpha  occ. eigenvalues --  -10.32296 -10.30733 -10.28847 -10.25962 -10.25614
 Alpha  occ. eigenvalues --  -10.25200 -10.24660 -10.23613 -10.22796 -10.22758
 Alpha  occ. eigenvalues --  -10.22711 -10.22670 -10.22146 -10.21668 -10.21661
 Alpha  occ. eigenvalues --  -10.21603 -10.21558 -10.21344 -10.21117 -10.21106
 Alpha  occ. eigenvalues --  -10.21070 -10.21043 -10.20508 -10.20160 -10.20095
 Alpha  occ. eigenvalues --  -10.20091 -10.20035 -10.19984 -10.19840 -10.19564
 Alpha  occ. eigenvalues --  -10.19533 -10.19445 -10.18823  -1.09732  -1.09368
 Alpha  occ. eigenvalues --   -1.02053  -1.01735  -1.01390  -0.98336  -0.98009
 Alpha  occ. eigenvalues --   -0.97548  -0.94136  -0.92736  -0.82764  -0.81671
 Alpha  occ. eigenvalues --   -0.81537  -0.81255  -0.79575  -0.79323  -0.78053
 Alpha  occ. eigenvalues --   -0.76408  -0.75485  -0.75043  -0.73706  -0.72309
 Alpha  occ. eigenvalues --   -0.71946  -0.71394  -0.69454  -0.68971  -0.67453
 Alpha  occ. eigenvalues --   -0.67100  -0.66143  -0.63739  -0.61307  -0.60556
 Alpha  occ. eigenvalues --   -0.60220  -0.59307  -0.58558  -0.58041  -0.56826
 Alpha  occ. eigenvalues --   -0.56558  -0.55688  -0.55045  -0.54082  -0.52908
 Alpha  occ. eigenvalues --   -0.52627  -0.52118  -0.51350  -0.50665  -0.49593
 Alpha  occ. eigenvalues --   -0.48802  -0.48557  -0.48270  -0.47422  -0.47015
 Alpha  occ. eigenvalues --   -0.46535  -0.46188  -0.45908  -0.45778  -0.45394
 Alpha  occ. eigenvalues --   -0.44746  -0.44551  -0.44190  -0.43934  -0.43584
 Alpha  occ. eigenvalues --   -0.43369  -0.43150  -0.42875  -0.42754  -0.42465
 Alpha  occ. eigenvalues --   -0.42205  -0.41983  -0.41785  -0.41304  -0.41102
 Alpha  occ. eigenvalues --   -0.40803  -0.40359  -0.40098  -0.39968  -0.39657
 Alpha  occ. eigenvalues --   -0.39556  -0.39230  -0.38862  -0.38712  -0.38515
 Alpha  occ. eigenvalues --   -0.37828  -0.37360  -0.37141  -0.36739  -0.36262
 Alpha  occ. eigenvalues --   -0.35788  -0.35726  -0.35272  -0.34933  -0.34711
 Alpha  occ. eigenvalues --   -0.34154  -0.33734  -0.33532  -0.31495  -0.30623
 Alpha  occ. eigenvalues --   -0.30509  -0.30220  -0.28684  -0.28308  -0.27380
 Alpha  occ. eigenvalues --   -0.26728  -0.26574  -0.25907  -0.25703  -0.25594
 Alpha  occ. eigenvalues --   -0.24326  -0.23888  -0.23551  -0.22115  -0.18771
 Alpha virt. eigenvalues --   -0.10638  -0.06592  -0.05828  -0.01059   0.00005
 Alpha virt. eigenvalues --    0.00576   0.00665   0.01825   0.02346   0.02679
 Alpha virt. eigenvalues --    0.03328   0.03969   0.04432   0.04871   0.05699

 Mulliken charges:
               1
     1  O   -0.234462
     2  O   -0.128171
     3  O   -0.251426
     4  O   -0.232458
     5  O   -0.205717
     6  O   -0.191135
     7  N   -0.107842
     8  N   -0.217024
     9  N   -0.039713
    10  N   -0.250372
    11  C    0.078103
    12  C    0.114025
    13  C   -0.007021
    14  C   -0.134872
    15  C    0.084646
    16  C    0.091491
    17  C   -0.215176
    18  C   -0.099373
    19  C   -0.065751
    20  C   -0.126520
    21  C    0.058340
    22  C    0.153937
    23  C   -0.089100
    24  C    0.069691
    25  C    0.078150
    26  C   -0.119566
    27  C   -0.062806
    28  C    0.012367
    29  C    0.160459
    30  C    0.049840
    31  C   -0.033698
    32  C    0.068118
    33  C   -0.160137
    34  C    0.103959
    35  C    0.114009
    36  C   -0.022587
    37  C    0.131231
    38  C    0.037082
    39  C   -0.218898
    40  C    0.136471
    41  C    0.024766
    42  C    0.108036
    43  C   -0.035116
    44  H    0.026639
    45  H   -0.020030
    46  H    0.052726
    47  H    0.117706
    48  H    0.139691
    49  H    0.016350
    50  H    0.054568
    51  H    0.024949
    52  H   -0.004701
    53  H    0.020626
    54  H    0.047241
    55  H    0.036672
    56  H    0.057504
    57  H    0.032264
    58  H    0.075240
    59  H    0.044634
    60  H    0.110302
    61  H    0.037933
    62  H   -0.005602
    63  H   -0.002190
    64  H    0.044160
    65  H    0.016059
    66  H    0.004645
    67  H    0.054398
    68  H    0.045921
    69  H    0.020438
    70  H    0.002662
    71  H    0.040261
    72  H    0.168808
    73  H   -0.030160
    74  H    0.022087
    75  H    0.042158
    76  H   -0.000883
    77  H    0.224210
    78  H    0.005404
    79  H    0.051529
 Sum of Mulliken charges =   0.00000

 Dipole moment (field-independent basis, Debye):
    X=              0.5831    Y=              2.2194    Z=              3.4264  Tot=              4.1239
 Quadrupole moment (field-independent basis, Debye-Ang):
   XX=           -215.0508   YY=           -239.2014   ZZ=           -263.5316
   XY=             -7.3565   XZ=             32.0388   YZ=              1.3680

 Normal termination of Gaussian 09 at Sun Jul  7 15:05:45 2019.
