 Gaussian 09, Revision D.01,
 Gaussian 09:  ES64L-G09RevD.01 24-Apr-2013

 --------------------------
 # td=(NStates=1) B3LYP/SVP
 --------------------------

 --
 TD
 --
 Symbolic Z-matrix:
 Charge =  0 Multiplicity = 1

                         Standard orientation:
 ---------------------------------------------------------------------
 Center     Atomic      Atomic             Coordinates (Angstroms)
 Number     Number       Type             X           Y           Z
 ---------------------------------------------------------------------
      1          8           0        5.358479   -0.321078   -3.435777
      2          8           0       -2.833049   -2.997799    3.365022
      3          8           0       -3.107565   -0.750062    3.311216
      4          8           0       -1.390442    7.139538    1.559253
      5          8           0       -0.811058    7.041169   -0.705486
      6          8           0       -2.116330   -4.038469    0.039901
      7          7           0        2.433153    0.929362    0.656306
      8          7           0        4.394728   -0.626310   -1.402024
      9          7           0       -1.932884    0.654986   -0.283907
     10          7           0       -2.745739   -1.868596   -0.536367
     11          6           0        4.785358   -1.158129    0.029533
     12          6           0        4.536043   -0.269105    1.128274
     13          6           0        3.102231    0.014115    1.365968
     14          6           0        2.071428   -0.673060    2.142771
     15          6           0        0.779993   -0.146432    1.749593
     16          6           0        1.135165    0.953384    0.740300
     17          6           0        6.273423   -1.383196   -0.232521
     18          6           0       -0.493079   -0.285275    2.522294
     19          6           0        6.669400   -0.966479   -1.382422
     20          6           0        0.227162    1.820617    0.214236
     21          6           0       -1.082103    1.758918   -0.241749
     22          6           0        5.407564   -0.645064   -2.206013
     23          6           0       -1.907742    2.849915   -0.665388
     24          6           0        2.217099   -1.762143    3.118874
     25          6           0        7.186131   -1.782345    0.907082
     26          6           0       -3.145130    2.331362   -1.094281
     27          6           0       -1.054495   -1.704635    2.461561
     28          6           0       -3.107385    0.921861   -0.803880
     29          6           0       -1.432976    4.258518   -0.867801
     30          6           0        8.000909   -0.973189   -2.161565
     31          6           0       -1.743805    5.092012    0.362153
     32          6           0       -4.232283    3.087240   -1.944909
     33          6           0       -4.036974    0.002626   -1.195639
     34          6           0       -2.413987   -1.712572    3.078991
     35          6           0       -3.830710   -1.425699   -1.139699
     36          6           0        9.161203   -0.691823   -1.482500
     37          6           0       -1.251717    6.526944    0.359026
     38          6           0       -4.765886   -2.506801   -1.619677
     39          6           0       -4.115878   -3.673565   -1.122444
     40          6           0       -2.881351   -3.249236   -0.425855
     41          6           0       -6.043059   -2.210684   -2.112923
     42          6           0       -4.592671   -5.016021   -1.154715
     43          6           0       -6.780903   -3.211334   -2.712566
     44          1           0        4.092423   -2.044191    0.187845
     45          1           0        5.164236    0.750846    1.074207
     46          1           0        4.988298   -0.565066    2.106116
     47          1           0        2.805495    1.656278    0.171064
     48          1           0        3.354650   -0.733652   -1.678881
     49          1           0       -0.461093   -0.112646    3.559992
     50          1           0       -1.236437    0.462731    2.166235
     51          1           0        0.753110    2.840476    0.111625
     52          1           0        3.326506   -2.061478    3.409971
     53          1           0        1.660365   -1.538744    4.193463
     54          1           0        1.689936   -2.563302    2.952155
     55          1           0        6.767075   -2.780562    1.427730
     56          1           0        7.330814   -0.958969    1.681044
     57          1           0        8.042021   -2.188107    0.535374
     58          1           0       -1.169449   -1.699920    1.120949
     59          1           0       -0.411235   -2.558259    2.738321
     60          1           0       -1.828750   -0.354622   -0.031745
     61          1           0       -1.865263    4.796608   -1.682132
     62          1           0       -0.414202    4.329292   -1.246538
     63          1           0        7.918022   -1.219093   -3.207401
     64          1           0       -1.057049    4.618179    1.194829
     65          1           0       -2.926341    5.235829    0.560798
     66          1           0       -3.871696    4.149852   -1.892311
     67          1           0       -5.194047    2.921160   -1.485186
     68          1           0       -4.122315    2.801787   -3.095469
     69          1           0       -4.829641    0.200275   -1.633686
     70          1           0        9.108830   -0.369837   -0.458629
     71          1           0       10.172062   -0.690550   -2.058895
     72          1           0       -3.719024   -3.146869    3.744713
     73          1           0       -6.504097   -1.085355   -2.139643
     74          1           0       -4.645617   -5.560920   -2.120719
     75          1           0       -3.905857   -5.766102   -0.549021
     76          1           0       -5.561218   -4.831999   -0.455534
     77          1           0       -1.132479    8.097739    1.215151
     78          1           0       -7.712045   -3.060232   -3.222625
     79          1           0       -6.296930   -4.207408   -2.988904
 ---------------------------------------------------------------------

 SCF Done:  E(RB3LYP) =  -1947.81216456     A.U. after   18 cycles

 Excitation energies and oscillator strengths:

 Excited State   1:      Singlet-A      2.0446 eV  606.40 nm  f=0.4144  <S**2>=0.000
     154 ->156         0.25961
     155 ->156         0.65036
     155 <-156        -0.10938
 This state for optimization and/or second-order correction.
 Total Energy, E(TD-HF/TD-KS) =  -1947.73702757
 Copying the excited state density for this state as the 1-particle RhoCI density.

 The electronic state is 1-A.
 Alpha  occ. eigenvalues --  -19.20979 -19.15714 -19.13696 -19.11340 -19.10034
 Alpha  occ. eigenvalues --  -19.08353 -14.39910 -14.36538 -14.35882 -14.28684
 Alpha  occ. eigenvalues --  -10.33286 -10.30828 -10.27771 -10.26163 -10.25766
 Alpha  occ. eigenvalues --  -10.24661 -10.24343 -10.23694 -10.23373 -10.23339
 Alpha  occ. eigenvalues --  -10.23003 -10.22841 -10.22479 -10.21634 -10.21498
 Alpha  occ. eigenvalues --  -10.21359 -10.21355 -10.21231 -10.20933 -10.20705
 Alpha  occ. eigenvalues --  -10.20666 -10.20601 -10.20509 -10.20428 -10.20370
 Alpha  occ. eigenvalues --  -10.20275 -10.20233 -10.19925 -10.19830 -10.19714
 Alpha  occ. eigenvalues --  -10.19643 -10.18801 -10.16794  -1.09848  -1.06574
 Alpha  occ. eigenvalues --   -1.02608  -1.02528  -1.00222  -0.99831  -0.99266
 Alpha  occ. eigenvalues --   -0.98555  -0.92549  -0.92363  -0.83801  -0.82970
 Alpha  occ. eigenvalues --   -0.82342  -0.81902  -0.80733  -0.80345  -0.77974
 Alpha  occ. eigenvalues --   -0.77446  -0.76845  -0.75692  -0.75128  -0.72517
 Alpha  occ. eigenvalues --   -0.71739  -0.71363  -0.70068  -0.68916  -0.68346
 Alpha  occ. eigenvalues --   -0.67508  -0.66573  -0.64008  -0.61488  -0.60555
 Alpha  occ. eigenvalues --   -0.59915  -0.59063  -0.58733  -0.58150  -0.58087
 Alpha  occ. eigenvalues --   -0.56868  -0.55997  -0.55567  -0.54332  -0.53993
 Alpha  occ. eigenvalues --   -0.52459  -0.51703  -0.50859  -0.50188  -0.50091
 Alpha  occ. eigenvalues --   -0.49582  -0.49517  -0.49076  -0.48848  -0.47525
 Alpha  occ. eigenvalues --   -0.47305  -0.47214  -0.46781  -0.46092  -0.45855
 Alpha  occ. eigenvalues --   -0.45116  -0.44970  -0.44786  -0.44627  -0.44185
 Alpha  occ. eigenvalues --   -0.43646  -0.43274  -0.43169  -0.42882  -0.42667
 Alpha  occ. eigenvalues --   -0.42124  -0.42070  -0.41882  -0.41469  -0.41000
 Alpha  occ. eigenvalues --   -0.40392  -0.40282  -0.40196  -0.39941  -0.39471
 Alpha  occ. eigenvalues --   -0.39380  -0.39141  -0.38633  -0.38282  -0.37962
 Alpha  occ. eigenvalues --   -0.37824  -0.37587  -0.37420  -0.37277  -0.36154
 Alpha  occ. eigenvalues --   -0.35989  -0.35815  -0.35272  -0.34507  -0.34459
 Alpha  occ. eigenvalues --   -0.33881  -0.33479  -0.33039  -0.31388  -0.31303
 Alpha  occ. eigenvalues --   -0.31111  -0.30574  -0.29085  -0.28475  -0.27698
 Alpha  occ. eigenvalues --   -0.26846  -0.25952  -0.25640  -0.25512  -0.24728
 Alpha  occ. eigenvalues --   -0.24144  -0.23824  -0.23678  -0.21289  -0.18673
 Alpha virt. eigenvalues --   -0.10721  -0.06850  -0.04662  -0.01566  -0.00928
 Alpha virt. eigenvalues --   -0.00070   0.00421   0.00869   0.01888   0.02281
 Alpha virt. eigenvalues --    0.02637   0.03402   0.03524   0.04350   0.05371

 Mulliken charges:
               1
     1  O   -0.294298
     2  O   -0.224144
     3  O   -0.219886
     4  O   -0.202957
     5  O   -0.281307
     6  O   -0.171240
     7  N    0.116116
     8  N   -0.180264
     9  N   -0.043965
    10  N   -0.291442
    11  C    0.130176
    12  C    0.113760
    13  C   -0.116163
    14  C   -0.107565
    15  C   -0.091097
    16  C   -0.014853
    17  C   -0.186372
    18  C    0.116187
    19  C   -0.048953
    20  C   -0.121362
    21  C    0.127054
    22  C    0.126054
    23  C   -0.061659
    24  C    0.089410
    25  C    0.078609
    26  C   -0.171647
    27  C   -0.154723
    28  C    0.151322
    29  C    0.105028
    30  C    0.020365
    31  C   -0.042682
    32  C    0.086514
    33  C    0.018205
    34  C    0.179053
    35  C    0.007746
    36  C   -0.038609
    37  C    0.150173
    38  C    0.096462
    39  C   -0.176143
    40  C    0.154175
    41  C   -0.103494
    42  C   -0.010450
    43  C   -0.045724
    44  H    0.033128
    45  H    0.011114
    46  H    0.024266
    47  H    0.076419
    48  H    0.161156
    49  H   -0.010710
    50  H    0.025871
    51  H   -0.003133
    52  H    0.021798
    53  H    0.018890
    54  H   -0.020731
    55  H    0.020919
    56  H    0.054926
    57  H   -0.000591
    58  H    0.125366
    59  H    0.040295
    60  H    0.149043
    61  H   -0.006472
    62  H    0.008183
    63  H    0.026894
    64  H    0.054741
    65  H    0.078359
    66  H    0.016284
    67  H    0.037821
    68  H    0.057063
    69  H   -0.189032
    70  H    0.026356
    71  H    0.049135
    72  H    0.184079
    73  H    0.052271
    74  H    0.050229
    75  H    0.035055
    76  H    0.060077
    77  H    0.212858
    78  H    0.013020
    79  H    0.039640
 Sum of Mulliken charges =   0.00000

 Dipole moment (field-independent basis, Debye):
    X=              1.0455    Y=              2.1795    Z=              3.8021  Tot=              4.5055
 Quadrupole moment (field-independent basis, Debye-Ang):
   XX=           -222.1868   YY=           -244.3668   ZZ=           -268.1948
   XY=             -6.5697   XZ=             35.5092   YZ=              4.5171

 Normal termination of Gaussian 09 at Tue Jul  9 23:01:18 2019.
