 Gaussian 16, Revision A.03,
 Gaussian 16:  ES64L-G16RevA.03 25-Dec-2016

 ----------------------------------------------------------------------
 # td=(NStates=1) iop(3/107=0140000000,3/108=0140000000) iop(3/107=0140
 000000,3/108=0140000000) CAM-B3LYP/6-31G(d,p)
 ----------------------------------------------------------------------

 --
 TD
 --
 Symbolic Z-matrix:
 Charge =  0 Multiplicity = 1

                         Standard orientation:
 ---------------------------------------------------------------------
 Center     Atomic      Atomic             Coordinates (Angstroms)
 Number     Number       Type             X           Y           Z
 ---------------------------------------------------------------------
      1         12           0       -5.550721    1.182174    0.149948
      2          6           0       -4.949693   -2.033104   -0.351992
      3          6           0       -3.500078    1.165174    2.862039
      4          6           0       -6.138748    4.661773    0.662651
      5          6           0       -7.943345    1.174999   -2.383100
      6          7           0       -4.288963   -0.265570    1.085793
      7          6           0       -4.136157   -1.582636    0.624686
      8          6           0       -3.132109   -2.306161    1.495233
      9          6           0       -2.820920   -1.273827    2.636918
     10          6           0       -3.535344   -0.019258    2.149290
     11          6           0       -3.368412   -1.720511    3.915760
     12          6           0       -1.944207   -2.630689    0.673081
     13          6           0       -0.860493   -3.487464    1.324700
     14          6           0        0.331362   -4.026327    0.549628
     15          8           0        0.611031   -3.642229   -0.632540
     16          8           0        1.112306   -4.772434    1.251827
     17          7           0       -5.030745    2.576788    1.548739
     18          6           0       -4.083172    2.362435    2.602563
     19          6           0       -3.925679    3.579478    3.310099
     20          6           0       -4.550927    4.601239    2.589584
     21          6           0       -5.315311    3.928815    1.508100
     22          6           0       -2.917245    3.666768    4.357808
     23          6           0       -4.698421    6.110989    2.941322
     24          8           0       -4.109763    6.694402    3.930089
     25          7           0       -6.682534    2.716343   -0.714550
     26          6           0       -6.823638    4.020279   -0.356881
     27          6           0       -7.858707    4.623329   -1.186182
     28          6           0       -8.322680    3.568470   -2.049614
     29          6           0       -7.665968    2.348698   -1.675003
     30          6           0       -8.273776    6.001812   -1.287229
     31          6           0       -9.346921    3.845421   -3.191434
     32          6           0       -8.699977    3.905363   -4.618038
     33          7           0       -6.206863   -0.136940   -1.131464
     34          6           0       -7.365962   -0.064970   -2.131331
     35          6           0       -7.552509   -1.261656   -2.686418
     36          6           0       -6.656554   -2.159845   -1.998255
     37          6           0       -5.922329   -1.360934   -1.158120
     38          6           0       -8.492567   -1.631796   -3.716949
     39          6           0       -6.084065   -3.578832   -1.929914
     40          8           0       -6.652520   -4.483115   -2.576092
     41          6           0       -4.965298   -3.587401   -0.944666
     42          6           0       -5.241479   -4.647726    0.034031
     43          8           0       -5.705090   -4.472355    1.187323
     44          8           0       -5.146038   -5.966299   -0.511370
     45          6           0       -5.359547   -7.007751    0.437269
     46          6           0        2.342844   -5.234326    0.699401
     47          6           0        3.454402   -4.297018    0.948003
     48          6           0        4.032451   -3.351636    0.194110
     49          6           0        3.832132   -3.259325   -1.283416
     50          6           0        5.118354   -2.456561    0.817355
     51          6           0        6.493541   -2.669743   -0.080205
     52          6           0        7.598032   -1.800839    0.521743
     53          6           0        9.019998   -2.085514   -0.101136
     54          6           0        9.674327   -3.339647    0.176182
     55          6           0        9.910551   -0.891164    0.366039
     56          6           0       11.304867   -0.810363   -0.210789
     57          6           0       12.179172    0.244567    0.352515
     58          6           0       13.547461    0.470279   -0.444291
     59          6           0       14.504156   -0.651778   -0.046308
     60          6           0       14.024997    1.935135   -0.098791
     61          6           0       15.398742    2.246893   -0.872034
     62          6           0       15.869830    3.617759   -0.600218
     63          6           0       17.086481    4.076734   -1.507815
     64          6           0       16.821887    3.916993   -2.950304
     65          6           0       17.548004    5.476856   -1.146423
     66          1           0       -2.761058    1.092588    3.651237
     67          1           0       -6.170138    5.805133    0.868869
     68          1           0       -8.920619    1.361950   -3.013613
     69          1           0       -3.585702   -3.127711    1.901495
     70          1           0       -1.683352   -0.792272    2.691308
     71          1           0       -2.741496   -2.712444    3.909751
     72          1           0       -3.156659   -1.228893    4.852801
     73          1           0       -4.313093   -2.027914    3.611251
     74          1           0       -2.200602   -3.062326   -0.275634
     75          1           0       -1.442578   -1.724363    0.367307
     76          1           0       -0.413799   -3.012141    2.247864
     77          1           0       -1.398909   -4.271927    1.903145
     78          1           0       -1.989778    3.096812    3.859162
     79          1           0       -2.703116    4.780393    4.479937
     80          1           0       -3.198864    3.333659    5.571066
     81          1           0       -5.249873    6.646974    2.326819
     82          1           0      -10.134965    3.096742   -2.986078
     83          1           0       -9.802234    4.838906   -3.080702
     84          1           0       -9.221778    4.037317   -5.321136
     85          1           0       -8.109333    4.769237   -4.475674
     86          1           0       -8.120675    2.963106   -4.665599
     87          1           0       -8.380663   -1.160333   -4.735246
     88          1           0       -8.524857   -2.845885   -3.880566
     89          1           0       -9.384049   -1.541401   -3.174084
     90          1           0       -3.942914   -3.676306   -1.449254
     91          1           0        2.546592   -6.189145    1.219410
     92          1           0        2.355210   -5.496123   -0.341362
     93          1           0        3.654752   -4.428863    1.961730
     94          1           0        2.910372   -3.624900   -1.803774
     95          1           0        3.648486   -2.227885   -1.747028
     96          1           0        4.497088   -3.826917   -1.885467
     97          1           0        4.813371   -1.421554    0.892952
     98          1           0        5.286604   -2.770879    1.805390
     99          1           0        7.045376   -3.706688   -0.160660
    100          1           0        6.182225   -2.391846   -1.167771
    101          1           0        7.420385   -0.831702    0.437241
    102          1           0        7.755683   -2.169052    1.571742
    103          1           0        9.010005   -1.987879   -1.193018
    104          1           0        9.138939   -4.424759   -0.180718
    105          1           0       10.694926   -3.412866   -0.292390
    106          1           0        9.874021   -3.436390    1.243274
    107          1           0        9.233905   -0.053622    0.350052
    108          1           0       10.034317   -0.870129    1.373462
    109          1           0       11.821732   -1.876432    0.063217
    110          1           0       11.184655   -0.668594   -1.467532
    111          1           0       11.430909    1.134338    0.167786
    112          1           0       12.336952    0.269559    1.511724
    113          1           0       13.130333    0.308728   -1.469446
    114          1           0       14.641502   -0.814561    1.218787
    115          1           0       14.116156   -1.546974   -0.499557
    116          1           0       15.577474   -0.625922   -0.617754
    117          1           0       13.301691    2.735092   -0.051973
    118          1           0       14.252121    2.212685    1.039262
    119          1           0       16.070558    1.474691   -0.675237
    120          1           0       15.188638    2.183729   -1.934014
    121          1           0       15.058976    4.307396   -0.931897
    122          1           0       16.076753    3.738295    0.432725
    123          1           0       18.223106    3.620276   -1.279946
    124          1           0       15.993570    4.571264   -3.387361
    125          1           0       17.649295    4.204215   -3.657302
    126          1           0       16.685933    2.886550   -3.256751
    127          1           0       17.777980    5.459593    0.017498
    128          1           0       18.330653    5.898635   -1.728541
    129          1           0       16.613754    6.221152   -1.405425
    130          1           0       -4.993970   -7.910883    0.048125
    131          1           0       -6.478416   -6.973148    0.763300
    132          1           0       -4.913547   -6.675063    1.375529
    133          8           0       -7.901265    6.862900   -0.545142
    134          1           0       -9.072974    6.381572   -2.154004
 ---------------------------------------------------------------------

 SCF Done:  E(RCAM-B3LYP) =  -3043.39980569     A.U. after   15 cycles

 Excitation energies and oscillator strengths:

 Excited State   1:      Singlet-A      2.1022 eV  589.79 nm  f=0.1714  <S**2>=0.000
     243 -> 246        0.23335
     244 -> 245        0.65567
 This state for optimization and/or second-order correction.
 Total Energy, E(TD-HF/TD-DFT) =  -3043.32255157
 Copying the excited state density for this state as the 1-particle RhoCI density.

 The electronic state is 1-A.
 Alpha  occ. eigenvalues --  -46.80699 -19.23928 -19.22316 -19.18686 -19.17963
 Alpha  occ. eigenvalues --  -19.16778 -19.16490 -19.15893 -14.38954 -14.36927
 Alpha  occ. eigenvalues --  -14.36641 -14.36308 -10.36652 -10.35526 -10.31957
 Alpha  occ. eigenvalues --  -10.31118 -10.30454 -10.27678 -10.27629 -10.27511
 Alpha  occ. eigenvalues --  -10.27318 -10.26944 -10.26915 -10.26893 -10.26801
 Alpha  occ. eigenvalues --  -10.26566 -10.26446 -10.25862 -10.25820 -10.25087
 Alpha  occ. eigenvalues --  -10.25022 -10.24945 -10.24671 -10.24626 -10.24527
 Alpha  occ. eigenvalues --  -10.24477 -10.24474 -10.24285 -10.23927 -10.23880
 Alpha  occ. eigenvalues --  -10.23786 -10.23400 -10.23191 -10.23130 -10.23074
 Alpha  occ. eigenvalues --  -10.22990 -10.22921 -10.22893 -10.22796 -10.22675
 Alpha  occ. eigenvalues --  -10.22636 -10.22261 -10.22066 -10.21817 -10.21767
 Alpha  occ. eigenvalues --  -10.21482 -10.21337 -10.21307 -10.20808 -10.20562
 Alpha  occ. eigenvalues --  -10.20522 -10.20456 -10.20309 -10.19925 -10.19670
 Alpha  occ. eigenvalues --  -10.19528  -3.09401  -1.84338  -1.83859  -1.83827
 Alpha  occ. eigenvalues --   -1.15655  -1.11477  -1.07586  -1.05148  -1.03793
 Alpha  occ. eigenvalues --   -1.03363  -1.01847  -1.01288  -1.00286  -0.98844
 Alpha  occ. eigenvalues --   -0.97693  -0.88613  -0.87640  -0.86207  -0.86160
 Alpha  occ. eigenvalues --   -0.85504  -0.85477  -0.84937  -0.84537  -0.83598
 Alpha  occ. eigenvalues --   -0.83047  -0.82938  -0.82557  -0.81185  -0.80186
 Alpha  occ. eigenvalues --   -0.79220  -0.78684  -0.78247  -0.77820  -0.77260
 Alpha  occ. eigenvalues --   -0.75773  -0.75290  -0.75007  -0.72997  -0.72742
 Alpha  occ. eigenvalues --   -0.72128  -0.70748  -0.70681  -0.70125  -0.69949
 Alpha  occ. eigenvalues --   -0.69746  -0.69530  -0.67925  -0.67315  -0.66906
 Alpha  occ. eigenvalues --   -0.65870  -0.64328  -0.63506  -0.63185  -0.62754
 Alpha  occ. eigenvalues --   -0.62434  -0.60791  -0.60594  -0.59847  -0.59169
 Alpha  occ. eigenvalues --   -0.58654  -0.58138  -0.58008  -0.57725  -0.57016
 Alpha  occ. eigenvalues --   -0.56941  -0.56542  -0.56237  -0.55513  -0.55167
 Alpha  occ. eigenvalues --   -0.54136  -0.53305  -0.53071  -0.52934  -0.52329
 Alpha  occ. eigenvalues --   -0.52040  -0.51546  -0.51378  -0.51195  -0.50690
 Alpha  occ. eigenvalues --   -0.50572  -0.50342  -0.49953  -0.49924  -0.49646
 Alpha  occ. eigenvalues --   -0.49346  -0.49160  -0.48980  -0.48237  -0.48048
 Alpha  occ. eigenvalues --   -0.47938  -0.47483  -0.47329  -0.47090  -0.46860
 Alpha  occ. eigenvalues --   -0.46630  -0.46490  -0.46212  -0.46041  -0.46037
 Alpha  occ. eigenvalues --   -0.45747  -0.45685  -0.45532  -0.45361  -0.45190
 Alpha  occ. eigenvalues --   -0.44997  -0.44718  -0.44477  -0.44431  -0.44053
 Alpha  occ. eigenvalues --   -0.43888  -0.43689  -0.43488  -0.43140  -0.42883
 Alpha  occ. eigenvalues --   -0.42625  -0.42428  -0.42157  -0.41905  -0.41633
 Alpha  occ. eigenvalues --   -0.41559  -0.41167  -0.40949  -0.40947  -0.40581
 Alpha  occ. eigenvalues --   -0.40449  -0.40177  -0.39875  -0.39658  -0.39499
 Alpha  occ. eigenvalues --   -0.39466  -0.39394  -0.39307  -0.39030  -0.38815
 Alpha  occ. eigenvalues --   -0.38683  -0.38527  -0.38450  -0.38258  -0.37952
 Alpha  occ. eigenvalues --   -0.37784  -0.37539  -0.37482  -0.37404  -0.36943
 Alpha  occ. eigenvalues --   -0.36913  -0.36662  -0.36587  -0.36442  -0.36086
 Alpha  occ. eigenvalues --   -0.35842  -0.35700  -0.35493  -0.35113  -0.34851
 Alpha  occ. eigenvalues --   -0.34118  -0.33706  -0.33379  -0.33287  -0.32779
 Alpha  occ. eigenvalues --   -0.32372  -0.32316  -0.32285  -0.31664  -0.31479
 Alpha  occ. eigenvalues --   -0.31384  -0.31055  -0.30778  -0.30081  -0.29530
 Alpha  occ. eigenvalues --   -0.28555  -0.28185  -0.27668  -0.27555  -0.27430
 Alpha  occ. eigenvalues --   -0.27273  -0.27085  -0.23856  -0.22426
 Alpha virt. eigenvalues --   -0.09081  -0.06695  -0.02308  -0.01167   0.00063
 Alpha virt. eigenvalues --    0.02091   0.02490   0.03749   0.03956   0.04092
 Alpha virt. eigenvalues --    0.04765   0.05192   0.07690   0.08281   0.08884

 Mulliken charges:
               1
     1  Mg   0.804277
     2  C    0.027726
     3  C   -0.181189
     4  C   -0.176579
     5  C   -0.167744
     6  N   -0.629478
     7  C    0.267725
     8  C   -0.152449
     9  C   -0.152030
    10  C    0.353975
    11  C   -0.288768
    12  C   -0.161212
    13  C   -0.279575
    14  C    0.594686
    15  O   -0.512565
    16  O   -0.409499
    17  N   -0.725203
    18  C    0.337248
    19  C    0.080192
    20  C   -0.078714
    21  C    0.357305
    22  C   -0.390623
    23  C    0.282905
    24  O   -0.439304
    25  N   -0.717661
    26  C    0.335543
    27  C   -0.033713
    28  C    0.016592
    29  C    0.300957
    30  C    0.221125
    31  C   -0.269552
    32  C   -0.276227
    33  N   -0.760154
    34  C    0.231447
    35  C    0.040666
    36  C   -0.015882
    37  C    0.413726
    38  C   -0.403837
    39  C    0.380410
    40  O   -0.468750
    41  C   -0.301360
    42  C    0.629953
    43  O   -0.476332
    44  O   -0.458628
    45  C   -0.074956
    46  C    0.000105
    47  C   -0.144215
    48  C    0.171241
    49  C   -0.408036
    50  C   -0.235795
    51  C   -0.187549
    52  C   -0.159170
    53  C   -0.058197
    54  C   -0.298705
    55  C   -0.177094
    56  C   -0.156286
    57  C   -0.172369
    58  C   -0.042637
    59  C   -0.286699
    60  C   -0.178263
    61  C   -0.173821
    62  C   -0.162744
    63  C   -0.037066
    64  C   -0.313316
    65  C   -0.281643
    66  H    0.078535
    67  H    0.142136
    68  H    0.112193
    69  H    0.128009
    70  H    0.087028
    71  H    0.094155
    72  H    0.128742
    73  H    0.143647
    74  H    0.116487
    75  H    0.123742
    76  H    0.131223
    77  H    0.121675
    78  H    0.108106
    79  H    0.154557
    80  H    0.101231
    81  H    0.101187
    82  H    0.106287
    83  H    0.110640
    84  H    0.115701
    85  H    0.118492
    86  H    0.103493
    87  H    0.130442
    88  H    0.135580
    89  H    0.144913
    90  H    0.179788
    91  H    0.108457
    92  H    0.129174
    93  H    0.078977
    94  H    0.136901
    95  H    0.105290
    96  H    0.130763
    97  H    0.113125
    98  H    0.108562
    99  H    0.090693
   100  H    0.096103
   101  H    0.098480
   102  H    0.088017
   103  H    0.083801
   104  H    0.062077
   105  H    0.108656
   106  H    0.099443
   107  H    0.083996
   108  H    0.097961
   109  H    0.072540
   110  H    0.055581
   111  H    0.072489
   112  H    0.083639
   113  H    0.093950
   114  H    0.078495
   115  H    0.115056
   116  H    0.082280
   117  H    0.096287
   118  H    0.059453
   119  H    0.103847
   120  H    0.095209
   121  H    0.091877
   122  H    0.093424
   123  H    0.053580
   124  H    0.090735
   125  H    0.092412
   126  H    0.109966
   127  H    0.085353
   128  H    0.110208
   129  H    0.055334
   130  H    0.131237
   131  H    0.119355
   132  H    0.122569
   133  O   -0.412366
   134  H    0.036812
 Sum of Mulliken charges =  -0.00000

 Dipole moment (field-independent basis, Debye):
    X=              3.0230    Y=             -4.6500    Z=             -0.2474  Tot=              5.5517
 Quadrupole moment (field-independent basis, Debye-Ang):
   XX=           -395.6135   YY=           -446.6869   ZZ=           -393.2476
   XY=              0.7977   XZ=             18.4923   YZ=            -37.9120

 Normal termination of Gaussian 16 at Wed Oct  9 12:36:50 2019.
