 Gaussian 16, Revision A.03,
 Gaussian 16:  ES64L-G16RevA.03 25-Dec-2016

 ----------------------------------------------------------------------
 # td=(NStates=1) iop(3/107=0140000000,3/108=0140000000) iop(3/107=0140
 000000,3/108=0140000000) CAM-B3LYP/6-31G(d,p)
 ----------------------------------------------------------------------

 --
 TD
 --
 Symbolic Z-matrix:
 Charge =  0 Multiplicity = 1

                         Standard orientation:
 ---------------------------------------------------------------------
 Center     Atomic      Atomic             Coordinates (Angstroms)
 Number     Number       Type             X           Y           Z
 ---------------------------------------------------------------------
      1         12           0       -5.465107    1.310717    0.113796
      2          6           0       -5.017410   -2.106724   -0.288727
      3          6           0       -3.382243    1.181064    2.803103
      4          6           0       -6.085767    4.543084    0.674919
      5          6           0       -8.016066    1.098720   -2.258668
      6          7           0       -4.355621   -0.263735    0.996584
      7          6           0       -4.224465   -1.617864    0.651912
      8          6           0       -3.190347   -2.372224    1.610699
      9          6           0       -2.983858   -1.341873    2.657925
     10          6           0       -3.592972   -0.082529    2.071561
     11          6           0       -3.784853   -1.718888    3.988562
     12          6           0       -2.008912   -2.662107    0.671978
     13          6           0       -1.008777   -3.619822    1.521681
     14          6           0        0.241784   -3.869170    0.584803
     15          8           0        0.413167   -3.424012   -0.549944
     16          8           0        1.076927   -4.539352    1.309642
     17          7           0       -4.828182    2.601559    1.487303
     18          6           0       -3.947857    2.414683    2.492712
     19          6           0       -3.671255    3.621216    3.237458
     20          6           0       -4.440725    4.589820    2.557638
     21          6           0       -5.237786    3.943464    1.495808
     22          6           0       -2.750449    3.778616    4.275137
     23          6           0       -4.621306    6.003952    2.935170
     24          8           0       -4.042798    6.565129    3.820414
     25          7           0       -6.825758    2.516123   -0.700532
     26          6           0       -6.837586    3.824316   -0.398339
     27          6           0       -7.823328    4.557185   -1.211789
     28          6           0       -8.430613    3.649588   -2.092681
     29          6           0       -7.801419    2.389956   -1.745845
     30          6           0       -8.207322    5.978632   -1.263045
     31          6           0       -9.480118    3.903378   -3.118330
     32          6           0       -8.845400    3.984161   -4.547562
     33          7           0       -6.424154   -0.184669   -1.128888
     34          6           0       -7.429427   -0.114031   -1.993125
     35          6           0       -7.635842   -1.367913   -2.643145
     36          6           0       -6.753131   -2.280790   -2.008328
     37          6           0       -5.990651   -1.399957   -1.121565
     38          6           0       -8.700414   -1.588391   -3.804510
     39          6           0       -6.213046   -3.592440   -1.892981
     40          8           0       -6.703140   -4.552739   -2.575256
     41          6           0       -4.955324   -3.505227   -0.877809
     42          6           0       -5.394377   -4.573817    0.133893
     43          8           0       -5.832733   -4.332376    1.208937
     44          8           0       -5.261031   -5.878743   -0.419102
     45          6           0       -5.487066   -6.872572    0.614152
     46          6           0        2.347064   -4.875096    0.626013
     47          6           0        3.421137   -3.955730    0.940984
     48          6           0        4.156960   -3.142271    0.165872
     49          6           0        3.787367   -3.126805   -1.309810
     50          6           0        5.292035   -2.257663    0.726432
     51          6           0        6.546505   -2.734070    0.038991
     52          6           0        7.809840   -1.943819    0.498583
     53          6           0        9.185401   -2.031985   -0.225658
     54          6           0        9.743772   -3.479606   -0.063912
     55          6           0       10.100649   -0.969558    0.258431
     56          6           0       11.404424   -0.815981   -0.433521
     57          6           0       12.230604    0.313810    0.077282
     58          6           0       13.599480    0.410399   -0.542038
     59          6           0       14.462308   -0.837518   -0.138285
     60          6           0       14.354563    1.692955   -0.102720
     61          6           0       15.480976    2.027400   -1.047846
     62          6           0       16.086123    3.422857   -0.553925
     63          6           0       17.333115    3.901341   -1.322508
     64          6           0       16.912856    4.300378   -2.752723
     65          6           0       17.854413    5.149937   -0.685315
     66          1           0       -2.551614    1.087583    3.611762
     67          1           0       -6.363479    5.564424    0.456687
     68          1           0       -8.700665    1.213255   -3.078117
     69          1           0       -3.542455   -3.370400    1.913471
     70          1           0       -1.833656   -1.185073    2.905483
     71          1           0       -3.854184   -2.795938    4.412695
     72          1           0       -3.820247   -1.017973    4.779365
     73          1           0       -5.067343   -1.426995    3.968066
     74          1           0       -2.134459   -3.164407   -0.255170
     75          1           0       -1.355839   -1.740657    0.417748
     76          1           0       -0.533218   -2.839013    2.396447
     77          1           0       -1.324212   -4.599270    1.760084
     78          1           0       -1.697407    3.768255    3.821872
     79          1           0       -2.859065    4.649996    4.851758
     80          1           0       -2.859794    3.087038    5.108586
     81          1           0       -5.406776    6.486694    2.391509
     82          1           0      -10.280685    3.221086   -3.164990
     83          1           0      -10.182113    4.546576   -2.713518
     84          1           0       -9.696817    4.018176   -5.303564
     85          1           0       -8.149615    4.785949   -4.768995
     86          1           0       -8.325359    3.109433   -4.734742
     87          1           0       -8.478510   -0.890145   -4.571938
     88          1           0       -8.457714   -2.715663   -4.189077
     89          1           0       -9.571184   -1.700483   -3.421798
     90          1           0       -4.033678   -3.947698   -1.595615
     91          1           0        2.570567   -6.066797    1.122204
     92          1           0        2.242471   -5.010069   -0.491659
     93          1           0        3.644414   -3.956146    1.943449
     94          1           0        2.592572   -3.545103   -1.512125
     95          1           0        3.802565   -2.166542   -1.563063
     96          1           0        4.406493   -3.591676   -1.880012
     97          1           0        5.146604   -1.187093    0.543371
     98          1           0        5.179298   -2.440980    1.825355
     99          1           0        6.720074   -3.847626    0.301199
    100          1           0        6.498509   -2.382444   -1.158985
    101          1           0        7.301594   -0.847534    0.600507
    102          1           0        7.934490   -2.093005    1.756410
    103          1           0        8.952379   -2.013871   -1.221972
    104          1           0        9.034510   -4.151073   -0.553447
    105          1           0       10.656886   -3.385186   -0.792272
    106          1           0       10.133453   -3.440023    0.973091
    107          1           0        9.694706   -0.020822    0.455947
    108          1           0       10.112555   -1.101400    1.333355
    109          1           0       12.090641   -1.772204   -0.445840
    110          1           0       11.107143   -0.981815   -1.498405
    111          1           0       11.653251    1.230900   -0.274845
    112          1           0       12.185156    0.220457    1.258061
    113          1           0       13.453803    0.380318   -1.791135
    114          1           0       14.528741   -0.889166    0.904212
    115          1           0       13.818671   -1.825571   -0.435720
    116          1           0       15.411677   -0.860742   -0.557659
    117          1           0       13.730149    2.317055   -0.184522
    118          1           0       14.554462    1.763644    0.843165
    119          1           0       16.215392    1.175249   -1.139155
    120          1           0       15.028740    1.973855   -1.999169
    121          1           0       15.207925    3.960939   -1.030176
    122          1           0       16.380245    3.378694    0.471031
    123          1           0       17.872933    3.037118   -1.232904
    124          1           0       16.220227    5.207719   -2.805760
    125          1           0       18.042676    4.591022   -3.398990
    126          1           0       16.375773    3.445959   -3.284455
    127          1           0       18.063037    4.773883    0.417376
    128          1           0       18.594580    5.565737   -1.298077
    129          1           0       17.118261    6.095324   -0.761218
    130          1           0       -5.368341   -7.827458    0.157268
    131          1           0       -6.436766   -6.726387    1.057827
    132          1           0       -4.739996   -6.673334    1.487041
    133          8           0       -7.861344    6.917804   -0.554613
    134          1           0       -8.755111    6.135362   -2.206720
 ---------------------------------------------------------------------

 SCF Done:  E(RCAM-B3LYP) =  -3043.32014195     A.U. after   15 cycles

 Excitation energies and oscillator strengths:

 Excited State   1:      Singlet-A      2.2301 eV  555.96 nm  f=0.1185  <S**2>=0.000
     243 -> 245        0.14879
     243 -> 246       -0.28993
     244 -> 245        0.61251
 This state for optimization and/or second-order correction.
 Total Energy, E(TD-HF/TD-DFT) =  -3043.23818786
 Copying the excited state density for this state as the 1-particle RhoCI density.

 The electronic state is 1-A.
 Alpha  occ. eigenvalues --  -46.81945 -19.23665 -19.21246 -19.18132 -19.17238
 Alpha  occ. eigenvalues --  -19.17099 -19.16911 -19.15733 -14.39345 -14.37383
 Alpha  occ. eigenvalues --  -14.36690 -14.35879 -10.35025 -10.34887 -10.30759
 Alpha  occ. eigenvalues --  -10.30168 -10.29661 -10.29393 -10.28917 -10.27118
 Alpha  occ. eigenvalues --  -10.26991 -10.26886 -10.26715 -10.26549 -10.26495
 Alpha  occ. eigenvalues --  -10.26353 -10.26134 -10.25335 -10.25185 -10.25070
 Alpha  occ. eigenvalues --  -10.25031 -10.24801 -10.24723 -10.24714 -10.24631
 Alpha  occ. eigenvalues --  -10.24402 -10.24342 -10.23698 -10.23588 -10.23574
 Alpha  occ. eigenvalues --  -10.23559 -10.23491 -10.23438 -10.23261 -10.23171
 Alpha  occ. eigenvalues --  -10.23171 -10.23115 -10.23033 -10.22962 -10.22699
 Alpha  occ. eigenvalues --  -10.22215 -10.21986 -10.21684 -10.21608 -10.21455
 Alpha  occ. eigenvalues --  -10.21391 -10.21260 -10.21195 -10.21045 -10.20549
 Alpha  occ. eigenvalues --  -10.20547 -10.20466 -10.19941 -10.19791 -10.19725
 Alpha  occ. eigenvalues --  -10.16971  -3.10540  -1.85463  -1.85054  -1.84917
 Alpha  occ. eigenvalues --   -1.15000  -1.12483  -1.07625  -1.06184  -1.04811
 Alpha  occ. eigenvalues --   -1.04462  -1.02886  -1.01775  -1.00548  -0.99649
 Alpha  occ. eigenvalues --   -0.98611  -0.88086  -0.86917  -0.86450  -0.86126
 Alpha  occ. eigenvalues --   -0.85723  -0.85424  -0.85062  -0.83962  -0.83844
 Alpha  occ. eigenvalues --   -0.83133  -0.82597  -0.81776  -0.80522  -0.79855
 Alpha  occ. eigenvalues --   -0.79248  -0.78644  -0.77595  -0.76622  -0.76159
 Alpha  occ. eigenvalues --   -0.75635  -0.75438  -0.73719  -0.72914  -0.71902
 Alpha  occ. eigenvalues --   -0.71453  -0.71253  -0.70966  -0.70289  -0.69483
 Alpha  occ. eigenvalues --   -0.69188  -0.69015  -0.68527  -0.67281  -0.66602
 Alpha  occ. eigenvalues --   -0.65917  -0.65062  -0.64400  -0.63527  -0.62051
 Alpha  occ. eigenvalues --   -0.61631  -0.61185  -0.60808  -0.59718  -0.59293
 Alpha  occ. eigenvalues --   -0.58824  -0.58588  -0.57761  -0.57515  -0.57155
 Alpha  occ. eigenvalues --   -0.56952  -0.56325  -0.55385  -0.54915  -0.54332
 Alpha  occ. eigenvalues --   -0.53873  -0.53108  -0.52531  -0.52074  -0.51643
 Alpha  occ. eigenvalues --   -0.51627  -0.51446  -0.51186  -0.51021  -0.50712
 Alpha  occ. eigenvalues --   -0.50607  -0.50097  -0.49685  -0.49233  -0.49174
 Alpha  occ. eigenvalues --   -0.49045  -0.49018  -0.48809  -0.48206  -0.48051
 Alpha  occ. eigenvalues --   -0.47860  -0.47641  -0.47460  -0.47263  -0.47152
 Alpha  occ. eigenvalues --   -0.46837  -0.46819  -0.46766  -0.46433  -0.46048
 Alpha  occ. eigenvalues --   -0.45555  -0.45447  -0.45251  -0.45152  -0.44853
 Alpha  occ. eigenvalues --   -0.44788  -0.44493  -0.44312  -0.44210  -0.44086
 Alpha  occ. eigenvalues --   -0.44009  -0.43425  -0.43314  -0.43275  -0.43138
 Alpha  occ. eigenvalues --   -0.42772  -0.42178  -0.41912  -0.41848  -0.41688
 Alpha  occ. eigenvalues --   -0.41610  -0.41299  -0.41267  -0.40957  -0.40831
 Alpha  occ. eigenvalues --   -0.40438  -0.40419  -0.40261  -0.39931  -0.39887
 Alpha  occ. eigenvalues --   -0.39782  -0.39646  -0.39449  -0.39432  -0.39282
 Alpha  occ. eigenvalues --   -0.39107  -0.38784  -0.38595  -0.38426  -0.38378
 Alpha  occ. eigenvalues --   -0.38203  -0.38159  -0.37994  -0.37975  -0.37582
 Alpha  occ. eigenvalues --   -0.36955  -0.36660  -0.36561  -0.36004  -0.35369
 Alpha  occ. eigenvalues --   -0.35236  -0.34836  -0.34625  -0.34268  -0.34166
 Alpha  occ. eigenvalues --   -0.34065  -0.33922  -0.33781  -0.33495  -0.33376
 Alpha  occ. eigenvalues --   -0.32311  -0.32273  -0.31996  -0.31919  -0.31668
 Alpha  occ. eigenvalues --   -0.31295  -0.31047  -0.30304  -0.30032  -0.29904
 Alpha  occ. eigenvalues --   -0.28934  -0.28044  -0.27900  -0.27772  -0.27556
 Alpha  occ. eigenvalues --   -0.27496  -0.26444  -0.23022  -0.22114
 Alpha virt. eigenvalues --   -0.07951  -0.06512  -0.01565  -0.00588   0.00319
 Alpha virt. eigenvalues --    0.02233   0.02704   0.03554   0.04098   0.04671
 Alpha virt. eigenvalues --    0.05435   0.06150   0.07935   0.08217   0.08753

 Mulliken charges:
               1
     1  Mg   0.846155
     2  C    0.076490
     3  C   -0.224611
     4  C   -0.165320
     5  C   -0.179633
     6  N   -0.620680
     7  C    0.282800
     8  C   -0.103450
     9  C   -0.129528
    10  C    0.363280
    11  C   -0.314007
    12  C   -0.178746
    13  C   -0.269166
    14  C    0.586321
    15  O   -0.487048
    16  O   -0.416618
    17  N   -0.758875
    18  C    0.362128
    19  C    0.091020
    20  C   -0.066389
    21  C    0.343835
    22  C   -0.409231
    23  C    0.256202
    24  O   -0.411189
    25  N   -0.706438
    26  C    0.316768
    27  C   -0.064339
    28  C    0.063596
    29  C    0.221930
    30  C    0.242525
    31  C   -0.246964
    32  C   -0.318340
    33  N   -0.681530
    34  C    0.316462
    35  C   -0.041505
    36  C    0.091694
    37  C    0.269149
    38  C   -0.353808
    39  C    0.314323
    40  O   -0.490096
    41  C   -0.353856
    42  C    0.634923
    43  O   -0.438140
    44  O   -0.472020
    45  C   -0.080589
    46  C   -0.018508
    47  C   -0.094014
    48  C    0.121108
    49  C   -0.372706
    50  C   -0.222262
    51  C   -0.164998
    52  C   -0.152683
    53  C   -0.076607
    54  C   -0.295920
    55  C   -0.157200
    56  C   -0.167249
    57  C   -0.169655
    58  C   -0.073118
    59  C   -0.301189
    60  C   -0.111052
    61  C   -0.218818
    62  C   -0.168329
    63  C   -0.034105
    64  C   -0.297813
    65  C   -0.279332
    66  H    0.087505
    67  H    0.137973
    68  H    0.080325
    69  H    0.127061
    70  H    0.101725
    71  H    0.123826
    72  H    0.130113
    73  H    0.073811
    74  H    0.135144
    75  H    0.111442
    76  H    0.109787
    77  H    0.139499
    78  H    0.132140
    79  H    0.160473
    80  H    0.121241
    81  H    0.082474
    82  H    0.117830
    83  H    0.120850
    84  H    0.104430
    85  H    0.125952
    86  H    0.127572
    87  H    0.128196
    88  H    0.126198
    89  H    0.147698
    90  H    0.156657
    91  H    0.077248
    92  H    0.128888
    93  H    0.072493
    94  H    0.116744
    95  H    0.117672
    96  H    0.130002
    97  H    0.113068
    98  H    0.105310
    99  H    0.103873
   100  H    0.078458
   101  H    0.056870
   102  H    0.039567
   103  H    0.088412
   104  H    0.113137
   105  H    0.086467
   106  H    0.113220
   107  H    0.096030
   108  H    0.079482
   109  H    0.072899
   110  H    0.089484
   111  H    0.088598
   112  H    0.084011
   113  H    0.050220
   114  H    0.109429
   115  H    0.071571
   116  H    0.108782
   117  H    0.086466
   118  H    0.089075
   119  H    0.073223
   120  H    0.098762
   121  H    0.097037
   122  H    0.092158
   123  H    0.100714
   124  H    0.104656
   125  H    0.046963
   126  H    0.097328
   127  H    0.079046
   128  H    0.108715
   129  H    0.081624
   130  H    0.128305
   131  H    0.141541
   132  H    0.094892
   133  O   -0.435829
   134  H    0.070429
 Sum of Mulliken charges =  -0.00000

 Dipole moment (field-independent basis, Debye):
    X=              3.6763    Y=             -2.9101    Z=             -0.1220  Tot=              4.6903
 Quadrupole moment (field-independent basis, Debye-Ang):
   XX=           -390.0317   YY=           -451.7862   ZZ=           -391.2685
   XY=              1.6434   XZ=             21.8629   YZ=            -36.6829

 Normal termination of Gaussian 16 at Thu Oct 10 01:23:41 2019.
