 Gaussian 16, Revision A.03,
 Gaussian 16:  ES64L-G16RevA.03 25-Dec-2016

 ----------------------------------------------------------------------
 # td=(NStates=1) iop(3/107=0140000000,3/108=0140000000) iop(3/107=0140
 000000,3/108=0140000000) CAM-B3LYP/6-31G(d,p)
 ----------------------------------------------------------------------

 --
 TD
 --
 Symbolic Z-matrix:
 Charge =  0 Multiplicity = 1

                         Standard orientation:
 ---------------------------------------------------------------------
 Center     Atomic      Atomic             Coordinates (Angstroms)
 Number     Number       Type             X           Y           Z
 ---------------------------------------------------------------------
      1         12           0       -5.647527    1.218447    0.298771
      2          6           0       -4.988061   -2.188612   -0.385624
      3          6           0       -3.422731    1.174505    2.796153
      4          6           0       -6.152563    4.569302    0.582914
      5          6           0       -7.921400    1.106630   -2.397599
      6          7           0       -4.335844   -0.295151    1.087092
      7          6           0       -4.197411   -1.601828    0.689645
      8          6           0       -3.241145   -2.384810    1.511171
      9          6           0       -3.037065   -1.365332    2.701812
     10          6           0       -3.698461   -0.077183    2.240687
     11          6           0       -3.484438   -1.756490    4.119436
     12          6           0       -1.888253   -2.654076    0.779689
     13          6           0       -0.919386   -3.559288    1.520428
     14          6           0        0.338453   -3.835603    0.723246
     15          8           0        0.457215   -3.416330   -0.409896
     16          8           0        1.089061   -4.652838    1.318369
     17          7           0       -5.030985    2.619153    1.539750
     18          6           0       -4.132936    2.367443    2.647055
     19          6           0       -3.743321    3.675422    3.181393
     20          6           0       -4.438554    4.676590    2.520012
     21          6           0       -5.284280    3.938644    1.554595
     22          6           0       -2.774663    3.903333    4.300927
     23          6           0       -4.601008    6.089819    2.744470
     24          8           0       -4.166404    6.704565    3.644604
     25          7           0       -6.791090    2.675426   -0.729367
     26          6           0       -6.901246    3.948419   -0.340496
     27          6           0       -7.964093    4.595411   -1.295128
     28          6           0       -8.427741    3.580765   -2.121014
     29          6           0       -7.725929    2.389219   -1.802132
     30          6           0       -8.353144    5.975289   -1.259862
     31          6           0       -9.535980    3.774417   -3.168785
     32          6           0       -8.864332    3.800208   -4.621345
     33          7           0       -6.364723   -0.105276   -1.149225
     34          6           0       -7.302314   -0.043911   -2.045491
     35          6           0       -7.522313   -1.317749   -2.659891
     36          6           0       -6.642914   -2.213718   -2.018000
     37          6           0       -5.906803   -1.439124   -1.083511
     38          6           0       -8.357871   -1.797061   -3.768216
     39          6           0       -6.125637   -3.585019   -2.023797
     40          8           0       -6.596508   -4.560010   -2.686661
     41          6           0       -5.011120   -3.580368   -0.933409
     42          6           0       -5.369654   -4.649314    0.188884
     43          8           0       -5.850943   -4.381755    1.243026
     44          8           0       -4.967240   -5.889448   -0.239196
     45          6           0       -5.227271   -7.034695    0.567049
     46          6           0        2.332075   -4.931834    0.634880
     47          6           0        3.407089   -3.978576    0.918256
     48          6           0        3.952385   -3.049678    0.002359
     49          6           0        3.692050   -3.107783   -1.423237
     50          6           0        5.075996   -2.165580    0.402102
     51          6           0        6.463995   -2.652415   -0.050872
     52          6           0        7.616943   -1.850810    0.654313
     53          6           0        8.948173   -1.993217    0.044509
     54          6           0        9.506595   -3.421912    0.108151
     55          6           0        9.970990   -0.965791    0.390142
     56          6           0       11.285769   -0.875351   -0.269363
     57          6           0       12.191733    0.322136    0.134985
     58          6           0       13.536632    0.451381   -0.617338
     59          6           0       14.389244   -0.748610   -0.334051
     60          6           0       14.321799    1.767778   -0.221304
     61          6           0       15.607617    2.104436   -0.948116
     62          6           0       16.076013    3.477402   -0.630191
     63          6           0       17.351516    3.848316   -1.276486
     64          6           0       17.222358    3.948494   -2.867512
     65          6           0       17.990733    5.140866   -0.653875
     66          1           0       -2.767618    1.223043    3.764419
     67          1           0       -6.388449    5.682449    0.816938
     68          1           0       -8.765461    1.269249   -3.236011
     69          1           0       -3.822179   -3.108159    1.893729
     70          1           0       -1.899997   -1.107011    2.795200
     71          1           0       -2.975858   -2.586827    4.581091
     72          1           0       -3.097470   -0.878914    4.722598
     73          1           0       -4.465002   -1.972735    4.158758
     74          1           0       -2.255853   -3.193737   -0.150824
     75          1           0       -1.487705   -1.915651    0.357416
     76          1           0       -0.635068   -3.127886    2.645620
     77          1           0       -1.600902   -4.331098    1.834124
     78          1           0       -1.774509    3.642607    4.061041
     79          1           0       -2.716680    4.969317    4.726960
     80          1           0       -2.905278    3.171722    5.143430
     81          1           0       -5.115445    6.742755    1.800356
     82          1           0      -10.327278    3.126407   -3.103216
     83          1           0      -10.105268    4.478233   -3.087006
     84          1           0       -9.751674    3.827069   -5.242938
     85          1           0       -8.308906    4.862967   -4.811409
     86          1           0       -8.193352    2.920058   -4.794537
     87          1           0       -8.236838   -1.310630   -4.886842
     88          1           0       -8.478883   -2.942239   -3.922088
     89          1           0       -9.399306   -1.434934   -3.546158
     90          1           0       -4.120624   -3.864314   -1.689734
     91          1           0        2.531846   -5.869876    0.909675
     92          1           0        2.116510   -5.007037   -0.378344
     93          1           0        3.574738   -3.654445    2.047264
     94          1           0        2.749248   -3.535395   -1.825312
     95          1           0        3.689497   -2.088155   -1.731720
     96          1           0        4.566366   -3.720386   -1.861587
     97          1           0        4.819070   -1.183504    0.080542
     98          1           0        5.043713   -2.042822    1.569914
     99          1           0        6.481912   -3.625422    0.263976
    100          1           0        6.512301   -2.382562   -1.111321
    101          1           0        7.050897   -0.800802    0.637359
    102          1           0        7.571360   -1.960602    1.814784
    103          1           0        8.652972   -1.685032   -1.093835
    104          1           0        8.671825   -4.223471   -0.154163
    105          1           0       10.439214   -3.705935   -0.440117
    106          1           0        9.864627   -3.656421    1.048141
    107          1           0        9.385366    0.054070    0.285528
    108          1           0       10.239819   -0.974582    1.523685
    109          1           0       12.022535   -1.826779   -0.172867
    110          1           0       11.249735   -0.883511   -1.372347
    111          1           0       11.522955    1.160632   -0.074159
    112          1           0       12.230622    0.313588    1.244167
    113          1           0       13.298796    0.421586   -1.808060
    114          1           0       14.871877   -0.641358    0.546349
    115          1           0       13.799883   -1.634786   -0.704263
    116          1           0       15.409097   -0.782006   -1.072712
    117          1           0       13.546591    2.626704   -0.285867
    118          1           0       14.608616    1.870948    0.862765
    119          1           0       16.362566    1.305886   -0.728037
    120          1           0       15.399889    1.878073   -2.098132
    121          1           0       15.309936    4.214690   -0.612879
    122          1           0       16.167846    3.714727    0.482295
    123          1           0       18.044153    2.924562   -1.095643
    124          1           0       16.492525    4.777217   -3.481186
    125          1           0       18.174904    4.124397   -3.392642
    126          1           0       16.857824    2.953751   -3.219849
    127          1           0       18.116209    4.950027    0.384531
    128          1           0       19.020429    5.452180   -1.042137
    129          1           0       17.203347    5.956945   -0.780111
    130          1           0       -4.748951   -7.905377    0.039687
    131          1           0       -6.365612   -7.153611    0.744077
    132          1           0       -4.608381   -6.958024    1.603536
    133          8           0       -7.765934    6.824852   -0.636633
    134          1           0       -9.202945    6.344522   -1.729527
 ---------------------------------------------------------------------

 SCF Done:  E(RCAM-B3LYP) =  -3043.45737408     A.U. after   16 cycles

 Excitation energies and oscillator strengths:

 Excited State   1:      Singlet-A      1.9318 eV  641.80 nm  f=0.1885  <S**2>=0.000
     243 -> 246       -0.26258
     244 -> 245        0.65078
 This state for optimization and/or second-order correction.
 Total Energy, E(TD-HF/TD-DFT) =  -3043.38638138
 Copying the excited state density for this state as the 1-particle RhoCI density.

 The electronic state is 1-A.
 Alpha  occ. eigenvalues --  -46.81655 -19.23528 -19.23225 -19.19171 -19.16973
 Alpha  occ. eigenvalues --  -19.16822 -19.16272 -19.15659 -14.39607 -14.36905
 Alpha  occ. eigenvalues --  -14.36437 -14.36302 -10.36806 -10.34644 -10.31740
 Alpha  occ. eigenvalues --  -10.30271 -10.29723 -10.28379 -10.28017 -10.27430
 Alpha  occ. eigenvalues --  -10.26972 -10.26881 -10.26480 -10.26396 -10.26329
 Alpha  occ. eigenvalues --  -10.25793 -10.25591 -10.25404 -10.24930 -10.24731
 Alpha  occ. eigenvalues --  -10.24719 -10.24583 -10.24533 -10.24383 -10.24176
 Alpha  occ. eigenvalues --  -10.24136 -10.24051 -10.23618 -10.23488 -10.23459
 Alpha  occ. eigenvalues --  -10.23368 -10.23076 -10.22977 -10.22906 -10.22748
 Alpha  occ. eigenvalues --  -10.22725 -10.22688 -10.22678 -10.22340 -10.22310
 Alpha  occ. eigenvalues --  -10.22075 -10.21840 -10.21788 -10.21762 -10.21732
 Alpha  occ. eigenvalues --  -10.21679 -10.21674 -10.21670 -10.21582 -10.21524
 Alpha  occ. eigenvalues --  -10.21452 -10.21176 -10.21157 -10.20985 -10.20921
 Alpha  occ. eigenvalues --  -10.20494  -3.10148  -1.85091  -1.84601  -1.84569
 Alpha  occ. eigenvalues --   -1.17103  -1.14277  -1.08873  -1.07096  -1.06578
 Alpha  occ. eigenvalues --   -1.05209  -1.04044  -1.01143  -1.00389  -0.98557
 Alpha  occ. eigenvalues --   -0.97194  -0.89695  -0.87259  -0.86051  -0.85762
 Alpha  occ. eigenvalues --   -0.85483  -0.85145  -0.84090  -0.83458  -0.83125
 Alpha  occ. eigenvalues --   -0.82496  -0.82482  -0.82420  -0.80764  -0.79814
 Alpha  occ. eigenvalues --   -0.79143  -0.78261  -0.77898  -0.77459  -0.76998
 Alpha  occ. eigenvalues --   -0.75953  -0.74873  -0.74124  -0.73152  -0.71774
 Alpha  occ. eigenvalues --   -0.71662  -0.70927  -0.70274  -0.70117  -0.69800
 Alpha  occ. eigenvalues --   -0.69641  -0.68475  -0.67769  -0.67469  -0.66793
 Alpha  occ. eigenvalues --   -0.65674  -0.64866  -0.63827  -0.63170  -0.62677
 Alpha  occ. eigenvalues --   -0.61637  -0.60665  -0.60397  -0.60273  -0.59140
 Alpha  occ. eigenvalues --   -0.59099  -0.58582  -0.58444  -0.57507  -0.57285
 Alpha  occ. eigenvalues --   -0.56314  -0.56008  -0.55475  -0.55081  -0.54696
 Alpha  occ. eigenvalues --   -0.54239  -0.53695  -0.52869  -0.52775  -0.52348
 Alpha  occ. eigenvalues --   -0.52007  -0.51797  -0.51633  -0.51344  -0.51100
 Alpha  occ. eigenvalues --   -0.50274  -0.49972  -0.49660  -0.49288  -0.49232
 Alpha  occ. eigenvalues --   -0.48845  -0.48723  -0.48364  -0.48269  -0.47786
 Alpha  occ. eigenvalues --   -0.47440  -0.47098  -0.47088  -0.46806  -0.46679
 Alpha  occ. eigenvalues --   -0.46438  -0.46377  -0.46195  -0.46047  -0.45976
 Alpha  occ. eigenvalues --   -0.45883  -0.45498  -0.45353  -0.45254  -0.45057
 Alpha  occ. eigenvalues --   -0.44561  -0.44405  -0.44317  -0.43846  -0.43698
 Alpha  occ. eigenvalues --   -0.43592  -0.43095  -0.42797  -0.42566  -0.42407
 Alpha  occ. eigenvalues --   -0.42280  -0.42178  -0.42029  -0.41948  -0.41665
 Alpha  occ. eigenvalues --   -0.41578  -0.41450  -0.41194  -0.41122  -0.40879
 Alpha  occ. eigenvalues --   -0.40841  -0.40741  -0.40488  -0.40086  -0.40018
 Alpha  occ. eigenvalues --   -0.39846  -0.39647  -0.39518  -0.39400  -0.39178
 Alpha  occ. eigenvalues --   -0.39045  -0.38886  -0.38665  -0.38288  -0.38104
 Alpha  occ. eigenvalues --   -0.37939  -0.37771  -0.37555  -0.37228  -0.37110
 Alpha  occ. eigenvalues --   -0.36860  -0.36707  -0.36614  -0.36244  -0.35893
 Alpha  occ. eigenvalues --   -0.35677  -0.35286  -0.34669  -0.34558  -0.34328
 Alpha  occ. eigenvalues --   -0.34083  -0.33941  -0.33908  -0.33732  -0.33550
 Alpha  occ. eigenvalues --   -0.33324  -0.33184  -0.32420  -0.32266  -0.31681
 Alpha  occ. eigenvalues --   -0.31471  -0.31310  -0.31300  -0.30608  -0.30213
 Alpha  occ. eigenvalues --   -0.28138  -0.27751  -0.27536  -0.27146  -0.27135
 Alpha  occ. eigenvalues --   -0.26753  -0.26743  -0.22731  -0.21020
 Alpha virt. eigenvalues --   -0.08465  -0.06282  -0.02526   0.00266   0.00694
 Alpha virt. eigenvalues --    0.01720   0.02638   0.03535   0.03928   0.04571
 Alpha virt. eigenvalues --    0.05068   0.05870   0.08048   0.09137   0.09328

 Mulliken charges:
               1
     1  Mg   0.834404
     2  C    0.089428
     3  C   -0.168570
     4  C   -0.177683
     5  C   -0.175545
     6  N   -0.615426
     7  C    0.260080
     8  C   -0.138229
     9  C   -0.185967
    10  C    0.345399
    11  C   -0.304001
    12  C   -0.139580
    13  C   -0.274385
    14  C    0.620823
    15  O   -0.490930
    16  O   -0.418313
    17  N   -0.692758
    18  C    0.256442
    19  C    0.038918
    20  C    0.022757
    21  C    0.287475
    22  C   -0.408850
    23  C    0.224227
    24  O   -0.385758
    25  N   -0.694950
    26  C    0.348955
    27  C   -0.045241
    28  C    0.037506
    29  C    0.256766
    30  C    0.228583
    31  C   -0.206050
    32  C   -0.318127
    33  N   -0.737096
    34  C    0.354578
    35  C    0.033518
    36  C    0.041466
    37  C    0.277423
    38  C   -0.400735
    39  C    0.347911
    40  O   -0.484300
    41  C   -0.331758
    42  C    0.633688
    43  O   -0.437683
    44  O   -0.441160
    45  C   -0.082628
    46  C    0.010090
    47  C   -0.144256
    48  C    0.120616
    49  C   -0.364911
    50  C   -0.246307
    51  C   -0.152509
    52  C   -0.180958
    53  C   -0.018567
    54  C   -0.323128
    55  C   -0.159272
    56  C   -0.176142
    57  C   -0.166212
    58  C   -0.051574
    59  C   -0.283026
    60  C   -0.185542
    61  C   -0.161794
    62  C   -0.151424
    63  C   -0.044428
    64  C   -0.303702
    65  C   -0.317503
    66  H    0.082567
    67  H    0.135200
    68  H    0.098644
    69  H    0.124265
    70  H    0.099058
    71  H    0.111132
    72  H    0.101897
    73  H    0.131117
    74  H    0.100693
    75  H    0.122061
    76  H    0.093902
    77  H    0.137370
    78  H    0.133087
    79  H    0.152341
    80  H    0.115100
    81  H    0.045190
    82  H    0.113499
    83  H    0.102508
    84  H    0.113642
    85  H    0.103211
    86  H    0.121143
    87  H    0.105350
    88  H    0.152954
    89  H    0.115015
    90  H    0.165331
    91  H    0.117471
    92  H    0.129932
    93  H    0.069480
    94  H    0.141830
    95  H    0.117660
    96  H    0.117262
    97  H    0.106617
    98  H    0.082850
    99  H    0.117030
   100  H    0.107440
   101  H    0.076898
   102  H    0.078270
   103  H    0.060348
   104  H    0.086612
   105  H    0.107723
   106  H    0.117734
   107  H    0.076028
   108  H    0.073523
   109  H    0.065644
   110  H    0.088036
   111  H    0.093345
   112  H    0.088405
   113  H    0.066123
   114  H    0.120719
   115  H    0.105209
   116  H    0.054701
   117  H    0.076808
   118  H    0.086161
   119  H    0.092814
   120  H    0.082026
   121  H    0.099744
   122  H    0.072514
   123  H    0.076263
   124  H    0.065889
   125  H    0.101458
   126  H    0.100074
   127  H    0.107600
   128  H    0.098145
   129  H    0.099133
   130  H    0.134927
   131  H    0.133791
   132  H    0.101729
   133  O   -0.419259
   134  H    0.062937
 Sum of Mulliken charges =  -0.00000

 Dipole moment (field-independent basis, Debye):
    X=              2.9008    Y=             -6.1926    Z=              0.3106  Tot=              6.8454
 Quadrupole moment (field-independent basis, Debye-Ang):
   XX=           -372.4755   YY=           -439.5812   ZZ=           -395.8526
   XY=              7.4034   XZ=             23.9953   YZ=            -31.9197

 Normal termination of Gaussian 16 at Wed Oct  9 13:32:22 2019.
