 Gaussian 16, Revision A.03,
 Gaussian 16:  ES64L-G16RevA.03 25-Dec-2016

 ----------------------------------------------------------------------
 # td=(NStates=1) iop(3/107=0140000000,3/108=0140000000) iop(3/107=0140
 000000,3/108=0140000000) CAM-B3LYP/6-31G(d,p)
 ----------------------------------------------------------------------

 --
 TD
 --
 Symbolic Z-matrix:
 Charge =  0 Multiplicity = 1

                         Standard orientation:
 ---------------------------------------------------------------------
 Center     Atomic      Atomic             Coordinates (Angstroms)
 Number     Number       Type             X           Y           Z
 ---------------------------------------------------------------------
      1         12           0       -5.533301    1.230135    0.184381
      2          6           0       -5.170073   -2.045768   -0.372428
      3          6           0       -3.342527    1.077027    2.766384
      4          6           0       -6.089677    4.504251    0.722620
      5          6           0       -7.936728    1.262133   -2.335768
      6          7           0       -4.408118   -0.329389    1.138363
      7          6           0       -4.271425   -1.578164    0.617347
      8          6           0       -3.251740   -2.399967    1.451058
      9          6           0       -2.906631   -1.387457    2.536418
     10          6           0       -3.515899   -0.021101    2.085892
     11          6           0       -3.512610   -1.766840    3.923590
     12          6           0       -2.068230   -2.731378    0.522697
     13          6           0       -0.994449   -3.584918    1.368749
     14          6           0        0.148625   -3.944390    0.553291
     15          8           0        0.464485   -3.486293   -0.520705
     16          8           0        0.939469   -4.749834    1.131761
     17          7           0       -4.695055    2.593799    1.374241
     18          6           0       -3.825697    2.332269    2.344950
     19          6           0       -3.574769    3.596894    3.168490
     20          6           0       -4.392367    4.529812    2.561219
     21          6           0       -5.166944    3.831834    1.530277
     22          6           0       -2.756657    3.769619    4.368742
     23          6           0       -4.570111    5.964876    3.028893
     24          8           0       -3.922449    6.542000    3.866936
     25          7           0       -6.716908    2.707858   -0.786560
     26          6           0       -6.703889    4.028774   -0.479125
     27          6           0       -7.713562    4.709719   -1.179646
     28          6           0       -8.394788    3.667373   -2.031778
     29          6           0       -7.656455    2.530125   -1.715623
     30          6           0       -8.206451    6.171342   -1.150788
     31          6           0       -9.438320    3.968894   -3.057977
     32          6           0       -8.858807    4.181210   -4.438166
     33          7           0       -6.307041   -0.008718   -1.152874
     34          6           0       -7.304235    0.105266   -2.160113
     35          6           0       -7.551599   -1.213138   -2.782557
     36          6           0       -6.745071   -2.094794   -2.047985
     37          6           0       -6.012440   -1.323212   -1.079043
     38          6           0       -8.609767   -1.541316   -3.795212
     39          6           0       -6.362542   -3.542991   -2.024527
     40          8           0       -6.677490   -4.539087   -2.613114
     41          6           0       -5.219626   -3.526621   -0.912852
     42          6           0       -5.456632   -4.591639    0.173357
     43          8           0       -5.844615   -4.477786    1.339162
     44          8           0       -5.224773   -5.796852   -0.368930
     45          6           0       -5.487274   -7.039163    0.440877
     46          6           0        2.174360   -5.146523    0.554669
     47          6           0        3.235880   -4.123218    0.985125
     48          6           0        3.997343   -3.284946    0.149168
     49          6           0        3.650580   -3.101960   -1.266407
     50          6           0        5.079207   -2.465016    0.645425
     51          6           0        6.542743   -2.949102    0.102788
     52          6           0        7.580403   -1.960105    0.641372
     53          6           0        8.987023   -2.069775   -0.063218
     54          6           0        9.551219   -3.440724    0.117225
     55          6           0       10.030327   -1.041208    0.444668
     56          6           0       11.374414   -0.928845   -0.250192
     57          6           0       12.211857    0.250493    0.208143
     58          6           0       13.533030    0.534867   -0.548954
     59          6           0       14.556974   -0.594469   -0.429260
     60          6           0       14.185324    1.835903   -0.212818
     61          6           0       15.521778    2.061167   -0.899040
     62          6           0       16.000477    3.467023   -0.680303
     63          6           0       17.437743    3.903518   -1.427403
     64          6           0       17.217359    3.991374   -2.973570
     65          6           0       17.934090    5.218168   -0.734663
     66          1           0       -2.447918    1.439168    3.464888
     67          1           0       -6.176198    5.642484    0.971977
     68          1           0       -8.928163    1.426451   -3.012847
     69          1           0       -3.850640   -3.213315    1.510341
     70          1           0       -1.841551   -1.248450    2.862581
     71          1           0       -3.201015   -2.699377    4.304602
     72          1           0       -3.202752   -1.073684    4.754899
     73          1           0       -4.613170   -1.755833    4.076731
     74          1           0       -2.547024   -3.311801   -0.183257
     75          1           0       -1.615033   -1.791325    0.104885
     76          1           0       -0.725338   -3.179668    2.354297
     77          1           0       -1.430722   -4.581005    1.640847
     78          1           0       -1.695186    3.618270    4.204015
     79          1           0       -2.831468    4.713577    4.873751
     80          1           0       -2.872990    2.929127    5.254583
     81          1           0       -5.545843    6.564166    2.764426
     82          1           0      -10.159275    3.027688   -3.220487
     83          1           0      -10.060508    4.695215   -2.647389
     84          1           0       -9.701203    4.518973   -5.032562
     85          1           0       -8.014153    4.958272   -4.482826
     86          1           0       -8.361166    3.270688   -4.816858
     87          1           0       -8.273178   -0.991038   -4.895886
     88          1           0       -8.586557   -2.564143   -4.176107
     89          1           0       -9.724387   -1.354221   -3.644953
     90          1           0       -4.281493   -3.807375   -1.536357
     91          1           0        2.578358   -6.098184    0.898993
     92          1           0        1.985933   -5.256477   -0.528279
     93          1           0        3.528647   -4.392030    2.050317
     94          1           0        2.534640   -3.274943   -1.264571
     95          1           0        3.766641   -2.014174   -1.696768
     96          1           0        4.291903   -3.649540   -1.821128
     97          1           0        4.832855   -1.560180    0.583613
     98          1           0        5.216589   -2.570930    1.702909
     99          1           0        6.969507   -4.032393    0.412141
    100          1           0        6.585771   -2.895793   -1.077553
    101          1           0        7.389500   -0.762863    0.562810
    102          1           0        7.631164   -2.290596    1.731801
    103          1           0        8.948468   -1.861307   -1.044994
    104          1           0        8.843405   -4.219511   -0.303628
    105          1           0       10.509025   -3.669719   -0.307776
    106          1           0        9.747243   -3.451194    1.278423
    107          1           0        9.550123   -0.086123    0.292688
    108          1           0       10.054547   -1.154499    1.610705
    109          1           0       11.984571   -1.676805    0.071393
    110          1           0       11.293936   -1.014027   -1.309549
    111          1           0       11.701185    1.316713    0.130112
    112          1           0       12.225575    0.349380    1.224315
    113          1           0       13.266627    0.448726   -1.570082
    114          1           0       14.989062   -0.677470    0.587227
    115          1           0       13.915567   -1.481778   -0.589699
    116          1           0       15.456276   -0.621542   -0.929821
    117          1           0       13.669801    2.789002   -0.460421
    118          1           0       14.419014    1.987430    0.919605
    119          1           0       16.275105    1.251233   -0.491735
    120          1           0       15.355133    1.946524   -2.094994
    121          1           0       15.282206    4.318953   -0.813089
    122          1           0       16.331716    3.549174    0.479451
    123          1           0       18.154048    3.042602   -1.143209
    124          1           0       16.013592    4.761236   -2.925926
    125          1           0       18.074957    4.458481   -3.389877
    126          1           0       16.981027    3.130492   -3.610541
    127          1           0       18.052659    5.049315    0.545160
    128          1           0       19.001876    5.292294   -1.053259
    129          1           0       17.344839    6.050717   -1.126279
    130          1           0       -5.283389   -7.823809   -0.197696
    131          1           0       -6.651264   -7.103204    0.962075
    132          1           0       -4.863139   -7.100816    1.381260
    133          8           0       -7.761323    6.927772   -0.250474
    134          1           0       -9.061940    6.567864   -1.853371
 ---------------------------------------------------------------------

 SCF Done:  E(RCAM-B3LYP) =  -3043.43518224     A.U. after   15 cycles

 Excitation energies and oscillator strengths:

 Excited State   1:      Singlet-A      2.2152 eV  559.69 nm  f=0.0966  <S**2>=0.000
     243 -> 246        0.35017
     244 -> 245        0.59879
 This state for optimization and/or second-order correction.
 Total Energy, E(TD-HF/TD-DFT) =  -3043.35377390
 Copying the excited state density for this state as the 1-particle RhoCI density.

 The electronic state is 1-A.
 Alpha  occ. eigenvalues --  -46.81318 -19.23156 -19.21821 -19.18519 -19.17412
 Alpha  occ. eigenvalues --  -19.17387 -19.16749 -19.15100 -14.38550 -14.37284
 Alpha  occ. eigenvalues --  -14.36548 -14.35829 -10.35736 -10.33560 -10.32685
 Alpha  occ. eigenvalues --  -10.31484 -10.31067 -10.29482 -10.28245 -10.27638
 Alpha  occ. eigenvalues --  -10.27189 -10.27041 -10.26757 -10.26318 -10.26250
 Alpha  occ. eigenvalues --  -10.26034 -10.25795 -10.25372 -10.25126 -10.24854
 Alpha  occ. eigenvalues --  -10.24705 -10.24688 -10.24633 -10.24309 -10.24081
 Alpha  occ. eigenvalues --  -10.23961 -10.23767 -10.23572 -10.23544 -10.23437
 Alpha  occ. eigenvalues --  -10.23393 -10.23345 -10.23303 -10.23215 -10.23150
 Alpha  occ. eigenvalues --  -10.23091 -10.22832 -10.22812 -10.22759 -10.22647
 Alpha  occ. eigenvalues --  -10.22591 -10.22202 -10.22132 -10.21901 -10.21807
 Alpha  occ. eigenvalues --  -10.21442 -10.21178 -10.20943 -10.20753 -10.20572
 Alpha  occ. eigenvalues --  -10.20544 -10.20440 -10.20116 -10.20023 -10.19692
 Alpha  occ. eigenvalues --  -10.19086  -3.09984  -1.84920  -1.84471  -1.84385
 Alpha  occ. eigenvalues --   -1.16303  -1.12820  -1.08909  -1.07517  -1.04203
 Alpha  occ. eigenvalues --   -1.03858  -1.03595  -1.01722  -1.00588  -1.00080
 Alpha  occ. eigenvalues --   -0.99039  -0.88912  -0.86271  -0.86037  -0.85603
 Alpha  occ. eigenvalues --   -0.85200  -0.84433  -0.84338  -0.83602  -0.83454
 Alpha  occ. eigenvalues --   -0.82833  -0.82289  -0.81735  -0.80349  -0.79798
 Alpha  occ. eigenvalues --   -0.78766  -0.77820  -0.77477  -0.77128  -0.76684
 Alpha  occ. eigenvalues --   -0.75635  -0.74969  -0.74524  -0.73027  -0.72358
 Alpha  occ. eigenvalues --   -0.71556  -0.70598  -0.69815  -0.69685  -0.69285
 Alpha  occ. eigenvalues --   -0.69166  -0.68675  -0.66979  -0.66635  -0.66095
 Alpha  occ. eigenvalues --   -0.65685  -0.65344  -0.63826  -0.62689  -0.62061
 Alpha  occ. eigenvalues --   -0.61634  -0.60818  -0.60449  -0.59188  -0.58829
 Alpha  occ. eigenvalues --   -0.58827  -0.58229  -0.57700  -0.57119  -0.56937
 Alpha  occ. eigenvalues --   -0.56449  -0.56126  -0.55867  -0.55482  -0.54481
 Alpha  occ. eigenvalues --   -0.53946  -0.53225  -0.52899  -0.52415  -0.52108
 Alpha  occ. eigenvalues --   -0.51639  -0.51425  -0.50790  -0.50530  -0.50205
 Alpha  occ. eigenvalues --   -0.49910  -0.49813  -0.49635  -0.49528  -0.49117
 Alpha  occ. eigenvalues --   -0.48860  -0.48801  -0.48361  -0.48180  -0.48029
 Alpha  occ. eigenvalues --   -0.47873  -0.47374  -0.47267  -0.47149  -0.46794
 Alpha  occ. eigenvalues --   -0.46589  -0.46122  -0.46029  -0.45839  -0.45694
 Alpha  occ. eigenvalues --   -0.45611  -0.45306  -0.45204  -0.44912  -0.44405
 Alpha  occ. eigenvalues --   -0.44313  -0.44209  -0.44025  -0.43825  -0.43447
 Alpha  occ. eigenvalues --   -0.43351  -0.43054  -0.42838  -0.42821  -0.42738
 Alpha  occ. eigenvalues --   -0.42544  -0.42325  -0.42179  -0.41992  -0.41915
 Alpha  occ. eigenvalues --   -0.41771  -0.41405  -0.41279  -0.41195  -0.40810
 Alpha  occ. eigenvalues --   -0.40785  -0.40453  -0.40289  -0.40098  -0.39997
 Alpha  occ. eigenvalues --   -0.39862  -0.39652  -0.39361  -0.38974  -0.38762
 Alpha  occ. eigenvalues --   -0.38708  -0.38512  -0.38285  -0.37997  -0.37935
 Alpha  occ. eigenvalues --   -0.37742  -0.37462  -0.37182  -0.37088  -0.37004
 Alpha  occ. eigenvalues --   -0.36522  -0.36325  -0.36119  -0.35924  -0.35513
 Alpha  occ. eigenvalues --   -0.35262  -0.34857  -0.34765  -0.34551  -0.34091
 Alpha  occ. eigenvalues --   -0.34066  -0.33572  -0.33376  -0.33302  -0.33067
 Alpha  occ. eigenvalues --   -0.32881  -0.32351  -0.31942  -0.31788  -0.31630
 Alpha  occ. eigenvalues --   -0.31477  -0.30947  -0.30414  -0.30242  -0.29530
 Alpha  occ. eigenvalues --   -0.28947  -0.28600  -0.28561  -0.27456  -0.27310
 Alpha  occ. eigenvalues --   -0.26274  -0.25970  -0.23034  -0.21950
 Alpha virt. eigenvalues --   -0.07602  -0.06788  -0.02117  -0.00772   0.00756
 Alpha virt. eigenvalues --    0.02464   0.03300   0.03635   0.04107   0.05136
 Alpha virt. eigenvalues --    0.05252   0.05482   0.07731   0.07748   0.08551

 Mulliken charges:
               1
     1  Mg   0.823750
     2  C    0.057110
     3  C   -0.153514
     4  C   -0.164898
     5  C   -0.182872
     6  N   -0.634031
     7  C    0.270670
     8  C   -0.125829
     9  C   -0.153706
    10  C    0.373513
    11  C   -0.323402
    12  C   -0.154641
    13  C   -0.288012
    14  C    0.601317
    15  O   -0.495131
    16  O   -0.415668
    17  N   -0.694623
    18  C    0.253759
    19  C    0.068377
    20  C   -0.044126
    21  C    0.315997
    22  C   -0.415789
    23  C    0.244015
    24  O   -0.399588
    25  N   -0.667871
    26  C    0.273131
    27  C   -0.063917
    28  C    0.025632
    29  C    0.301423
    30  C    0.227104
    31  C   -0.239089
    32  C   -0.296545
    33  N   -0.758971
    34  C    0.281700
    35  C    0.067268
    36  C   -0.016353
    37  C    0.373585
    38  C   -0.392317
    39  C    0.387000
    40  O   -0.426974
    41  C   -0.339881
    42  C    0.621463
    43  O   -0.486598
    44  O   -0.440263
    45  C   -0.081741
    46  C   -0.008697
    47  C   -0.157454
    48  C    0.120616
    49  C   -0.382972
    50  C   -0.201271
    51  C   -0.192269
    52  C   -0.153238
    53  C   -0.057186
    54  C   -0.299307
    55  C   -0.185888
    56  C   -0.175472
    57  C   -0.184965
    58  C   -0.039632
    59  C   -0.323685
    60  C   -0.163105
    61  C   -0.153257
    62  C   -0.164474
    63  C   -0.058986
    64  C   -0.268548
    65  C   -0.292378
    66  H    0.092342
    67  H    0.137933
    68  H    0.087172
    69  H    0.128258
    70  H    0.102682
    71  H    0.114617
    72  H    0.098810
    73  H    0.122538
    74  H    0.110025
    75  H    0.125463
    76  H    0.145629
    77  H    0.131223
    78  H    0.132708
    79  H    0.164665
    80  H    0.098294
    81  H    0.077711
    82  H    0.085500
    83  H    0.118551
    84  H    0.113551
    85  H    0.106634
    86  H    0.115706
    87  H    0.092896
    88  H    0.153534
    89  H    0.139552
    90  H    0.164987
    91  H    0.121053
    92  H    0.124832
    93  H    0.079106
    94  H    0.162359
    95  H    0.087482
    96  H    0.129503
    97  H    0.118380
    98  H    0.095411
    99  H    0.100346
   100  H    0.080803
   101  H    0.072214
   102  H    0.087845
   103  H    0.091327
   104  H    0.088492
   105  H    0.104603
   106  H    0.079538
   107  H    0.088884
   108  H    0.070484
   109  H    0.119334
   110  H    0.093823
   111  H    0.058188
   112  H    0.100631
   113  H    0.094128
   114  H    0.089072
   115  H    0.086750
   116  H    0.115579
   117  H    0.086052
   118  H    0.076763
   119  H    0.083717
   120  H    0.066901
   121  H    0.087446
   122  H    0.057797
   123  H    0.075539
   124  H    0.023659
   125  H    0.110863
   126  H    0.120349
   127  H    0.077089
   128  H    0.102728
   129  H    0.114841
   130  H    0.144953
   131  H    0.112552
   132  H    0.131465
   133  O   -0.424164
   134  H    0.082013
 Sum of Mulliken charges =  -0.00000

 Dipole moment (field-independent basis, Debye):
    X=              1.9593    Y=             -5.8768    Z=             -1.2340  Tot=              6.3166
 Quadrupole moment (field-independent basis, Debye-Ang):
   XX=           -363.2084   YY=           -431.7963   ZZ=           -393.4459
   XY=             10.2913   XZ=             21.3045   YZ=            -30.3064

 Normal termination of Gaussian 16 at Fri Oct  4 19:51:21 2019.
