 Gaussian 16, Revision A.03,
 Gaussian 16:  ES64L-G16RevA.03 25-Dec-2016

 ----------------------------------------------------------------------
 # td=(NStates=1) iop(3/107=0140000000,3/108=0140000000) iop(3/107=0140
 000000,3/108=0140000000) CAM-B3LYP/6-31G(d,p)
 ----------------------------------------------------------------------

 --
 TD
 --
 Symbolic Z-matrix:
 Charge =  0 Multiplicity = 1

                         Standard orientation:
 ---------------------------------------------------------------------
 Center     Atomic      Atomic             Coordinates (Angstroms)
 Number     Number       Type             X           Y           Z
 ---------------------------------------------------------------------
      1         12           0       -5.665175    1.216954    0.145453
      2          6           0       -4.959424   -2.099731   -0.298876
      3          6           0       -3.383546    1.246381    2.751987
      4          6           0       -6.318308    4.482066    0.611650
      5          6           0       -8.031536    1.091855   -2.377346
      6          7           0       -4.316747   -0.278699    1.024908
      7          6           0       -4.184872   -1.597419    0.709125
      8          6           0       -3.138151   -2.263689    1.443329
      9          6           0       -2.839443   -1.291721    2.585778
     10          6           0       -3.567438   -0.019348    2.163996
     11          6           0       -3.377914   -1.655794    3.976060
     12          6           0       -1.918448   -2.718731    0.661214
     13          6           0       -0.980706   -3.632753    1.409919
     14          6           0        0.257727   -4.004362    0.687935
     15          8           0        0.469501   -3.706984   -0.504828
     16          8           0        1.105239   -4.771264    1.317886
     17          7           0       -4.976998    2.638280    1.408994
     18          6           0       -4.047221    2.410038    2.350164
     19          6           0       -3.776615    3.734890    3.002845
     20          6           0       -4.649753    4.622416    2.441688
     21          6           0       -5.385566    3.929329    1.460253
     22          6           0       -2.861101    3.904965    4.199396
     23          6           0       -4.849742    6.073156    2.941804
     24          8           0       -4.313478    6.737258    3.791807
     25          7           0       -7.072546    2.626288   -0.655030
     26          6           0       -7.145614    3.875287   -0.322879
     27          6           0       -8.045409    4.601224   -1.273496
     28          6           0       -8.494271    3.558224   -2.037049
     29          6           0       -7.753308    2.371642   -1.705548
     30          6           0       -8.493280    5.943083   -1.200725
     31          6           0       -9.398688    3.818711   -3.216838
     32          6           0       -8.632612    4.035892   -4.495409
     33          7           0       -6.369315   -0.156107   -1.232127
     34          6           0       -7.341209   -0.106091   -2.130447
     35          6           0       -7.479604   -1.428329   -2.828441
     36          6           0       -6.639447   -2.275368   -2.037381
     37          6           0       -5.929190   -1.469345   -1.139571
     38          6           0       -8.401879   -1.795951   -3.892768
     39          6           0       -6.136360   -3.581833   -1.914090
     40          8           0       -6.464609   -4.620882   -2.428440
     41          6           0       -4.991606   -3.542441   -0.792838
     42          6           0       -5.355582   -4.602204    0.286821
     43          8           0       -5.881131   -4.391342    1.360769
     44          8           0       -4.953199   -5.856431   -0.166154
     45          6           0       -5.261996   -6.935482    0.645460
     46          6           0        2.264445   -5.055426    0.683613
     47          6           0        3.412984   -4.075859    0.956697
     48          6           0        3.986288   -3.209022    0.084578
     49          6           0        3.757434   -3.044995   -1.373757
     50          6           0        5.154814   -2.404729    0.634303
     51          6           0        6.518531   -2.610912   -0.064228
     52          6           0        7.562472   -1.742512    0.411500
     53          6           0        9.016404   -1.895553   -0.153379
     54          6           0        9.632511   -3.216026    0.190785
     55          6           0        9.924770   -0.765526    0.459579
     56          6           0       11.302576   -0.734099   -0.245811
     57          6           0       12.228594    0.376661    0.165995
     58          6           0       13.550416    0.549726   -0.572356
     59          6           0       14.459160   -0.680911   -0.219841
     60          6           0       14.236665    1.859919   -0.168060
     61          6           0       15.531562    2.049309   -0.906612
     62          6           0       16.174464    3.485928   -0.555137
     63          6           0       17.417070    3.861226   -1.330615
     64          6           0       17.187089    3.990046   -2.888500
     65          6           0       18.086265    5.068719   -0.712802
     66          1           0       -2.767856    1.399698    3.561368
     67          1           0       -6.570060    5.529281    0.772134
     68          1           0       -8.802872    1.229843   -3.171198
     69          1           0       -3.631876   -3.201517    1.917091
     70          1           0       -1.738739   -1.108410    2.622827
     71          1           0       -2.732688   -2.469221    4.308153
     72          1           0       -2.866782   -0.866756    4.732845
     73          1           0       -4.468964   -1.991432    3.960105
     74          1           0       -2.129286   -3.193332   -0.453551
     75          1           0       -1.408142   -1.910275    0.188952
     76          1           0       -0.557991   -3.083046    2.273205
     77          1           0       -1.308188   -4.576416    1.872218
     78          1           0       -1.722029    3.659282    3.971222
     79          1           0       -2.797391    4.879056    4.633160
     80          1           0       -3.201881    3.219041    4.970318
     81          1           0       -5.707680    6.676402    2.499114
     82          1           0      -10.074047    2.900881   -3.554038
     83          1           0      -10.124044    4.528695   -3.086580
     84          1           0       -9.388332    3.926822   -5.411185
     85          1           0       -7.805633    4.950076   -4.466912
     86          1           0       -7.783735    3.099383   -4.680598
     87          1           0       -8.261430   -1.036177   -4.734138
     88          1           0       -8.211274   -2.805946   -4.235512
     89          1           0       -9.392290   -1.664140   -3.509371
     90          1           0       -4.248393   -3.950739   -1.187429
     91          1           0        2.615538   -6.142169    0.867149
     92          1           0        2.208750   -5.282437   -0.492879
     93          1           0        3.752223   -4.163941    1.994970
     94          1           0        2.691995   -3.542322   -1.507956
     95          1           0        3.671351   -2.012078   -1.781721
     96          1           0        4.330604   -3.562915   -1.815674
     97          1           0        5.096706   -1.298776    0.552986
     98          1           0        5.269253   -2.467886    1.679355
     99          1           0        6.752669   -3.784325    0.151374
    100          1           0        6.481217   -2.622364   -1.064849
    101          1           0        7.359956   -0.730919    0.111063
    102          1           0        7.667956   -1.913616    1.509493
    103          1           0        9.059332   -1.611696   -1.138875
    104          1           0        9.045157   -4.083593   -0.236352
    105          1           0       10.648756   -3.413183   -0.363065
    106          1           0        9.713535   -3.389084    1.232710
    107          1           0        9.394758    0.286945    0.151774
    108          1           0        9.969071   -1.097327    1.535150
    109          1           0       12.018403   -1.769799    0.000156
    110          1           0       11.248562   -0.613675   -1.247375
    111          1           0       11.767793    1.369299    0.067627
    112          1           0       12.596989    0.132995    1.301417
    113          1           0       13.292683    0.465434   -1.760486
    114          1           0       14.506827   -0.956320    0.898019
    115          1           0       14.129124   -1.585711   -1.068781
    116          1           0       15.679760   -0.657356   -0.426804
    117          1           0       13.658853    2.723786   -0.467932
    118          1           0       14.442824    1.862714    0.864179
    119          1           0       16.292352    1.410094   -0.632564
    120          1           0       15.448818    2.027636   -2.105884
    121          1           0       15.450943    4.264959   -0.803385
    122          1           0       16.404548    3.679400    0.481832
    123          1           0       18.195139    3.063312   -1.088230
    124          1           0       16.492719    4.966848   -3.156003
    125          1           0       18.096121    4.044870   -3.311007
    126          1           0       16.565786    3.134568   -3.360630
    127          1           0       18.189476    4.970334    0.284601
    128          1           0       19.079003    5.245594   -1.247182
    129          1           0       17.576228    6.041824   -0.468912
    130          1           0       -4.813473   -7.911519    0.060499
    131          1           0       -6.418231   -7.145956    0.540053
    132          1           0       -4.876749   -6.828877    1.649857
    133          8           0       -7.958651    6.745558   -0.390182
    134          1           0       -9.304153    6.349918   -1.969480
 ---------------------------------------------------------------------

 SCF Done:  E(RCAM-B3LYP) =  -3043.45571838     A.U. after   16 cycles

 Excitation energies and oscillator strengths:

 Excited State   1:      Singlet-A      2.0856 eV  594.46 nm  f=0.1624  <S**2>=0.000
     243 -> 245       -0.12797
     243 -> 246       -0.28391
     244 -> 245        0.61599
     244 -> 246       -0.11361
 This state for optimization and/or second-order correction.
 Total Energy, E(TD-HF/TD-DFT) =  -3043.37907235
 Copying the excited state density for this state as the 1-particle RhoCI density.

 The electronic state is 1-A.
 Alpha  occ. eigenvalues --  -46.83012 -19.24211 -19.22300 -19.17893 -19.17390
 Alpha  occ. eigenvalues --  -19.16859 -19.16712 -19.16308 -14.39058 -14.36910
 Alpha  occ. eigenvalues --  -14.36869 -14.36855 -10.35408 -10.35338 -10.31041
 Alpha  occ. eigenvalues --  -10.30858 -10.30752 -10.28549 -10.28397 -10.27904
 Alpha  occ. eigenvalues --  -10.27108 -10.26769 -10.26739 -10.26379 -10.26198
 Alpha  occ. eigenvalues --  -10.26161 -10.25794 -10.25732 -10.25519 -10.25468
 Alpha  occ. eigenvalues --  -10.24998 -10.24774 -10.24713 -10.24685 -10.24416
 Alpha  occ. eigenvalues --  -10.24196 -10.24126 -10.23875 -10.23782 -10.23568
 Alpha  occ. eigenvalues --  -10.23398 -10.23167 -10.23086 -10.23019 -10.23017
 Alpha  occ. eigenvalues --  -10.22677 -10.22557 -10.22534 -10.22509 -10.22372
 Alpha  occ. eigenvalues --  -10.22333 -10.21924 -10.21821 -10.21385 -10.21189
 Alpha  occ. eigenvalues --  -10.21059 -10.20778 -10.20778 -10.20772 -10.20508
 Alpha  occ. eigenvalues --  -10.20438 -10.20384 -10.20157 -10.19865 -10.19583
 Alpha  occ. eigenvalues --  -10.19511  -3.11330  -1.86292  -1.85794  -1.85724
 Alpha  occ. eigenvalues --   -1.17437  -1.13080  -1.07458  -1.07441  -1.05445
 Alpha  occ. eigenvalues --   -1.04779  -1.03800  -1.03597  -1.01010  -1.00632
 Alpha  occ. eigenvalues --   -0.99861  -0.89097  -0.87029  -0.86364  -0.85864
 Alpha  occ. eigenvalues --   -0.85297  -0.85034  -0.84448  -0.84106  -0.83375
 Alpha  occ. eigenvalues --   -0.83239  -0.83049  -0.82846  -0.80850  -0.80355
 Alpha  occ. eigenvalues --   -0.79669  -0.78647  -0.78242  -0.77579  -0.77211
 Alpha  occ. eigenvalues --   -0.75429  -0.74857  -0.74520  -0.72765  -0.72583
 Alpha  occ. eigenvalues --   -0.72023  -0.71325  -0.70432  -0.69768  -0.69345
 Alpha  occ. eigenvalues --   -0.69101  -0.68845  -0.67849  -0.67244  -0.65575
 Alpha  occ. eigenvalues --   -0.65223  -0.65107  -0.64646  -0.62709  -0.62373
 Alpha  occ. eigenvalues --   -0.62028  -0.61615  -0.60209  -0.59866  -0.59058
 Alpha  occ. eigenvalues --   -0.58923  -0.58341  -0.58220  -0.57624  -0.57074
 Alpha  occ. eigenvalues --   -0.56901  -0.56638  -0.55916  -0.55176  -0.54661
 Alpha  occ. eigenvalues --   -0.54307  -0.54104  -0.53660  -0.53348  -0.52659
 Alpha  occ. eigenvalues --   -0.52245  -0.51974  -0.51417  -0.51276  -0.50887
 Alpha  occ. eigenvalues --   -0.50585  -0.50016  -0.49791  -0.49452  -0.49438
 Alpha  occ. eigenvalues --   -0.49193  -0.48842  -0.48636  -0.48125  -0.48004
 Alpha  occ. eigenvalues --   -0.47964  -0.47608  -0.47416  -0.47221  -0.46981
 Alpha  occ. eigenvalues --   -0.46915  -0.46748  -0.46497  -0.46130  -0.46104
 Alpha  occ. eigenvalues --   -0.45890  -0.45797  -0.45786  -0.45243  -0.45132
 Alpha  occ. eigenvalues --   -0.44750  -0.44640  -0.44374  -0.44149  -0.43953
 Alpha  occ. eigenvalues --   -0.43766  -0.43697  -0.43522  -0.43353  -0.42745
 Alpha  occ. eigenvalues --   -0.42681  -0.42466  -0.42115  -0.41892  -0.41842
 Alpha  occ. eigenvalues --   -0.41741  -0.41703  -0.41617  -0.41440  -0.41372
 Alpha  occ. eigenvalues --   -0.41169  -0.41092  -0.40982  -0.40724  -0.40482
 Alpha  occ. eigenvalues --   -0.40102  -0.40022  -0.39774  -0.39396  -0.39179
 Alpha  occ. eigenvalues --   -0.38758  -0.38663  -0.38379  -0.38236  -0.38161
 Alpha  occ. eigenvalues --   -0.37369  -0.37302  -0.37143  -0.37024  -0.36748
 Alpha  occ. eigenvalues --   -0.36103  -0.35816  -0.35779  -0.35376  -0.35280
 Alpha  occ. eigenvalues --   -0.35077  -0.34604  -0.34447  -0.34338  -0.34316
 Alpha  occ. eigenvalues --   -0.34091  -0.34051  -0.33377  -0.33044  -0.32819
 Alpha  occ. eigenvalues --   -0.32646  -0.32549  -0.32256  -0.32038  -0.31912
 Alpha  occ. eigenvalues --   -0.31479  -0.31005  -0.30946  -0.30169  -0.29953
 Alpha  occ. eigenvalues --   -0.29085  -0.28521  -0.28005  -0.27961  -0.27637
 Alpha  occ. eigenvalues --   -0.27395  -0.27141  -0.22900  -0.21638
 Alpha virt. eigenvalues --   -0.08322  -0.06622  -0.01853  -0.00803   0.00579
 Alpha virt. eigenvalues --    0.03086   0.03114   0.03295   0.03660   0.04203
 Alpha virt. eigenvalues --    0.04717   0.05913   0.07738   0.08280   0.08957

 Mulliken charges:
               1
     1  Mg   0.836342
     2  C    0.080931
     3  C   -0.157620
     4  C   -0.167303
     5  C   -0.167838
     6  N   -0.642495
     7  C    0.340642
     8  C   -0.146189
     9  C   -0.166282
    10  C    0.347000
    11  C   -0.306041
    12  C   -0.182195
    13  C   -0.256920
    14  C    0.591443
    15  O   -0.492499
    16  O   -0.397209
    17  N   -0.749917
    18  C    0.328614
    19  C    0.024371
    20  C   -0.033359
    21  C    0.328389
    22  C   -0.392049
    23  C    0.261011
    24  O   -0.399524
    25  N   -0.650912
    26  C    0.267335
    27  C    0.019223
    28  C    0.004680
    29  C    0.302712
    30  C    0.210320
    31  C   -0.236254
    32  C   -0.277317
    33  N   -0.727118
    34  C    0.312928
    35  C    0.021757
    36  C    0.062714
    37  C    0.255127
    38  C   -0.382910
    39  C    0.314352
    40  O   -0.454394
    41  C   -0.284225
    42  C    0.597515
    43  O   -0.465933
    44  O   -0.434166
    45  C   -0.077953
    46  C   -0.017915
    47  C   -0.154101
    48  C    0.147369
    49  C   -0.365957
    50  C   -0.226052
    51  C   -0.160957
    52  C   -0.154464
    53  C   -0.066821
    54  C   -0.307388
    55  C   -0.157812
    56  C   -0.154020
    57  C   -0.149316
    58  C   -0.048867
    59  C   -0.290772
    60  C   -0.151556
    61  C   -0.173057
    62  C   -0.184120
    63  C   -0.044014
    64  C   -0.295583
    65  C   -0.312613
    66  H    0.074824
    67  H    0.131763
    68  H    0.094005
    69  H    0.120380
    70  H    0.110654
    71  H    0.111782
    72  H    0.101849
    73  H    0.139359
    74  H    0.110387
    75  H    0.135205
    76  H    0.134155
    77  H    0.145059
    78  H    0.104498
    79  H    0.156265
    80  H    0.129675
    81  H    0.073067
    82  H    0.085514
    83  H    0.122597
    84  H    0.101094
    85  H    0.100161
    86  H    0.073664
    87  H    0.121151
    88  H    0.153136
    89  H    0.146325
    90  H    0.135243
    91  H    0.101496
    92  H    0.106529
    93  H    0.087582
    94  H    0.129341
    95  H    0.113082
    96  H    0.135524
    97  H    0.087163
    98  H    0.094924
    99  H    0.058728
   100  H    0.101394
   101  H    0.088528
   102  H    0.080262
   103  H    0.086026
   104  H    0.092875
   105  H    0.093174
   106  H    0.106291
   107  H    0.065717
   108  H    0.089867
   109  H    0.066233
   110  H    0.096328
   111  H    0.081029
   112  H    0.058600
   113  H    0.059566
   114  H    0.101137
   115  H    0.074131
   116  H    0.074998
   117  H    0.095463
   118  H    0.100759
   119  H    0.104729
   120  H    0.071866
   121  H    0.084499
   122  H    0.080808
   123  H    0.077722
   124  H    0.077643
   125  H    0.115392
   126  H    0.091287
   127  H    0.108969
   128  H    0.090441
   129  H    0.084305
   130  H    0.103097
   131  H    0.116208
   132  H    0.127609
   133  O   -0.434558
   134  H    0.070658
 Sum of Mulliken charges =  -0.00000

 Dipole moment (field-independent basis, Debye):
    X=              1.9685    Y=             -4.3218    Z=             -0.6034  Tot=              4.7871
 Quadrupole moment (field-independent basis, Debye-Ang):
   XX=           -382.0827   YY=           -450.8897   ZZ=           -390.8131
   XY=              9.9928   XZ=             29.5579   YZ=            -32.2909

 Normal termination of Gaussian 16 at Sat Oct  5 09:22:02 2019.
