 Gaussian 16, Revision A.03,
 Gaussian 16:  ES64L-G16RevA.03 25-Dec-2016

 ----------------------------------------------------------------------
 # td=(NStates=1) iop(3/107=0140000000,3/108=0140000000) iop(3/107=0140
 000000,3/108=0140000000) CAM-B3LYP/6-31G(d,p)
 ----------------------------------------------------------------------

 --
 TD
 --
 Symbolic Z-matrix:
 Charge =  0 Multiplicity = 1

                         Standard orientation:
 ---------------------------------------------------------------------
 Center     Atomic      Atomic             Coordinates (Angstroms)
 Number     Number       Type             X           Y           Z
 ---------------------------------------------------------------------
      1         12           0       -5.535989    1.272417    0.059521
      2          6           0       -4.924333   -2.144405   -0.438065
      3          6           0       -3.378775    1.130349    2.683143
      4          6           0       -6.303778    4.518660    0.726997
      5          6           0       -8.055128    1.188529   -2.355946
      6          7           0       -4.472286   -0.294739    0.956215
      7          6           0       -4.265072   -1.592251    0.574472
      8          6           0       -3.142365   -2.322859    1.268935
      9          6           0       -2.872463   -1.386258    2.492452
     10          6           0       -3.686391   -0.161892    2.074750
     11          6           0       -3.429480   -1.892134    3.820840
     12          6           0       -1.890949   -2.600772    0.494910
     13          6           0       -0.974003   -3.529952    1.245398
     14          6           0        0.230750   -3.855075    0.534548
     15          8           0        0.583848   -3.487257   -0.573322
     16          8           0        1.042944   -4.728063    1.267683
     17          7           0       -4.862034    2.672479    1.425846
     18          6           0       -4.091936    2.296786    2.408902
     19          6           0       -3.835138    3.646446    3.207695
     20          6           0       -4.666941    4.532571    2.619102
     21          6           0       -5.384976    4.000397    1.538727
     22          6           0       -3.010024    3.610945    4.448016
     23          6           0       -4.740966    5.960675    3.123485
     24          8           0       -4.213439    6.566250    4.002118
     25          7           0       -6.938645    2.616204   -0.685730
     26          6           0       -7.035792    3.941628   -0.313970
     27          6           0       -8.086415    4.628892   -1.156381
     28          6           0       -8.534948    3.646986   -2.097220
     29          6           0       -7.811592    2.407610   -1.732021
     30          6           0       -8.388356    6.006034   -1.061359
     31          6           0       -9.519735    3.821687   -3.120352
     32          6           0       -8.733424    4.013350   -4.480884
     33          7           0       -6.290471   -0.068086   -1.219029
     34          6           0       -7.261818    0.044238   -2.193643
     35          6           0       -7.522930   -1.291600   -2.766002
     36          6           0       -6.647270   -2.110830   -2.049107
     37          6           0       -5.964848   -1.374693   -1.174927
     38          6           0       -8.447598   -1.718945   -3.846153
     39          6           0       -6.283296   -3.583452   -1.997839
     40          8           0       -6.607585   -4.565726   -2.529752
     41          6           0       -4.989857   -3.530342   -0.992667
     42          6           0       -5.186239   -4.683750    0.035573
     43          8           0       -5.604190   -4.455568    1.198987
     44          8           0       -4.975208   -5.847474   -0.379922
     45          6           0       -5.249970   -7.026207    0.410459
     46          6           0        2.358265   -5.120038    0.728238
     47          6           0        3.466432   -4.113594    1.123812
     48          6           0        4.133537   -3.305524    0.250302
     49          6           0        3.733222   -3.108821   -1.162206
     50          6           0        5.246968   -2.411272    0.798787
     51          6           0        6.624180   -2.802361    0.265574
     52          6           0        7.669622   -1.711228    0.690300
     53          6           0        9.080668   -2.035321    0.032577
     54          6           0        9.655248   -3.345458    0.510814
     55          6           0       10.027932   -0.882836    0.537410
     56          6           0       11.366697   -0.840795   -0.235101
     57          6           0       12.211411    0.381579    0.189399
     58          6           0       13.523875    0.438978   -0.563894
     59          6           0       14.517623   -0.771809   -0.376758
     60          6           0       14.297862    1.803906   -0.214408
     61          6           0       15.387332    2.272841   -1.105559
     62          6           0       15.893651    3.625105   -0.769612
     63          6           0       17.256646    4.009558   -1.429174
     64          6           0       17.138083    4.053284   -3.000763
     65          6           0       17.842714    5.385615   -0.883930
     66          1           0       -2.826009    1.225916    3.561380
     67          1           0       -6.299531    5.491057    0.986571
     68          1           0       -8.880924    1.340035   -3.161656
     69          1           0       -3.558913   -3.157520    1.542192
     70          1           0       -1.765552   -1.117165    2.599818
     71          1           0       -2.822747   -2.838769    4.118384
     72          1           0       -3.192117   -1.002898    4.622861
     73          1           0       -4.485318   -2.371935    3.893025
     74          1           0       -2.047602   -3.307790   -0.355078
     75          1           0       -1.409318   -1.502359    0.377621
     76          1           0       -0.640943   -2.824156    2.126459
     77          1           0       -1.437676   -4.377180    1.554673
     78          1           0       -1.957204    3.330718    4.358429
     79          1           0       -2.654343    4.659373    4.796847
     80          1           0       -3.521764    3.014364    5.402724
     81          1           0       -5.458979    6.551018    2.547277
     82          1           0       -9.980095    2.999576   -3.218331
     83          1           0      -10.350006    4.632104   -2.883247
     84          1           0       -9.384480    4.189235   -5.324917
     85          1           0       -8.047237    4.790920   -4.591876
     86          1           0       -8.193232    3.238955   -4.786664
     87          1           0       -8.549166   -0.814417   -4.639588
     88          1           0       -7.970996   -2.591163   -4.448124
     89          1           0       -9.518639   -1.791536   -3.367498
     90          1           0       -3.891297   -3.811200   -1.466376
     91          1           0        2.449275   -5.993273    1.243869
     92          1           0        2.001832   -5.181926   -0.251447
     93          1           0        3.834971   -4.129481    2.064709
     94          1           0        2.807368   -3.509982   -1.344682
     95          1           0        3.924741   -1.903041   -1.314022
     96          1           0        4.578751   -3.685192   -1.734279
     97          1           0        4.929670   -1.505054    0.555093
     98          1           0        5.254542   -2.441603    1.975624
     99          1           0        6.768507   -3.922151    0.376791
    100          1           0        6.544402   -2.791846   -0.975518
    101          1           0        7.289558   -0.792176    0.156762
    102          1           0        7.840990   -1.694950    1.837587
    103          1           0        9.063950   -2.104765   -1.036333
    104          1           0        9.139041   -4.152987   -0.199476
    105          1           0       10.861764   -3.554129    0.318041
    106          1           0        9.598973   -3.479896    1.766176
    107          1           0        9.471277   -0.057781    0.327515
    108          1           0       10.122356   -0.931133    1.715642
    109          1           0       11.834142   -1.743968    0.026082
    110          1           0       11.451046   -1.037163   -1.411782
    111          1           0       11.448343    1.326091    0.103258
    112          1           0       12.519060    0.444653    1.228752
    113          1           0       13.243547    0.534201   -1.703882
    114          1           0       15.103060   -0.815491    0.753115
    115          1           0       13.837813   -1.742714   -0.385547
    116          1           0       15.290600   -0.626853   -1.291637
    117          1           0       13.367867    2.636797   -0.252096
    118          1           0       14.669141    1.865191    0.862316
    119          1           0       16.019306    1.434878   -1.027192
    120          1           0       14.985458    2.098960   -2.144210
    121          1           0       15.294751    4.479830   -0.922569
    122          1           0       16.164329    3.735407    0.335106
    123          1           0       17.968400    3.359687   -1.180228
    124          1           0       16.572993    4.806230   -3.380732
    125          1           0       18.206791    4.148640   -3.353834
    126          1           0       16.925899    3.060407   -3.505711
    127          1           0       17.885410    5.306960    0.206461
    128          1           0       18.780973    5.948951   -1.311784
    129          1           0       17.149270    6.189020   -1.129155
    130          1           0       -4.933465   -7.868773    0.005063
    131          1           0       -6.409390   -7.229639    0.485929
    132          1           0       -4.737965   -6.945153    1.481849
    133          8           0       -7.830683    6.738475   -0.261483
    134          1           0       -9.140297    6.321884   -1.970450
 ---------------------------------------------------------------------

 SCF Done:  E(RCAM-B3LYP) =  -3043.37924247     A.U. after   15 cycles

 Excitation energies and oscillator strengths:

 Excited State   1:      Singlet-A      2.1678 eV  571.93 nm  f=0.1697  <S**2>=0.000
     243 -> 246        0.28056
     244 -> 245        0.63866
 This state for optimization and/or second-order correction.
 Total Energy, E(TD-HF/TD-DFT) =  -3043.29957718
 Copying the excited state density for this state as the 1-particle RhoCI density.

 The electronic state is 1-A.
 Alpha  occ. eigenvalues --  -46.81061 -19.24378 -19.19808 -19.18641 -19.17249
 Alpha  occ. eigenvalues --  -19.17198 -19.16575 -19.14982 -14.38857 -14.37180
 Alpha  occ. eigenvalues --  -14.36270 -14.36022 -10.34744 -10.34522 -10.32391
 Alpha  occ. eigenvalues --  -10.30175 -10.29888 -10.29341 -10.28513 -10.26949
 Alpha  occ. eigenvalues --  -10.26638 -10.26001 -10.25984 -10.25957 -10.25897
 Alpha  occ. eigenvalues --  -10.25798 -10.25602 -10.25524 -10.25047 -10.25007
 Alpha  occ. eigenvalues --  -10.24992 -10.24956 -10.24951 -10.24653 -10.24499
 Alpha  occ. eigenvalues --  -10.24342 -10.24128 -10.23957 -10.23749 -10.23619
 Alpha  occ. eigenvalues --  -10.23474 -10.23306 -10.23255 -10.23030 -10.22958
 Alpha  occ. eigenvalues --  -10.22674 -10.22559 -10.22517 -10.22086 -10.21987
 Alpha  occ. eigenvalues --  -10.21796 -10.21765 -10.21677 -10.21677 -10.21530
 Alpha  occ. eigenvalues --  -10.21296 -10.21289 -10.21247 -10.21061 -10.20885
 Alpha  occ. eigenvalues --  -10.20736 -10.20713 -10.20690 -10.20302 -10.20195
 Alpha  occ. eigenvalues --  -10.19563  -3.09670  -1.84606  -1.84158  -1.84063
 Alpha  occ. eigenvalues --   -1.16697  -1.11227  -1.11035  -1.08063  -1.06241
 Alpha  occ. eigenvalues --   -1.03129  -1.02017  -1.00716  -0.99737  -0.99298
 Alpha  occ. eigenvalues --   -0.98031  -0.87950  -0.87398  -0.86445  -0.85749
 Alpha  occ. eigenvalues --   -0.85014  -0.84899  -0.84092  -0.83494  -0.83115
 Alpha  occ. eigenvalues --   -0.82634  -0.82351  -0.82169  -0.80639  -0.79551
 Alpha  occ. eigenvalues --   -0.79221  -0.78534  -0.78220  -0.77739  -0.76213
 Alpha  occ. eigenvalues --   -0.74652  -0.74520  -0.74022  -0.73497  -0.72176
 Alpha  occ. eigenvalues --   -0.70797  -0.70458  -0.70200  -0.69341  -0.69170
 Alpha  occ. eigenvalues --   -0.68843  -0.68224  -0.67703  -0.66708  -0.65883
 Alpha  occ. eigenvalues --   -0.65669  -0.64909  -0.63965  -0.62469  -0.61890
 Alpha  occ. eigenvalues --   -0.61828  -0.61136  -0.60318  -0.59786  -0.59736
 Alpha  occ. eigenvalues --   -0.58263  -0.58211  -0.57544  -0.56686  -0.56553
 Alpha  occ. eigenvalues --   -0.56051  -0.55580  -0.55443  -0.54867  -0.54623
 Alpha  occ. eigenvalues --   -0.54288  -0.53673  -0.53359  -0.52784  -0.52457
 Alpha  occ. eigenvalues --   -0.51726  -0.51400  -0.50843  -0.50786  -0.50632
 Alpha  occ. eigenvalues --   -0.50300  -0.49713  -0.49250  -0.49090  -0.48639
 Alpha  occ. eigenvalues --   -0.48482  -0.48097  -0.48084  -0.47849  -0.47708
 Alpha  occ. eigenvalues --   -0.47469  -0.47275  -0.47119  -0.46813  -0.46563
 Alpha  occ. eigenvalues --   -0.46488  -0.46355  -0.46164  -0.45791  -0.45620
 Alpha  occ. eigenvalues --   -0.45305  -0.45181  -0.44986  -0.44774  -0.44588
 Alpha  occ. eigenvalues --   -0.44300  -0.44144  -0.43998  -0.43908  -0.43720
 Alpha  occ. eigenvalues --   -0.43590  -0.43328  -0.43036  -0.42896  -0.42867
 Alpha  occ. eigenvalues --   -0.42742  -0.42536  -0.42140  -0.42063  -0.41830
 Alpha  occ. eigenvalues --   -0.41574  -0.41534  -0.41306  -0.41284  -0.41102
 Alpha  occ. eigenvalues --   -0.40815  -0.40473  -0.40386  -0.40273  -0.40190
 Alpha  occ. eigenvalues --   -0.40010  -0.39726  -0.39660  -0.39448  -0.39209
 Alpha  occ. eigenvalues --   -0.38850  -0.38807  -0.38738  -0.38447  -0.38240
 Alpha  occ. eigenvalues --   -0.37913  -0.37846  -0.37400  -0.37140  -0.36922
 Alpha  occ. eigenvalues --   -0.36877  -0.36704  -0.36364  -0.35830  -0.35610
 Alpha  occ. eigenvalues --   -0.35587  -0.35320  -0.34922  -0.34361  -0.33890
 Alpha  occ. eigenvalues --   -0.33824  -0.33731  -0.33543  -0.33289  -0.32860
 Alpha  occ. eigenvalues --   -0.32723  -0.31929  -0.31823  -0.31491  -0.31189
 Alpha  occ. eigenvalues --   -0.31058  -0.30513  -0.29986  -0.29767  -0.29220
 Alpha  occ. eigenvalues --   -0.28425  -0.27918  -0.27598  -0.27535  -0.27224
 Alpha  occ. eigenvalues --   -0.26900  -0.26520  -0.22729  -0.21600
 Alpha virt. eigenvalues --   -0.07858  -0.05992  -0.01007  -0.00383   0.00456
 Alpha virt. eigenvalues --    0.02778   0.03199   0.04129   0.04327   0.04668
 Alpha virt. eigenvalues --    0.05177   0.06136   0.07649   0.07882   0.08939

 Mulliken charges:
               1
     1  Mg   0.828220
     2  C    0.093403
     3  C   -0.178239
     4  C   -0.110068
     5  C   -0.148702
     6  N   -0.627623
     7  C    0.308590
     8  C   -0.098550
     9  C   -0.163722
    10  C    0.332581
    11  C   -0.301397
    12  C   -0.160270
    13  C   -0.245037
    14  C    0.601611
    15  O   -0.474798
    16  O   -0.518909
    17  N   -0.729467
    18  C    0.333738
    19  C    0.052680
    20  C   -0.047679
    21  C    0.302247
    22  C   -0.403341
    23  C    0.267636
    24  O   -0.397773
    25  N   -0.686088
    26  C    0.283785
    27  C    0.010914
    28  C    0.035545
    29  C    0.303695
    30  C    0.228780
    31  C   -0.245564
    32  C   -0.342810
    33  N   -0.729488
    34  C    0.245984
    35  C    0.014927
    36  C    0.000275
    37  C    0.306563
    38  C   -0.377920
    39  C    0.401464
    40  O   -0.408124
    41  C   -0.354038
    42  C    0.579253
    43  O   -0.519823
    44  O   -0.380361
    45  C   -0.082951
    46  C    0.024857
    47  C   -0.129702
    48  C    0.110413
    49  C   -0.331615
    50  C   -0.204688
    51  C   -0.177777
    52  C   -0.157612
    53  C   -0.066134
    54  C   -0.270255
    55  C   -0.164550
    56  C   -0.184932
    57  C   -0.150249
    58  C   -0.058251
    59  C   -0.286604
    60  C   -0.167164
    61  C   -0.158898
    62  C   -0.161269
    63  C   -0.056149
    64  C   -0.319041
    65  C   -0.333327
    66  H    0.076776
    67  H    0.101448
    68  H    0.092600
    69  H    0.113985
    70  H    0.109474
    71  H    0.098671
    72  H    0.093648
    73  H    0.139046
    74  H    0.109530
    75  H    0.102776
    76  H    0.130088
    77  H    0.145986
    78  H    0.130157
    79  H    0.138206
    80  H    0.121093
    81  H    0.061394
    82  H    0.122310
    83  H    0.112898
    84  H    0.106457
    85  H    0.128968
    86  H    0.126647
    87  H    0.098523
    88  H    0.143042
    89  H    0.133931
    90  H    0.128574
    91  H    0.118404
    92  H    0.121638
    93  H    0.071472
    94  H    0.153104
    95  H    0.085748
    96  H    0.102779
    97  H    0.109037
    98  H    0.079559
    99  H    0.106081
   100  H    0.056811
   101  H    0.104542
   102  H    0.093637
   103  H    0.094909
   104  H    0.084388
   105  H    0.077915
   106  H    0.071914
   107  H    0.096603
   108  H    0.077706
   109  H    0.104236
   110  H    0.074691
   111  H    0.070927
   112  H    0.096599
   113  H    0.071529
   114  H    0.077159
   115  H    0.094233
   116  H    0.100493
   117  H    0.043694
   118  H    0.078263
   119  H    0.099816
   120  H    0.088667
   121  H    0.103367
   122  H    0.076477
   123  H    0.101376
   124  H    0.112965
   125  H    0.089526
   126  H    0.092104
   127  H    0.100650
   128  H    0.092485
   129  H    0.099647
   130  H    0.143581
   131  H    0.128384
   132  H    0.124026
   133  O   -0.428994
   134  H    0.035418
 Sum of Mulliken charges =  -0.00000

 Dipole moment (field-independent basis, Debye):
    X=              1.6976    Y=             -5.8199    Z=             -1.7193  Tot=              6.3015
 Quadrupole moment (field-independent basis, Debye-Ang):
   XX=           -386.7680   YY=           -431.1148   ZZ=           -392.5805
   XY=             16.4033   XZ=             30.9084   YZ=            -30.7179

 Normal termination of Gaussian 16 at Sat Oct  5 09:05:46 2019.
