 Gaussian 16, Revision A.03,
 Gaussian 16:  ES64L-G16RevA.03 25-Dec-2016

 ----------------------------------------------------------------------
 # td=(NStates=1) iop(3/107=0140000000,3/108=0140000000) iop(3/107=0140
 000000,3/108=0140000000) CAM-B3LYP/6-31G(d,p)
 ----------------------------------------------------------------------

 --
 TD
 --
 Symbolic Z-matrix:
 Charge =  0 Multiplicity = 1

                         Standard orientation:
 ---------------------------------------------------------------------
 Center     Atomic      Atomic             Coordinates (Angstroms)
 Number     Number       Type             X           Y           Z
 ---------------------------------------------------------------------
      1         12           0       -5.616662    1.213120    0.200631
      2          6           0       -5.021651   -2.197174   -0.456574
      3          6           0       -3.329085    1.185451    2.663304
      4          6           0       -6.203306    4.477554    0.636937
      5          6           0       -8.017671    1.193989   -2.434136
      6          7           0       -4.361002   -0.275742    0.959994
      7          6           0       -4.249221   -1.654569    0.604674
      8          6           0       -3.242988   -2.395599    1.468029
      9          6           0       -3.007561   -1.351941    2.586321
     10          6           0       -3.574794   -0.024723    2.114939
     11          6           0       -3.537821   -1.790545    3.941760
     12          6           0       -1.913666   -2.633240    0.618440
     13          6           0       -0.960485   -3.532011    1.382990
     14          6           0        0.257318   -3.900512    0.517562
     15          8           0        0.480872   -3.482341   -0.601646
     16          8           0        1.203664   -4.619760    1.195690
     17          7           0       -4.909963    2.596995    1.473168
     18          6           0       -3.916177    2.503474    2.421675
     19          6           0       -3.672070    3.659769    3.110424
     20          6           0       -4.490090    4.612774    2.520952
     21          6           0       -5.232215    3.894833    1.524775
     22          6           0       -2.879674    3.874078    4.286307
     23          6           0       -4.702015    5.906768    2.916576
     24          8           0       -4.188627    6.559784    3.892812
     25          7           0       -6.905605    2.522260   -0.643827
     26          6           0       -6.957508    3.829833   -0.312356
     27          6           0       -7.913090    4.586258   -1.190036
     28          6           0       -8.535181    3.677062   -2.018620
     29          6           0       -7.843736    2.413774   -1.716821
     30          6           0       -8.189384    6.036483   -1.195768
     31          6           0       -9.419089    3.837452   -3.163112
     32          6           0       -8.859876    4.217006   -4.603578
     33          7           0       -6.471985   -0.145683   -1.054681
     34          6           0       -7.471649   -0.004113   -2.080688
     35          6           0       -7.612903   -1.380712   -2.696728
     36          6           0       -6.614430   -2.231072   -2.081615
     37          6           0       -6.042278   -1.485589   -1.020194
     38          6           0       -8.445026   -1.798574   -3.753375
     39          6           0       -6.158654   -3.506928   -2.016304
     40          8           0       -6.478397   -4.448599   -2.669054
     41          6           0       -5.090889   -3.525611   -0.822349
     42          6           0       -5.496169   -4.569606    0.280645
     43          8           0       -5.986720   -4.347963    1.390119
     44          8           0       -5.187470   -5.773342   -0.228636
     45          6           0       -5.630359   -6.873974    0.654836
     46          6           0        2.388331   -5.045630    0.554061
     47          6           0        3.525374   -4.201159    0.993577
     48          6           0        4.175085   -3.379601    0.180860
     49          6           0        3.710748   -3.170874   -1.289876
     50          6           0        5.231342   -2.518472    0.646757
     51          6           0        6.623167   -2.714406    0.003568
     52          6           0        7.704684   -1.789198    0.530533
     53          6           0        9.063047   -1.928751   -0.124687
     54          6           0        9.669384   -3.346685   -0.089821
     55          6           0        9.903958   -0.809160    0.404025
     56          6           0       11.318494   -0.818046   -0.194110
     57          6           0       12.229198    0.345923    0.164225
     58          6           0       13.525315    0.487359   -0.532726
     59          6           0       14.441913   -0.828126   -0.285465
     60          6           0       14.270991    1.789720   -0.167809
     61          6           0       15.503511    2.086653   -0.990747
     62          6           0       16.126507    3.428027   -0.511655
     63          6           0       17.419958    3.855851   -1.292478
     64          6           0       17.273059    4.094598   -2.823908
     65          6           0       18.010510    5.120905   -0.790446
     66          1           0       -2.757481    1.063585    3.604941
     67          1           0       -6.245644    5.540484    0.624183
     68          1           0       -8.893924    1.104561   -3.098103
     69          1           0       -3.559446   -3.531797    1.732874
     70          1           0       -2.000178   -1.326935    2.652798
     71          1           0       -2.679755   -2.560169    4.260256
     72          1           0       -3.405550   -0.835609    4.774839
     73          1           0       -4.531077   -2.167360    4.050531
     74          1           0       -2.138615   -3.002649   -0.400299
     75          1           0       -1.537151   -1.637584    0.463954
     76          1           0       -0.470045   -3.035940    2.281202
     77          1           0       -1.645765   -4.552049    1.787348
     78          1           0       -1.795063    3.409185    4.147818
     79          1           0       -2.691067    5.064237    4.617293
     80          1           0       -3.331892    3.313878    5.199507
     81          1           0       -5.269155    6.550194    2.381890
     82          1           0      -10.126091    2.985677   -3.320375
     83          1           0      -10.286598    4.505851   -2.497523
     84          1           0       -9.586398    4.350595   -5.396663
     85          1           0       -8.347384    5.235785   -4.476504
     86          1           0       -8.058151    3.468290   -4.775698
     87          1           0       -8.285962   -0.975285   -4.599753
     88          1           0       -8.287163   -2.821260   -4.319760
     89          1           0       -9.575239   -1.599349   -3.681418
     90          1           0       -4.228070   -3.928039   -1.448516
     91          1           0        2.514173   -6.122353    1.040112
     92          1           0        2.062939   -5.184090   -0.560966
     93          1           0        3.846660   -4.575661    2.105606
     94          1           0        2.766883   -3.460194   -1.510355
     95          1           0        3.725991   -2.003384   -1.495078
     96          1           0        4.290163   -3.516243   -2.053690
     97          1           0        4.738936   -1.472771    0.749824
     98          1           0        5.250519   -2.685574    1.775817
     99          1           0        6.870053   -3.728645    0.173564
    100          1           0        6.118914   -2.706587   -0.981172
    101          1           0        7.390695   -0.829047    0.482631
    102          1           0        7.784504   -1.923119    1.689726
    103          1           0        9.132407   -1.895463   -1.315698
    104          1           0        8.929016   -4.059845   -0.539320
    105          1           0       10.635642   -3.337289   -0.626659
    106          1           0        9.873372   -3.764139    0.870241
    107          1           0        9.326296    0.078080    0.337061
    108          1           0       10.129792   -0.950684    1.435520
    109          1           0       11.933659   -1.667878    0.265716
    110          1           0       11.346175   -0.767242   -1.475065
    111          1           0       11.731659    1.302334    0.071312
    112          1           0       12.434760    0.071914    1.213018
    113          1           0       13.561054    0.543657   -1.571788
    114          1           0       14.733661   -0.890134    0.852034
    115          1           0       13.658220   -1.585253   -0.433024
    116          1           0       15.403930   -1.008552   -0.725573
    117          1           0       13.628928    2.720435   -0.047899
    118          1           0       14.503292    1.846639    0.932127
    119          1           0       16.156295    1.267910   -0.824481
    120          1           0       15.207543    2.193447   -1.843287
    121          1           0       15.654707    4.263179   -0.693856
    122          1           0       16.388689    3.288463    0.433114
    123          1           0       18.404587    3.219534   -1.369883
    124          1           0       16.675723    5.160096   -2.870357
    125          1           0       18.170325    4.534221   -3.196020
    126          1           0       16.806307    3.247465   -3.327029
    127          1           0       18.047933    5.186108    0.239169
    128          1           0       19.109586    5.320167   -0.960421
    129          1           0       17.674166    6.143673   -1.264632
    130          1           0       -5.320351   -7.639706   -0.046059
    131          1           0       -6.673867   -6.868552    0.815843
    132          1           0       -4.978246   -6.773806    1.598269
    133          8           0       -7.825255    6.911895   -0.454999
    134          1           0       -8.964635    6.316975   -2.094268
 ---------------------------------------------------------------------

 SCF Done:  E(RCAM-B3LYP) =  -3043.40036595     A.U. after   16 cycles

 Excitation energies and oscillator strengths:

 Excited State   1:      Singlet-A      1.9163 eV  647.00 nm  f=0.2046  <S**2>=0.000
     243 -> 246       -0.26204
     244 -> 245        0.64856
 This state for optimization and/or second-order correction.
 Total Energy, E(TD-HF/TD-DFT) =  -3043.32994356
 Copying the excited state density for this state as the 1-particle RhoCI density.

 The electronic state is 1-A.
 Alpha  occ. eigenvalues --  -46.80904 -19.23342 -19.21445 -19.18211 -19.18053
 Alpha  occ. eigenvalues --  -19.17585 -19.16661 -19.14776 -14.39188 -14.38029
 Alpha  occ. eigenvalues --  -14.37253 -14.36744 -10.35857 -10.35613 -10.31634
 Alpha  occ. eigenvalues --  -10.30156 -10.28581 -10.28269 -10.28012 -10.27775
 Alpha  occ. eigenvalues --  -10.27693 -10.27389 -10.27193 -10.27106 -10.26980
 Alpha  occ. eigenvalues --  -10.26726 -10.26345 -10.26261 -10.25977 -10.25907
 Alpha  occ. eigenvalues --  -10.25628 -10.25553 -10.24873 -10.24719 -10.24346
 Alpha  occ. eigenvalues --  -10.24339 -10.24211 -10.24191 -10.23722 -10.23698
 Alpha  occ. eigenvalues --  -10.23690 -10.23250 -10.23190 -10.23164 -10.23152
 Alpha  occ. eigenvalues --  -10.23130 -10.22902 -10.22423 -10.22169 -10.21882
 Alpha  occ. eigenvalues --  -10.21869 -10.21813 -10.21731 -10.21349 -10.21324
 Alpha  occ. eigenvalues --  -10.21227 -10.20782 -10.20536 -10.20431 -10.20325
 Alpha  occ. eigenvalues --  -10.20289 -10.20214 -10.20081 -10.19683 -10.18972
 Alpha  occ. eigenvalues --  -10.18506  -3.09637  -1.84564  -1.84128  -1.84044
 Alpha  occ. eigenvalues --   -1.13527  -1.13212  -1.08451  -1.08244  -1.04858
 Alpha  occ. eigenvalues --   -1.04671  -1.02165  -1.01115  -0.99401  -0.98367
 Alpha  occ. eigenvalues --   -0.96948  -0.90703  -0.86957  -0.86300  -0.86084
 Alpha  occ. eigenvalues --   -0.85778  -0.85129  -0.84848  -0.84377  -0.83883
 Alpha  occ. eigenvalues --   -0.83655  -0.83385  -0.81877  -0.80799  -0.80082
 Alpha  occ. eigenvalues --   -0.79395  -0.79010  -0.78251  -0.77556  -0.76884
 Alpha  occ. eigenvalues --   -0.75757  -0.75236  -0.73753  -0.73046  -0.72462
 Alpha  occ. eigenvalues --   -0.71914  -0.71521  -0.70668  -0.70089  -0.69946
 Alpha  occ. eigenvalues --   -0.69686  -0.68985  -0.67688  -0.67352  -0.66812
 Alpha  occ. eigenvalues --   -0.66393  -0.65590  -0.64183  -0.63586  -0.62649
 Alpha  occ. eigenvalues --   -0.61387  -0.61133  -0.61081  -0.59003  -0.58895
 Alpha  occ. eigenvalues --   -0.58420  -0.57977  -0.57629  -0.57514  -0.57366
 Alpha  occ. eigenvalues --   -0.56624  -0.56070  -0.55740  -0.55292  -0.54833
 Alpha  occ. eigenvalues --   -0.54141  -0.53741  -0.52856  -0.52769  -0.52427
 Alpha  occ. eigenvalues --   -0.52326  -0.51923  -0.51503  -0.51364  -0.50913
 Alpha  occ. eigenvalues --   -0.50759  -0.50519  -0.49577  -0.49472  -0.49191
 Alpha  occ. eigenvalues --   -0.49127  -0.48822  -0.48664  -0.48293  -0.48232
 Alpha  occ. eigenvalues --   -0.48073  -0.47709  -0.47645  -0.47388  -0.47132
 Alpha  occ. eigenvalues --   -0.46865  -0.46413  -0.46179  -0.46107  -0.45670
 Alpha  occ. eigenvalues --   -0.45603  -0.45279  -0.45041  -0.44928  -0.44803
 Alpha  occ. eigenvalues --   -0.44631  -0.44230  -0.44016  -0.43821  -0.43572
 Alpha  occ. eigenvalues --   -0.43362  -0.43287  -0.43169  -0.42933  -0.42841
 Alpha  occ. eigenvalues --   -0.42729  -0.42409  -0.42368  -0.42089  -0.42070
 Alpha  occ. eigenvalues --   -0.41940  -0.41700  -0.41427  -0.41300  -0.41090
 Alpha  occ. eigenvalues --   -0.41008  -0.40719  -0.40544  -0.40477  -0.40350
 Alpha  occ. eigenvalues --   -0.40009  -0.39973  -0.39832  -0.39646  -0.39441
 Alpha  occ. eigenvalues --   -0.39217  -0.39178  -0.38934  -0.38516  -0.38403
 Alpha  occ. eigenvalues --   -0.38250  -0.38070  -0.37715  -0.37266  -0.36992
 Alpha  occ. eigenvalues --   -0.36286  -0.36229  -0.35872  -0.35795  -0.35625
 Alpha  occ. eigenvalues --   -0.35580  -0.35515  -0.35307  -0.34888  -0.34404
 Alpha  occ. eigenvalues --   -0.34328  -0.34094  -0.33998  -0.33272  -0.32958
 Alpha  occ. eigenvalues --   -0.32646  -0.32276  -0.32037  -0.31849  -0.31725
 Alpha  occ. eigenvalues --   -0.31249  -0.31174  -0.30995  -0.30928  -0.29997
 Alpha  occ. eigenvalues --   -0.29166  -0.28175  -0.27869  -0.27809  -0.27789
 Alpha  occ. eigenvalues --   -0.27138  -0.25708  -0.23177  -0.22044
 Alpha virt. eigenvalues --   -0.09610  -0.07138  -0.02022  -0.00897   0.00485
 Alpha virt. eigenvalues --    0.02082   0.02641   0.03408   0.03924   0.04208
 Alpha virt. eigenvalues --    0.04578   0.05882   0.07329   0.07539   0.08650

 Mulliken charges:
               1
     1  Mg   0.817304
     2  C    0.085139
     3  C   -0.199155
     4  C   -0.162092
     5  C   -0.182442
     6  N   -0.641420
     7  C    0.308439
     8  C   -0.155967
     9  C   -0.128867
    10  C    0.344058
    11  C   -0.284212
    12  C   -0.174804
    13  C   -0.250431
    14  C    0.591759
    15  O   -0.456825
    16  O   -0.457423
    17  N   -0.696572
    18  C    0.271676
    19  C    0.129791
    20  C    0.029894
    21  C    0.295228
    22  C   -0.413006
    23  C    0.190987
    24  O   -0.471757
    25  N   -0.680862
    26  C    0.344185
    27  C   -0.005657
    28  C    0.053909
    29  C    0.247075
    30  C    0.241406
    31  C   -0.256287
    32  C   -0.309581
    33  N   -0.723418
    34  C    0.315020
    35  C    0.061372
    36  C    0.072864
    37  C    0.305950
    38  C   -0.431925
    39  C    0.308373
    40  O   -0.448575
    41  C   -0.346444
    42  C    0.618621
    43  O   -0.489058
    44  O   -0.439145
    45  C   -0.091204
    46  C   -0.002313
    47  C   -0.123023
    48  C    0.143946
    49  C   -0.374528
    50  C   -0.256642
    51  C   -0.173251
    52  C   -0.170225
    53  C   -0.036195
    54  C   -0.328952
    55  C   -0.157794
    56  C   -0.182395
    57  C   -0.175186
    58  C   -0.037518
    59  C   -0.338784
    60  C   -0.193507
    61  C   -0.156612
    62  C   -0.154499
    63  C   -0.072423
    64  C   -0.301900
    65  C   -0.324750
    66  H    0.080523
    67  H    0.128193
    68  H    0.093562
    69  H    0.105334
    70  H    0.113326
    71  H    0.089626
    72  H    0.072365
    73  H    0.144677
    74  H    0.128314
    75  H    0.125896
    76  H    0.142823
    77  H    0.101275
    78  H    0.096771
    79  H    0.158106
    80  H    0.122846
    81  H    0.083868
    82  H    0.114206
    83  H    0.084237
    84  H    0.131402
    85  H    0.115095
    86  H    0.126384
    87  H    0.113782
    88  H    0.157370
    89  H    0.133754
    90  H    0.153223
    91  H    0.092531
    92  H    0.116033
    93  H    0.085843
    94  H    0.147159
    95  H    0.088923
    96  H    0.129204
    97  H    0.100442
    98  H    0.078619
    99  H    0.110380
   100  H    0.101494
   101  H    0.105183
   102  H    0.083312
   103  H    0.074876
   104  H    0.098756
   105  H    0.107808
   106  H    0.096060
   107  H    0.098358
   108  H    0.095135
   109  H    0.099611
   110  H    0.045520
   111  H    0.092667
   112  H    0.090085
   113  H    0.094307
   114  H    0.077477
   115  H    0.105544
   116  H    0.111105
   117  H    0.071211
   118  H    0.071279
   119  H    0.101705
   120  H    0.100373
   121  H    0.107793
   122  H    0.103784
   123  H    0.078094
   124  H    0.058461
   125  H    0.114470
   126  H    0.102189
   127  H    0.103831
   128  H    0.093152
   129  H    0.077615
   130  H    0.137355
   131  H    0.151659
   132  H    0.127482
   133  O   -0.401641
   134  H    0.038423
 Sum of Mulliken charges =  -0.00000

 Dipole moment (field-independent basis, Debye):
    X=              0.7067    Y=             -6.3500    Z=             -2.4930  Tot=              6.8583
 Quadrupole moment (field-independent basis, Debye-Ang):
   XX=           -369.6685   YY=           -444.2679   ZZ=           -397.3870
   XY=             18.4827   XZ=             40.6523   YZ=            -40.1680

 Normal termination of Gaussian 16 at Thu Oct  3 15:05:18 2019.
