 Gaussian 16, Revision A.03,
 Gaussian 16:  ES64L-G16RevA.03 25-Dec-2016

 ----------------------------------------------------------------------
 # td=(NStates=1) iop(3/107=0140000000,3/108=0140000000) iop(3/107=0140
 000000,3/108=0140000000) CAM-B3LYP/6-31G(d,p)
 ----------------------------------------------------------------------

 --
 TD
 --
 Symbolic Z-matrix:
 Charge =  0 Multiplicity = 1

                         Standard orientation:
 ---------------------------------------------------------------------
 Center     Atomic      Atomic             Coordinates (Angstroms)
 Number     Number       Type             X           Y           Z
 ---------------------------------------------------------------------
      1         12           0       -5.667585    1.213226    0.190699
      2          6           0       -4.991083   -2.049176   -0.510636
      3          6           0       -3.392192    1.127107    2.781895
      4          6           0       -6.166568    4.576048    0.760210
      5          6           0       -8.015927    1.230328   -2.360557
      6          7           0       -4.398661   -0.313193    1.051257
      7          6           0       -4.280364   -1.639268    0.620614
      8          6           0       -3.247605   -2.357458    1.522861
      9          6           0       -3.023115   -1.422926    2.659678
     10          6           0       -3.489847   -0.082283    2.112582
     11          6           0       -3.552889   -1.779180    3.958491
     12          6           0       -1.979257   -2.612611    0.695245
     13          6           0       -1.056437   -3.619135    1.399687
     14          6           0        0.185277   -3.944327    0.566676
     15          8           0        0.362739   -3.541688   -0.531141
     16          8           0        0.983823   -4.797271    1.192790
     17          7           0       -4.899995    2.593300    1.513224
     18          6           0       -3.988570    2.330694    2.552737
     19          6           0       -3.726566    3.541173    3.349491
     20          6           0       -4.562882    4.501125    2.736532
     21          6           0       -5.251389    3.911389    1.535462
     22          6           0       -2.653249    3.585442    4.393188
     23          6           0       -4.580251    5.928828    3.146229
     24          8           0       -3.927491    6.426094    3.998681
     25          7           0       -6.870745    2.607203   -0.671125
     26          6           0       -6.881511    3.951115   -0.360530
     27          6           0       -7.807252    4.664818   -1.120513
     28          6           0       -8.385655    3.716864   -2.052032
     29          6           0       -7.814411    2.437258   -1.732727
     30          6           0       -8.314754    6.051149   -1.104450
     31          6           0       -9.389072    3.955152   -3.168100
     32          6           0       -8.723054    4.289042   -4.477033
     33          7           0       -6.344260   -0.203013   -1.155037
     34          6           0       -7.430413   -0.034236   -2.070109
     35          6           0       -7.509487   -1.288304   -2.785966
     36          6           0       -6.587141   -2.167960   -2.212410
     37          6           0       -5.862013   -1.385045   -1.204803
     38          6           0       -8.475845   -1.482761   -3.842921
     39          6           0       -6.134698   -3.537477   -2.106123
     40          8           0       -6.525946   -4.514802   -2.731198
     41          6           0       -5.007670   -3.536298   -1.029563
     42          6           0       -5.260861   -4.579884   -0.068262
     43          8           0       -5.804429   -4.418406    1.027946
     44          8           0       -5.013184   -5.811474   -0.486360
     45          6           0       -5.336970   -6.833037    0.391461
     46          6           0        2.344398   -5.143856    0.623689
     47          6           0        3.425726   -4.165188    0.960371
     48          6           0        4.056793   -3.241590    0.183814
     49          6           0        3.720309   -3.038764   -1.303176
     50          6           0        5.207537   -2.439146    0.873852
     51          6           0        6.614722   -2.998163    0.196823
     52          6           0        7.764311   -2.129884    0.712717
     53          6           0        9.134299   -2.180625    0.002202
     54          6           0        9.838144   -3.618112    0.267496
     55          6           0        9.964880   -0.986754    0.428088
     56          6           0       11.269877   -0.848115   -0.357732
     57          6           0       12.125817    0.285190    0.264128
     58          6           0       13.433576    0.497706   -0.522888
     59          6           0       14.504505   -0.614772   -0.375666
     60          6           0       14.145971    1.906578   -0.248059
     61          6           0       15.348192    2.315784   -1.092639
     62          6           0       15.906458    3.591774   -0.663054
     63          6           0       17.223670    4.066187   -1.426414
     64          6           0       16.956783    4.107303   -2.969344
     65          6           0       17.755539    5.443959   -0.940813
     66          1           0       -2.649488    1.023008    3.610645
     67          1           0       -6.379204    5.652108    0.667490
     68          1           0       -8.642603    1.303355   -3.240323
     69          1           0       -3.674812   -3.454604    1.990147
     70          1           0       -1.963117   -1.235312    2.904414
     71          1           0       -3.044192   -2.680379    4.197463
     72          1           0       -3.376630   -0.967329    4.525443
     73          1           0       -4.544919   -2.042255    3.779089
     74          1           0       -2.114987   -3.083029   -0.376197
     75          1           0       -1.503173   -1.558375    0.253863
     76          1           0       -0.585805   -3.109900    2.274903
     77          1           0       -1.543325   -4.440914    1.744181
     78          1           0       -1.654219    3.417751    3.711040
     79          1           0       -2.628394    4.605260    4.754058
     80          1           0       -2.753079    2.802160    5.244321
     81          1           0       -5.326846    6.406552    2.484914
     82          1           0       -9.973844    3.106745   -3.266926
     83          1           0      -10.058402    4.825685   -2.718548
     84          1           0       -9.295448    4.469548   -5.065235
     85          1           0       -8.147277    5.307160   -4.291329
     86          1           0       -7.865647    3.614934   -4.763385
     87          1           0       -8.318777   -1.262709   -4.948262
     88          1           0       -8.793258   -2.729707   -3.803237
     89          1           0       -9.463278   -1.007097   -3.589079
     90          1           0       -4.010107   -3.775607   -1.489554
     91          1           0        2.483255   -5.942141    1.088073
     92          1           0        2.240640   -5.168830   -0.446943
     93          1           0        3.646500   -4.226599    2.048638
     94          1           0        2.768787   -3.370300   -1.546848
     95          1           0        3.894716   -2.007142   -1.451410
     96          1           0        4.462740   -3.616379   -1.734842
     97          1           0        5.213842   -1.466715    0.456778
     98          1           0        5.275566   -2.244298    2.006772
     99          1           0        6.766727   -3.919872    0.551473
    100          1           0        6.626888   -2.901659   -0.771110
    101          1           0        7.635874   -1.011411    0.795583
    102          1           0        7.970446   -2.553683    1.762949
    103          1           0        8.821855   -1.942747   -1.092529
    104          1           0        9.011479   -4.538042    0.188948
    105          1           0       10.714089   -3.794141   -0.500526
    106          1           0       10.194980   -3.707484    1.260210
    107          1           0        9.273853   -0.008607    0.096679
    108          1           0       10.145955   -0.871048    1.577922
    109          1           0       11.719164   -1.845288   -0.215308
    110          1           0       11.153822   -0.652715   -1.459320
    111          1           0       11.477707    1.166649    0.226886
    112          1           0       12.248440    0.110368    1.320402
    113          1           0       13.202307    0.552702   -1.505209
    114          1           0       14.463583   -0.679730    0.885436
    115          1           0       14.053676   -1.470561   -0.694294
    116          1           0       15.517614   -0.249211   -0.744805
    117          1           0       13.464417    2.715369   -0.383636
    118          1           0       14.533054    2.029729    0.799433
    119          1           0       16.148089    1.663868   -1.099578
    120          1           0       14.881592    2.398775   -2.028433
    121          1           0       15.071706    4.376534   -0.843852
    122          1           0       16.108511    3.554098    0.548986
    123          1           0       17.809968    3.253403   -1.339872
    124          1           0       16.144804    4.996846   -3.114636
    125          1           0       18.045003    4.369118   -3.386269
    126          1           0       16.657090    3.153485   -3.395218
    127          1           0       18.112921    5.393534    0.102863
    128          1           0       18.700576    5.772509   -1.263651
    129          1           0       16.745744    6.097895   -0.953738
    130          1           0       -4.990362   -7.770725   -0.109968
    131          1           0       -6.425599   -6.769431    0.680577
    132          1           0       -4.827165   -6.732350    1.277844
    133          8           0       -7.894445    6.846773   -0.368135
    134          1           0       -8.982623    6.272482   -1.999800
 ---------------------------------------------------------------------

 SCF Done:  E(RCAM-B3LYP) =  -3043.43575551     A.U. after   15 cycles

 Excitation energies and oscillator strengths:

 Excited State   1:      Singlet-A      2.1228 eV  584.07 nm  f=0.1470  <S**2>=0.000
     243 -> 245       -0.11367
     243 -> 246        0.29701
     244 -> 245        0.61683
 This state for optimization and/or second-order correction.
 Total Energy, E(TD-HF/TD-DFT) =  -3043.35774527
 Copying the excited state density for this state as the 1-particle RhoCI density.

 The electronic state is 1-A.
 Alpha  occ. eigenvalues --  -46.81016 -19.22305 -19.21163 -19.17644 -19.17452
 Alpha  occ. eigenvalues --  -19.16401 -19.16399 -19.15811 -14.38871 -14.37025
 Alpha  occ. eigenvalues --  -14.36471 -14.35783 -10.34181 -10.33986 -10.30943
 Alpha  occ. eigenvalues --  -10.30520 -10.29765 -10.27955 -10.27633 -10.26969
 Alpha  occ. eigenvalues --  -10.26900 -10.26396 -10.26281 -10.26223 -10.26147
 Alpha  occ. eigenvalues --  -10.25669 -10.25626 -10.25157 -10.25046 -10.24926
 Alpha  occ. eigenvalues --  -10.24867 -10.24740 -10.24503 -10.24388 -10.24271
 Alpha  occ. eigenvalues --  -10.24099 -10.24086 -10.23798 -10.23734 -10.23341
 Alpha  occ. eigenvalues --  -10.23221 -10.23187 -10.23184 -10.23173 -10.23170
 Alpha  occ. eigenvalues --  -10.23089 -10.23088 -10.23060 -10.22193 -10.21927
 Alpha  occ. eigenvalues --  -10.21924 -10.21826 -10.21434 -10.21371 -10.21294
 Alpha  occ. eigenvalues --  -10.21293 -10.21224 -10.21135 -10.20969 -10.20803
 Alpha  occ. eigenvalues --  -10.20775 -10.20475 -10.20329 -10.20117 -10.20095
 Alpha  occ. eigenvalues --  -10.19009  -3.09514  -1.84471  -1.83976  -1.83915
 Alpha  occ. eigenvalues --   -1.14977  -1.13140  -1.10564  -1.08670  -1.06011
 Alpha  occ. eigenvalues --   -1.04686  -1.03439  -1.00470  -0.98836  -0.98090
 Alpha  occ. eigenvalues --   -0.97356  -0.88856  -0.86544  -0.85839  -0.85489
 Alpha  occ. eigenvalues --   -0.85333  -0.84676  -0.84485  -0.84063  -0.83473
 Alpha  occ. eigenvalues --   -0.82836  -0.82574  -0.82064  -0.80608  -0.80233
 Alpha  occ. eigenvalues --   -0.79330  -0.79012  -0.78403  -0.77839  -0.77015
 Alpha  occ. eigenvalues --   -0.75424  -0.75152  -0.74756  -0.73461  -0.72251
 Alpha  occ. eigenvalues --   -0.71903  -0.70511  -0.70437  -0.70046  -0.69258
 Alpha  occ. eigenvalues --   -0.69087  -0.68638  -0.67662  -0.66878  -0.66305
 Alpha  occ. eigenvalues --   -0.65896  -0.65129  -0.64020  -0.62806  -0.62711
 Alpha  occ. eigenvalues --   -0.60946  -0.60703  -0.60543  -0.59414  -0.59166
 Alpha  occ. eigenvalues --   -0.58723  -0.58346  -0.57680  -0.57462  -0.56846
 Alpha  occ. eigenvalues --   -0.55906  -0.55772  -0.55516  -0.54900  -0.54651
 Alpha  occ. eigenvalues --   -0.54430  -0.53757  -0.52916  -0.52741  -0.52457
 Alpha  occ. eigenvalues --   -0.51996  -0.51908  -0.51654  -0.51473  -0.51146
 Alpha  occ. eigenvalues --   -0.50514  -0.50087  -0.49950  -0.49859  -0.49769
 Alpha  occ. eigenvalues --   -0.49628  -0.49333  -0.48576  -0.48439  -0.47882
 Alpha  occ. eigenvalues --   -0.47711  -0.47495  -0.47414  -0.47330  -0.46999
 Alpha  occ. eigenvalues --   -0.46878  -0.46713  -0.46700  -0.46383  -0.46180
 Alpha  occ. eigenvalues --   -0.45701  -0.45638  -0.45528  -0.45381  -0.44950
 Alpha  occ. eigenvalues --   -0.44895  -0.44853  -0.44783  -0.43976  -0.43845
 Alpha  occ. eigenvalues --   -0.43584  -0.43418  -0.43140  -0.43101  -0.43077
 Alpha  occ. eigenvalues --   -0.42775  -0.42595  -0.42331  -0.42143  -0.42018
 Alpha  occ. eigenvalues --   -0.41840  -0.41655  -0.41510  -0.41246  -0.40986
 Alpha  occ. eigenvalues --   -0.40928  -0.40617  -0.40380  -0.40288  -0.39917
 Alpha  occ. eigenvalues --   -0.39511  -0.39477  -0.39393  -0.39167  -0.38847
 Alpha  occ. eigenvalues --   -0.38810  -0.38672  -0.38356  -0.38278  -0.38000
 Alpha  occ. eigenvalues --   -0.37856  -0.37717  -0.37639  -0.37295  -0.37211
 Alpha  occ. eigenvalues --   -0.36981  -0.36862  -0.36745  -0.36570  -0.36150
 Alpha  occ. eigenvalues --   -0.35386  -0.35118  -0.34888  -0.34588  -0.34169
 Alpha  occ. eigenvalues --   -0.34072  -0.33806  -0.33691  -0.33496  -0.33217
 Alpha  occ. eigenvalues --   -0.32870  -0.32786  -0.32545  -0.32087  -0.31659
 Alpha  occ. eigenvalues --   -0.31216  -0.31173  -0.30341  -0.30110  -0.29773
 Alpha  occ. eigenvalues --   -0.28488  -0.28120  -0.27664  -0.27495  -0.27288
 Alpha  occ. eigenvalues --   -0.27026  -0.26962  -0.23117  -0.21765
 Alpha virt. eigenvalues --   -0.08210  -0.06802  -0.01847  -0.00049   0.00789
 Alpha virt. eigenvalues --    0.02745   0.03156   0.03803   0.04537   0.04778
 Alpha virt. eigenvalues --    0.05904   0.06044   0.08226   0.08632   0.08779

 Mulliken charges:
               1
     1  Mg   0.812000
     2  C    0.092937
     3  C   -0.208199
     4  C   -0.169235
     5  C   -0.163933
     6  N   -0.621010
     7  C    0.320189
     8  C   -0.164929
     9  C   -0.134431
    10  C    0.320183
    11  C   -0.270753
    12  C   -0.172337
    13  C   -0.257408
    14  C    0.590212
    15  O   -0.456764
    16  O   -0.489236
    17  N   -0.724869
    18  C    0.323180
    19  C    0.082780
    20  C   -0.112440
    21  C    0.368817
    22  C   -0.376841
    23  C    0.274325
    24  O   -0.407599
    25  N   -0.713855
    26  C    0.286842
    27  C   -0.040227
    28  C    0.009062
    29  C    0.293492
    30  C    0.255540
    31  C   -0.250964
    32  C   -0.252249
    33  N   -0.757510
    34  C    0.254789
    35  C    0.042777
    36  C    0.048484
    37  C    0.343350
    38  C   -0.409354
    39  C    0.354888
    40  O   -0.462603
    41  C   -0.320699
    42  C    0.621712
    43  O   -0.508037
    44  O   -0.414116
    45  C   -0.080825
    46  C    0.049937
    47  C   -0.140915
    48  C    0.086201
    49  C   -0.363736
    50  C   -0.240405
    51  C   -0.165087
    52  C   -0.182154
    53  C   -0.041558
    54  C   -0.317514
    55  C   -0.165259
    56  C   -0.176740
    57  C   -0.176070
    58  C   -0.055798
    59  C   -0.290526
    60  C   -0.188517
    61  C   -0.173181
    62  C   -0.157128
    63  C   -0.061936
    64  C   -0.288862
    65  C   -0.300160
    66  H    0.081902
    67  H    0.143660
    68  H    0.094384
    69  H    0.101444
    70  H    0.100406
    71  H    0.112506
    72  H    0.109009
    73  H    0.130052
    74  H    0.109270
    75  H    0.103382
    76  H    0.127684
    77  H    0.139440
    78  H    0.115653
    79  H    0.163135
    80  H    0.121459
    81  H    0.064079
    82  H    0.115481
    83  H    0.098214
    84  H    0.104317
    85  H    0.086506
    86  H    0.114264
    87  H    0.137113
    88  H    0.110991
    89  H    0.121184
    90  H    0.159116
    91  H    0.108362
    92  H    0.119940
    93  H    0.072194
    94  H    0.154020
    95  H    0.120157
    96  H    0.134482
    97  H    0.107779
    98  H    0.107171
    99  H    0.116387
   100  H    0.104531
   101  H    0.079132
   102  H    0.071484
   103  H    0.072745
   104  H    0.076616
   105  H    0.098585
   106  H    0.121860
   107  H    0.057152
   108  H    0.085250
   109  H    0.095536
   110  H    0.092251
   111  H    0.092993
   112  H    0.092229
   113  H    0.086886
   114  H    0.060977
   115  H    0.113863
   116  H    0.106954
   117  H    0.086029
   118  H    0.073420
   119  H    0.092264
   120  H    0.103272
   121  H    0.064930
   122  H    0.058854
   123  H    0.093794
   124  H    0.079266
   125  H    0.081979
   126  H    0.109091
   127  H    0.096036
   128  H    0.110860
   129  H    0.094204
   130  H    0.116659
   131  H    0.128584
   132  H    0.123300
   133  O   -0.389533
   134  H    0.057074
 Sum of Mulliken charges =  -0.00000

 Dipole moment (field-independent basis, Debye):
    X=              3.7996    Y=             -3.4949    Z=             -0.7965  Tot=              5.2235
 Quadrupole moment (field-independent basis, Debye-Ang):
   XX=           -378.3860   YY=           -440.1593   ZZ=           -393.5313
   XY=            -10.5084   XZ=             20.7258   YZ=            -36.7309

 Normal termination of Gaussian 16 at Mon Oct  7 13:52:46 2019.
