 Gaussian 16, Revision A.03,
 Gaussian 16:  ES64L-G16RevA.03 25-Dec-2016

 ----------------------------------------------------------------------
 # td=(NStates=1) iop(3/107=0140000000,3/108=0140000000) iop(3/107=0140
 000000,3/108=0140000000) CAM-B3LYP/6-31G(d,p)
 ----------------------------------------------------------------------

 --
 TD
 --
 Symbolic Z-matrix:
 Charge =  0 Multiplicity = 1

                         Standard orientation:
 ---------------------------------------------------------------------
 Center     Atomic      Atomic             Coordinates (Angstroms)
 Number     Number       Type             X           Y           Z
 ---------------------------------------------------------------------
      1         12           0       -5.589108    1.273491    0.181971
      2          6           0       -4.908596   -2.074052   -0.382826
      3          6           0       -3.368785    1.166446    2.711766
      4          6           0       -6.190688    4.586734    0.618744
      5          6           0       -7.960819    1.128598   -2.469361
      6          7           0       -4.249867   -0.160655    0.956381
      7          6           0       -4.122028   -1.569469    0.626064
      8          6           0       -3.115475   -2.224014    1.520996
      9          6           0       -2.821631   -1.231082    2.640077
     10          6           0       -3.526758    0.014810    2.184959
     11          6           0       -3.434844   -1.660152    3.963918
     12          6           0       -1.989257   -2.752362    0.658538
     13          6           0       -0.944800   -3.608324    1.364505
     14          6           0        0.264075   -4.003441    0.594796
     15          8           0        0.447198   -3.642059   -0.604959
     16          8           0        1.107987   -4.672830    1.313837
     17          7           0       -4.959736    2.647712    1.507038
     18          6           0       -4.008132    2.426988    2.445492
     19          6           0       -3.772822    3.657571    3.147297
     20          6           0       -4.448472    4.656240    2.496966
     21          6           0       -5.281683    4.026900    1.434651
     22          6           0       -2.834509    3.830028    4.302365
     23          6           0       -4.567054    6.044290    2.858393
     24          8           0       -3.989541    6.502766    3.749533
     25          7           0       -6.865791    2.571001   -0.755580
     26          6           0       -6.929241    3.863933   -0.344539
     27          6           0       -7.948161    4.505910   -1.207427
     28          6           0       -8.493328    3.564321   -2.011830
     29          6           0       -7.811830    2.346463   -1.723178
     30          6           0       -8.417427    5.831394   -1.188557
     31          6           0       -9.585492    3.705856   -3.136763
     32          6           0       -8.930710    4.022847   -4.453662
     33          7           0       -6.220225   -0.137747   -1.206332
     34          6           0       -7.263802    0.003253   -2.171120
     35          6           0       -7.440310   -1.337739   -2.789748
     36          6           0       -6.535592   -2.248750   -2.111733
     37          6           0       -5.843734   -1.425730   -1.126326
     38          6           0       -8.357847   -1.823971   -3.750240
     39          6           0       -6.152256   -3.569931   -1.969587
     40          8           0       -6.579399   -4.575810   -2.538361
     41          6           0       -4.946341   -3.520689   -0.806394
     42          6           0       -5.325815   -4.566145    0.236687
     43          8           0       -5.878657   -4.328410    1.276229
     44          8           0       -4.917051   -5.815334   -0.170396
     45          6           0       -5.296465   -6.892636    0.777639
     46          6           0        2.362492   -5.133236    0.629317
     47          6           0        3.478985   -4.143116    1.028092
     48          6           0        3.970078   -3.161924    0.201430
     49          6           0        3.773782   -3.226876   -1.253182
     50          6           0        5.075330   -2.340010    0.698841
     51          6           0        6.415912   -2.648621    0.010921
     52          6           0        7.679240   -1.726134    0.542248
     53          6           0        8.981052   -1.976941   -0.088552
     54          6           0        9.537126   -3.314454    0.246711
     55          6           0        9.865980   -0.742488    0.188346
     56          6           0       11.298228   -0.800889   -0.390737
     57          6           0       12.106103    0.455213    0.062097
     58          6           0       13.450420    0.506943   -0.645245
     59          6           0       14.043791   -0.839215   -0.364780
     60          6           0       14.220464    1.721564   -0.067523
     61          6           0       15.382379    2.162017   -1.131311
     62          6           0       15.972447    3.425856   -0.555513
     63          6           0       17.343975    3.748042   -1.343214
     64          6           0       17.069184    4.177144   -2.765483
     65          6           0       18.115592    5.023516   -0.655509
     66          1           0       -2.593268    1.064960    3.603211
     67          1           0       -6.463076    5.596609    0.613150
     68          1           0       -8.637329    1.044501   -3.215481
     69          1           0       -3.642543   -3.141870    1.823405
     70          1           0       -1.722010   -1.110092    2.732707
     71          1           0       -2.737987   -2.467579    4.494984
     72          1           0       -3.517281   -0.635045    4.549093
     73          1           0       -4.430739   -2.090944    3.726264
     74          1           0       -2.283667   -3.241876   -0.232878
     75          1           0       -1.447801   -1.747658    0.140724
     76          1           0       -0.570283   -3.024524    2.253420
     77          1           0       -1.484881   -4.429705    1.795530
     78          1           0       -1.797019    3.247985    4.113725
     79          1           0       -2.783307    4.958284    4.614228
     80          1           0       -3.554037    3.584912    5.382136
     81          1           0       -5.244184    6.726351    2.147943
     82          1           0      -10.362326    2.745474   -3.245139
     83          1           0      -10.278201    4.548498   -2.865151
     84          1           0       -9.583550    4.240024   -5.379432
     85          1           0       -8.360126    4.961313   -4.362860
     86          1           0       -8.176659    3.361675   -4.749182
     87          1           0       -8.088743   -1.521651   -4.905580
     88          1           0       -8.107386   -2.894140   -4.132073
     89          1           0       -9.492292   -1.602538   -3.609384
     90          1           0       -3.942090   -3.907677   -1.319263
     91          1           0        2.361895   -6.301243    1.220665
     92          1           0        2.007783   -5.102736   -0.452666
     93          1           0        3.813837   -4.016048    2.091015
     94          1           0        2.898047   -3.719936   -1.560326
     95          1           0        3.547747   -2.120684   -1.596306
     96          1           0        4.745910   -3.668099   -1.785299
     97          1           0        4.874924   -1.388294    0.510547
     98          1           0        5.186237   -2.576580    1.723251
     99          1           0        6.622409   -3.720825    0.030033
    100          1           0        6.441111   -2.161119   -1.124780
    101          1           0        7.302455   -0.683702    0.182174
    102          1           0        7.914937   -1.867823    1.614634
    103          1           0        8.868198   -1.838910   -1.199357
    104          1           0        8.880917   -4.135058   -0.169002
    105          1           0       10.542190   -3.419758   -0.034039
    106          1           0        9.621903   -3.321762    1.202731
    107          1           0        9.311588    0.065504    0.156282
    108          1           0        9.901554   -0.649776    1.292936
    109          1           0       11.518204   -1.711608    0.091273
    110          1           0       11.121503   -0.921162   -1.439308
    111          1           0       11.386684    1.440946   -0.283992
    112          1           0       12.243578    0.525159    1.215773
    113          1           0       13.361873    0.587566   -1.788937
    114          1           0       13.927186   -1.209089    0.737367
    115          1           0       13.635939   -1.720220   -0.829806
    116          1           0       15.382865   -0.730135   -0.463244
    117          1           0       13.703452    2.731855    0.211917
    118          1           0       14.702087    1.584861    0.996306
    119          1           0       16.214265    1.395986   -1.271810
    120          1           0       14.865861    2.316564   -2.100383
    121          1           0       15.276514    4.543831   -0.865347
    122          1           0       16.328271    3.359588    0.380375
    123          1           0       18.027183    2.937479   -1.380941
    124          1           0       16.612754    5.364281   -2.818422
    125          1           0       18.222079    3.978454   -3.235120
    126          1           0       16.241255    3.474628   -3.255480
    127          1           0       18.474296    4.903859    0.406449
    128          1           0       19.062851    5.221982   -1.403699
    129          1           0       17.500199    5.962161   -0.531576
    130          1           0       -4.911147   -7.900462    0.354452
    131          1           0       -6.362709   -6.916072    0.984532
    132          1           0       -4.704136   -6.603769    1.629850
    133          8           0       -7.936756    6.727856   -0.398205
    134          1           0       -9.256974    6.208481   -1.857549
 ---------------------------------------------------------------------

 SCF Done:  E(RCAM-B3LYP) =  -3043.39328754     A.U. after   15 cycles

 Excitation energies and oscillator strengths:

 Excited State   1:      Singlet-A      2.0642 eV  600.63 nm  f=0.1854  <S**2>=0.000
     243 -> 246       -0.26548
     244 -> 245        0.64478
 This state for optimization and/or second-order correction.
 Total Energy, E(TD-HF/TD-DFT) =  -3043.31742878
 Copying the excited state density for this state as the 1-particle RhoCI density.

 The electronic state is 1-A.
 Alpha  occ. eigenvalues --  -46.80853 -19.22781 -19.21948 -19.17323 -19.17217
 Alpha  occ. eigenvalues --  -19.16706 -19.16088 -19.16013 -14.38324 -14.37586
 Alpha  occ. eigenvalues --  -14.37490 -14.36496 -10.34778 -10.34755 -10.30934
 Alpha  occ. eigenvalues --  -10.30721 -10.30165 -10.30042 -10.27931 -10.27697
 Alpha  occ. eigenvalues --  -10.27674 -10.26852 -10.26706 -10.26564 -10.26497
 Alpha  occ. eigenvalues --  -10.26370 -10.26302 -10.25883 -10.25789 -10.25311
 Alpha  occ. eigenvalues --  -10.25005 -10.24597 -10.24491 -10.24434 -10.24385
 Alpha  occ. eigenvalues --  -10.24276 -10.24091 -10.24028 -10.23674 -10.23632
 Alpha  occ. eigenvalues --  -10.23625 -10.23415 -10.23402 -10.23330 -10.23277
 Alpha  occ. eigenvalues --  -10.23035 -10.22927 -10.22814 -10.22790 -10.22741
 Alpha  occ. eigenvalues --  -10.22736 -10.22701 -10.22489 -10.22343 -10.22127
 Alpha  occ. eigenvalues --  -10.22106 -10.22027 -10.21912 -10.21903 -10.21876
 Alpha  occ. eigenvalues --  -10.21810 -10.20919 -10.20628 -10.20503 -10.19078
 Alpha  occ. eigenvalues --  -10.18955  -3.09484  -1.84430  -1.83958  -1.83886
 Alpha  occ. eigenvalues --   -1.13886  -1.12313  -1.10700  -1.05642  -1.04482
 Alpha  occ. eigenvalues --   -1.02753  -1.02111  -1.00363  -0.99355  -0.98744
 Alpha  occ. eigenvalues --   -0.96929  -0.88735  -0.87252  -0.86368  -0.86121
 Alpha  occ. eigenvalues --   -0.85616  -0.84721  -0.84680  -0.84294  -0.84012
 Alpha  occ. eigenvalues --   -0.83053  -0.82696  -0.82164  -0.80963  -0.79486
 Alpha  occ. eigenvalues --   -0.79225  -0.78375  -0.77688  -0.76813  -0.76264
 Alpha  occ. eigenvalues --   -0.75777  -0.75204  -0.73988  -0.72878  -0.72748
 Alpha  occ. eigenvalues --   -0.71083  -0.70453  -0.69397  -0.69207  -0.69007
 Alpha  occ. eigenvalues --   -0.68595  -0.68155  -0.67376  -0.66422  -0.66101
 Alpha  occ. eigenvalues --   -0.65738  -0.64825  -0.64345  -0.62915  -0.62439
 Alpha  occ. eigenvalues --   -0.61897  -0.61063  -0.60853  -0.59277  -0.58424
 Alpha  occ. eigenvalues --   -0.58319  -0.58208  -0.57390  -0.57042  -0.56944
 Alpha  occ. eigenvalues --   -0.56101  -0.55745  -0.55420  -0.55069  -0.54337
 Alpha  occ. eigenvalues --   -0.53983  -0.53061  -0.52795  -0.52534  -0.52350
 Alpha  occ. eigenvalues --   -0.52015  -0.51737  -0.51192  -0.50905  -0.50534
 Alpha  occ. eigenvalues --   -0.49854  -0.49763  -0.49213  -0.49038  -0.48983
 Alpha  occ. eigenvalues --   -0.48867  -0.48478  -0.48206  -0.48115  -0.47916
 Alpha  occ. eigenvalues --   -0.47683  -0.47370  -0.47228  -0.47123  -0.46988
 Alpha  occ. eigenvalues --   -0.46797  -0.46446  -0.46194  -0.45849  -0.45791
 Alpha  occ. eigenvalues --   -0.45652  -0.45447  -0.45386  -0.45161  -0.44708
 Alpha  occ. eigenvalues --   -0.44415  -0.44275  -0.44072  -0.43965  -0.43734
 Alpha  occ. eigenvalues --   -0.43505  -0.43327  -0.43225  -0.42905  -0.42816
 Alpha  occ. eigenvalues --   -0.42612  -0.42293  -0.42080  -0.42003  -0.41783
 Alpha  occ. eigenvalues --   -0.41537  -0.40992  -0.40921  -0.40757  -0.40449
 Alpha  occ. eigenvalues --   -0.40192  -0.40007  -0.39862  -0.39728  -0.39557
 Alpha  occ. eigenvalues --   -0.39482  -0.39289  -0.38823  -0.38583  -0.38556
 Alpha  occ. eigenvalues --   -0.38414  -0.38374  -0.38224  -0.38118  -0.37828
 Alpha  occ. eigenvalues --   -0.37700  -0.37634  -0.37221  -0.37129  -0.36960
 Alpha  occ. eigenvalues --   -0.36782  -0.36729  -0.36579  -0.35867  -0.35830
 Alpha  occ. eigenvalues --   -0.35750  -0.35003  -0.34893  -0.34736  -0.34683
 Alpha  occ. eigenvalues --   -0.34652  -0.33940  -0.33906  -0.33539  -0.33200
 Alpha  occ. eigenvalues --   -0.33102  -0.32510  -0.32296  -0.31868  -0.31470
 Alpha  occ. eigenvalues --   -0.31416  -0.30862  -0.30273  -0.29874  -0.29042
 Alpha  occ. eigenvalues --   -0.28890  -0.28315  -0.27530  -0.27480  -0.27324
 Alpha  occ. eigenvalues --   -0.27312  -0.27268  -0.23550  -0.22192
 Alpha virt. eigenvalues --   -0.08890  -0.07039  -0.01734  -0.00900   0.00771
 Alpha virt. eigenvalues --    0.01760   0.03508   0.03654   0.04099   0.04191
 Alpha virt. eigenvalues --    0.05032   0.06365   0.07958   0.08235   0.08461

 Mulliken charges:
               1
     1  Mg   0.811877
     2  C    0.108169
     3  C   -0.200614
     4  C   -0.127592
     5  C   -0.117369
     6  N   -0.642957
     7  C    0.298321
     8  C   -0.136609
     9  C   -0.145997
    10  C    0.368083
    11  C   -0.292187
    12  C   -0.171557
    13  C   -0.261982
    14  C    0.607026
    15  O   -0.520324
    16  O   -0.438022
    17  N   -0.739375
    18  C    0.345777
    19  C    0.064014
    20  C   -0.028412
    21  C    0.311842
    22  C   -0.388299
    23  C    0.239665
    24  O   -0.377363
    25  N   -0.712249
    26  C    0.314364
    27  C   -0.003954
    28  C    0.024144
    29  C    0.262149
    30  C    0.198097
    31  C   -0.229312
    32  C   -0.312460
    33  N   -0.750074
    34  C    0.303477
    35  C    0.069715
    36  C    0.088846
    37  C    0.306833
    38  C   -0.438073
    39  C    0.319684
    40  O   -0.470734
    41  C   -0.364044
    42  C    0.629688
    43  O   -0.471899
    44  O   -0.468339
    45  C   -0.086170
    46  C   -0.017825
    47  C   -0.116934
    48  C    0.132056
    49  C   -0.352673
    50  C   -0.188316
    51  C   -0.192471
    52  C   -0.171028
    53  C   -0.057116
    54  C   -0.305820
    55  C   -0.192814
    56  C   -0.171121
    57  C   -0.157278
    58  C   -0.026450
    59  C   -0.286254
    60  C   -0.183767
    61  C   -0.175557
    62  C   -0.136948
    63  C   -0.068058
    64  C   -0.255820
    65  C   -0.310962
    66  H    0.083779
    67  H    0.143089
    68  H    0.090159
    69  H    0.121414
    70  H    0.116261
    71  H    0.097544
    72  H    0.099739
    73  H    0.136456
    74  H    0.128851
    75  H    0.082860
    76  H    0.125963
    77  H    0.133557
    78  H    0.113467
    79  H    0.166796
    80  H    0.088300
    81  H    0.057969
    82  H    0.087968
    83  H    0.112108
    84  H    0.102426
    85  H    0.113710
    86  H    0.124336
    87  H    0.106907
    88  H    0.156702
    89  H    0.133346
    90  H    0.146763
    91  H    0.095363
    92  H    0.152476
    93  H    0.082387
    94  H    0.138825
    95  H    0.093748
    96  H    0.113684
    97  H    0.107422
    98  H    0.099554
    99  H    0.099308
   100  H    0.073961
   101  H    0.082486
   102  H    0.084622
   103  H    0.066745
   104  H    0.100509
   105  H    0.103231
   106  H    0.110971
   107  H    0.088961
   108  H    0.059288
   109  H    0.106303
   110  H    0.102417
   111  H    0.053891
   112  H    0.093715
   113  H    0.087193
   114  H    0.088879
   115  H    0.123913
   116  H    0.040112
   117  H    0.093425
   118  H    0.080502
   119  H    0.094504
   120  H    0.103502
   121  H    0.042391
   122  H    0.108351
   123  H    0.099211
   124  H    0.077926
   125  H    0.070719
   126  H    0.085989
   127  H    0.090979
   128  H    0.075307
   129  H    0.100860
   130  H    0.122560
   131  H    0.146274
   132  H    0.129224
   133  O   -0.464217
   134  H    0.081411
 Sum of Mulliken charges =  -0.00000

 Dipole moment (field-independent basis, Debye):
    X=              2.5460    Y=             -4.6968    Z=             -0.0364  Tot=              5.3426
 Quadrupole moment (field-independent basis, Debye-Ang):
   XX=           -386.8375   YY=           -441.1619   ZZ=           -393.8512
   XY=             -3.3220   XZ=             31.2436   YZ=            -31.7777

 Normal termination of Gaussian 16 at Thu Oct 10 21:29:21 2019.
