 Gaussian 16, Revision A.03,
 Gaussian 16:  ES64L-G16RevA.03 25-Dec-2016

 ----------------------------------------------------------------------
 # td=(NStates=1) iop(3/107=0140000000,3/108=0140000000) iop(3/107=0140
 000000,3/108=0140000000) CAM-B3LYP/6-31G(d,p)
 ----------------------------------------------------------------------

 --
 TD
 --
 Symbolic Z-matrix:
 Charge =  0 Multiplicity = 1

                         Standard orientation:
 ---------------------------------------------------------------------
 Center     Atomic      Atomic             Coordinates (Angstroms)
 Number     Number       Type             X           Y           Z
 ---------------------------------------------------------------------
      1         12           0       -5.639004    1.231784    0.184711
      2          6           0       -5.019733   -2.112529   -0.372196
      3          6           0       -3.441727    1.172725    2.726458
      4          6           0       -6.331594    4.515346    0.702743
      5          6           0       -8.001342    1.131862   -2.396666
      6          7           0       -4.306365   -0.314283    0.979513
      7          6           0       -4.187818   -1.576025    0.570090
      8          6           0       -3.138776   -2.335807    1.336668
      9          6           0       -2.956176   -1.307769    2.579831
     10          6           0       -3.646417   -0.098552    2.064205
     11          6           0       -3.542041   -1.762355    3.925786
     12          6           0       -1.937629   -2.716282    0.508626
     13          6           0       -0.911092   -3.524440    1.397805
     14          6           0        0.392824   -3.868715    0.697882
     15          8           0        0.576075   -3.602542   -0.450250
     16          8           0        1.229618   -4.648347    1.446907
     17          7           0       -5.034353    2.652716    1.506013
     18          6           0       -4.058633    2.404740    2.529055
     19          6           0       -3.871066    3.615738    3.160150
     20          6           0       -4.677496    4.617850    2.654430
     21          6           0       -5.378154    4.000828    1.573023
     22          6           0       -2.900881    3.674321    4.407668
     23          6           0       -4.805400    6.003810    2.990343
     24          8           0       -4.024454    6.657680    3.697695
     25          7           0       -6.878908    2.609483   -0.693608
     26          6           0       -7.037167    3.927883   -0.340190
     27          6           0       -8.028817    4.530959   -1.178719
     28          6           0       -8.498684    3.534027   -2.047420
     29          6           0       -7.813081    2.320995   -1.752970
     30          6           0       -8.426677    5.890464   -1.152245
     31          6           0       -9.493864    3.811460   -3.160391
     32          6           0       -8.832592    3.990123   -4.565418
     33          7           0       -6.390399   -0.134328   -1.095173
     34          6           0       -7.357273   -0.083589   -2.082145
     35          6           0       -7.462284   -1.314846   -2.794129
     36          6           0       -6.699030   -2.202126   -2.057029
     37          6           0       -6.091304   -1.428266   -1.050343
     38          6           0       -8.413028   -1.563029   -3.902928
     39          6           0       -6.071569   -3.498699   -1.996569
     40          8           0       -6.353516   -4.492251   -2.735113
     41          6           0       -4.989065   -3.619575   -0.872839
     42          6           0       -5.306950   -4.628875    0.126014
     43          8           0       -5.687341   -4.414662    1.283402
     44          8           0       -5.050985   -5.894448   -0.274425
     45          6           0       -5.196315   -6.988968    0.633043
     46          6           0        2.397081   -5.073020    0.727306
     47          6           0        3.457709   -4.062363    0.956991
     48          6           0        3.994883   -3.185604    0.149484
     49          6           0        3.783452   -3.138825   -1.412224
     50          6           0        5.134489   -2.359165    0.658857
     51          6           0        6.588429   -2.590456   -0.090680
     52          6           0        7.622904   -1.692706    0.492542
     53          6           0        9.105120   -1.957434   -0.115420
     54          6           0        9.489191   -3.415824    0.100435
     55          6           0       10.073252   -0.950020    0.364887
     56          6           0       11.434158   -0.923530   -0.339614
     57          6           0       12.276118    0.200792    0.255462
     58          6           0       13.628795    0.412501   -0.515362
     59          6           0       14.512938   -0.821993   -0.337329
     60          6           0       14.250536    1.815750    0.006967
     61          6           0       15.493776    2.245020   -0.814016
     62          6           0       15.997110    3.613521   -0.627009
     63          6           0       17.215681    4.029547   -1.395060
     64          6           0       17.017028    4.264277   -2.895122
     65          6           0       17.899497    5.304733   -0.792879
     66          1           0       -2.764695    1.046546    3.458292
     67          1           0       -6.460088    5.528200    0.709008
     68          1           0       -8.907300    1.081391   -3.050886
     69          1           0       -3.539610   -3.369524    1.781620
     70          1           0       -1.854646   -1.005212    2.879400
     71          1           0       -3.133921   -2.853936    4.187158
     72          1           0       -3.371304   -1.019277    4.604084
     73          1           0       -4.676664   -1.933826    4.056360
     74          1           0       -2.193048   -3.272584   -0.393482
     75          1           0       -1.286861   -1.735275    0.254373
     76          1           0       -0.716920   -3.013570    2.217134
     77          1           0       -1.320605   -4.581910    1.755882
     78          1           0       -1.839411    3.284005    4.231736
     79          1           0       -3.068920    4.808058    4.604101
     80          1           0       -3.281973    3.130431    5.174176
     81          1           0       -5.588469    6.561586    2.644757
     82          1           0      -10.057573    2.833352   -3.211831
     83          1           0      -10.220652    4.555785   -2.874109
     84          1           0       -9.451522    3.769437   -5.571678
     85          1           0       -8.335944    5.070451   -4.615302
     86          1           0       -7.918284    3.068275   -4.496913
     87          1           0       -8.142919   -0.925156   -4.667935
     88          1           0       -8.322477   -2.494665   -4.083204
     89          1           0       -9.321761   -1.278058   -3.531170
     90          1           0       -4.101547   -3.816564   -1.278521
     91          1           0        2.581544   -6.098657    0.851818
     92          1           0        2.330822   -4.961054   -0.350880
     93          1           0        3.982776   -4.096713    1.965470
     94          1           0        2.776969   -3.637789   -1.514973
     95          1           0        3.810030   -2.131196   -1.575200
     96          1           0        4.490558   -3.690021   -2.069524
     97          1           0        4.927090   -1.252065    0.527962
     98          1           0        5.200228   -2.503521    1.733822
     99          1           0        6.719060   -3.758225    0.000314
    100          1           0        6.408599   -2.382897   -1.048287
    101          1           0        7.549290   -0.716078    0.475695
    102          1           0        7.866134   -1.919165    1.620251
    103          1           0        8.798348   -1.783187   -1.149633
    104          1           0        8.687640   -4.256140   -0.154190
    105          1           0       10.479051   -3.561803   -0.416159
    106          1           0        9.731626   -3.555032    1.243180
    107          1           0        9.585351    0.224090    0.139446
    108          1           0       10.121061   -1.163141    1.524572
    109          1           0       12.049363   -1.794997   -0.220778
    110          1           0       11.155641   -0.984217   -1.306658
    111          1           0       11.617782    1.148590    0.193898
    112          1           0       12.367137   -0.058538    1.303116
    113          1           0       13.504538    0.544603   -1.484141
    114          1           0       14.947460   -1.162365    0.566500
    115          1           0       13.985954   -1.644605   -0.886109
    116          1           0       15.349385   -0.724529   -0.954838
    117          1           0       13.450987    2.588464   -0.164941
    118          1           0       14.526270    1.460846    1.020509
    119          1           0       16.323820    1.652812   -0.748583
    120          1           0       15.064380    2.294532   -1.857504
    121          1           0       15.123693    4.393522   -0.797236
    122          1           0       16.110430    3.594345    0.464618
    123          1           0       17.844295    3.249815   -1.090362
    124          1           0       16.155270    5.031975   -3.038795
    125          1           0       17.829173    4.890779   -3.366408
    126          1           0       16.705523    3.355966   -3.552840
    127          1           0       17.833087    5.276035    0.364472
    128          1           0       18.929692    5.490656   -1.186084
    129          1           0       17.392886    6.196197   -1.132630
    130          1           0       -4.715544   -7.939695    0.212867
    131          1           0       -6.136609   -7.111944    0.819226
    132          1           0       -4.544689   -6.716686    1.532074
    133          8           0       -7.883849    6.721574   -0.458285
    134          1           0       -8.992948    6.313208   -1.888320
 ---------------------------------------------------------------------

 SCF Done:  E(RCAM-B3LYP) =  -3043.50122512     A.U. after   16 cycles

 Excitation energies and oscillator strengths:

 Excited State   1:      Singlet-A      2.0706 eV  598.79 nm  f=0.1375  <S**2>=0.000
     243 -> 246       -0.30121
     244 -> 245        0.63045
 This state for optimization and/or second-order correction.
 Total Energy, E(TD-HF/TD-DFT) =  -3043.42513223
 Copying the excited state density for this state as the 1-particle RhoCI density.

 The electronic state is 1-A.
 Alpha  occ. eigenvalues --  -46.81522 -19.22511 -19.22355 -19.17432 -19.16911
 Alpha  occ. eigenvalues --  -19.16526 -19.16415 -19.16235 -14.39264 -14.37070
 Alpha  occ. eigenvalues --  -14.36726 -14.36118 -10.35535 -10.35019 -10.31638
 Alpha  occ. eigenvalues --  -10.29183 -10.28712 -10.27998 -10.27442 -10.27023
 Alpha  occ. eigenvalues --  -10.26479 -10.26423 -10.26304 -10.26294 -10.26271
 Alpha  occ. eigenvalues --  -10.26170 -10.26068 -10.25987 -10.25852 -10.25422
 Alpha  occ. eigenvalues --  -10.25120 -10.25075 -10.25019 -10.24897 -10.24892
 Alpha  occ. eigenvalues --  -10.24631 -10.24595 -10.24508 -10.24031 -10.23328
 Alpha  occ. eigenvalues --  -10.23240 -10.23091 -10.22969 -10.22485 -10.22465
 Alpha  occ. eigenvalues --  -10.22375 -10.22058 -10.21933 -10.21925 -10.21836
 Alpha  occ. eigenvalues --  -10.21758 -10.21596 -10.21344 -10.21282 -10.21195
 Alpha  occ. eigenvalues --  -10.20926 -10.20875 -10.20837 -10.20707 -10.20631
 Alpha  occ. eigenvalues --  -10.20339 -10.20158 -10.20028 -10.19626 -10.19480
 Alpha  occ. eigenvalues --  -10.19425  -3.10078  -1.85020  -1.84544  -1.84484
 Alpha  occ. eigenvalues --   -1.13901  -1.13374  -1.07109  -1.05794  -1.05309
 Alpha  occ. eigenvalues --   -1.04058  -1.03748  -1.03329  -1.01274  -0.98752
 Alpha  occ. eigenvalues --   -0.97803  -0.88981  -0.86046  -0.85954  -0.85674
 Alpha  occ. eigenvalues --   -0.85324  -0.85235  -0.84805  -0.84693  -0.83857
 Alpha  occ. eigenvalues --   -0.83144  -0.82560  -0.82131  -0.80898  -0.80160
 Alpha  occ. eigenvalues --   -0.79732  -0.78318  -0.78220  -0.77733  -0.77178
 Alpha  occ. eigenvalues --   -0.76067  -0.75361  -0.74601  -0.74336  -0.72938
 Alpha  occ. eigenvalues --   -0.71595  -0.70951  -0.70491  -0.69916  -0.69727
 Alpha  occ. eigenvalues --   -0.69456  -0.68968  -0.68006  -0.67021  -0.66785
 Alpha  occ. eigenvalues --   -0.65815  -0.65196  -0.64939  -0.62996  -0.62747
 Alpha  occ. eigenvalues --   -0.62221  -0.61438  -0.61105  -0.59816  -0.59790
 Alpha  occ. eigenvalues --   -0.59589  -0.58770  -0.58424  -0.57987  -0.57493
 Alpha  occ. eigenvalues --   -0.56884  -0.56097  -0.55991  -0.55517  -0.55253
 Alpha  occ. eigenvalues --   -0.54865  -0.54164  -0.53837  -0.53016  -0.52791
 Alpha  occ. eigenvalues --   -0.52396  -0.52071  -0.51741  -0.51579  -0.50648
 Alpha  occ. eigenvalues --   -0.50608  -0.50412  -0.50164  -0.49853  -0.49717
 Alpha  occ. eigenvalues --   -0.49372  -0.49139  -0.48780  -0.48509  -0.48045
 Alpha  occ. eigenvalues --   -0.47878  -0.47637  -0.47450  -0.47418  -0.47162
 Alpha  occ. eigenvalues --   -0.46596  -0.46396  -0.46226  -0.46148  -0.45995
 Alpha  occ. eigenvalues --   -0.45798  -0.45742  -0.45657  -0.45292  -0.44932
 Alpha  occ. eigenvalues --   -0.44821  -0.44677  -0.44370  -0.44184  -0.43869
 Alpha  occ. eigenvalues --   -0.43772  -0.43642  -0.43231  -0.43039  -0.42869
 Alpha  occ. eigenvalues --   -0.42706  -0.42609  -0.42448  -0.42103  -0.41941
 Alpha  occ. eigenvalues --   -0.41473  -0.41397  -0.41308  -0.41081  -0.40972
 Alpha  occ. eigenvalues --   -0.40771  -0.40618  -0.40408  -0.40215  -0.40050
 Alpha  occ. eigenvalues --   -0.39853  -0.39634  -0.39473  -0.39275  -0.39109
 Alpha  occ. eigenvalues --   -0.39041  -0.38829  -0.38434  -0.38217  -0.38060
 Alpha  occ. eigenvalues --   -0.37824  -0.37749  -0.37347  -0.37312  -0.37101
 Alpha  occ. eigenvalues --   -0.36947  -0.36744  -0.36703  -0.36320  -0.36146
 Alpha  occ. eigenvalues --   -0.35548  -0.35500  -0.35196  -0.35083  -0.34917
 Alpha  occ. eigenvalues --   -0.34689  -0.34356  -0.34118  -0.33611  -0.33114
 Alpha  occ. eigenvalues --   -0.33109  -0.32495  -0.32073  -0.32038  -0.31846
 Alpha  occ. eigenvalues --   -0.31089  -0.30741  -0.30624  -0.30542  -0.29788
 Alpha  occ. eigenvalues --   -0.28962  -0.28144  -0.27796  -0.27527  -0.27496
 Alpha  occ. eigenvalues --   -0.27406  -0.27190  -0.23158  -0.22319
 Alpha virt. eigenvalues --   -0.09063  -0.07061  -0.02175  -0.00739   0.00293
 Alpha virt. eigenvalues --    0.02576   0.03519   0.03877   0.04053   0.04336
 Alpha virt. eigenvalues --    0.04699   0.05358   0.07762   0.07942   0.09115

 Mulliken charges:
               1
     1  Mg   0.819533
     2  C    0.015698
     3  C   -0.175285
     4  C   -0.162670
     5  C   -0.182699
     6  N   -0.619253
     7  C    0.301265
     8  C   -0.151732
     9  C   -0.177550
    10  C    0.367331
    11  C   -0.302470
    12  C   -0.164590
    13  C   -0.259180
    14  C    0.599493
    15  O   -0.445084
    16  O   -0.463488
    17  N   -0.740556
    18  C    0.363861
    19  C   -0.008132
    20  C    0.020182
    21  C    0.315149
    22  C   -0.382452
    23  C    0.227547
    24  O   -0.426519
    25  N   -0.724002
    26  C    0.323887
    27  C    0.002714
    28  C    0.016338
    29  C    0.308867
    30  C    0.226491
    31  C   -0.238578
    32  C   -0.279040
    33  N   -0.690387
    34  C    0.260597
    35  C   -0.021715
    36  C    0.060524
    37  C    0.303431
    38  C   -0.332960
    39  C    0.314326
    40  O   -0.485915
    41  C   -0.260766
    42  C    0.623301
    43  O   -0.485397
    44  O   -0.448191
    45  C   -0.066199
    46  C   -0.016913
    47  C   -0.129322
    48  C    0.133302
    49  C   -0.369923
    50  C   -0.246316
    51  C   -0.170002
    52  C   -0.154092
    53  C   -0.070457
    54  C   -0.296375
    55  C   -0.152660
    56  C   -0.174083
    57  C   -0.162657
    58  C   -0.053464
    59  C   -0.338472
    60  C   -0.175602
    61  C   -0.167193
    62  C   -0.166936
    63  C   -0.022543
    64  C   -0.317131
    65  C   -0.322553
    66  H    0.065763
    67  H    0.111807
    68  H    0.098517
    69  H    0.120763
    70  H    0.102564
    71  H    0.100303
    72  H    0.122727
    73  H    0.121833
    74  H    0.126334
    75  H    0.103781
    76  H    0.140816
    77  H    0.115738
    78  H    0.114761
    79  H    0.149937
    80  H    0.136617
    81  H    0.096465
    82  H    0.102981
    83  H    0.119490
    84  H    0.108934
    85  H    0.109597
    86  H    0.076270
    87  H    0.132141
    88  H    0.144924
    89  H    0.135277
    90  H    0.163798
    91  H    0.120501
    92  H    0.122594
    93  H    0.068642
    94  H    0.134285
    95  H    0.121002
    96  H    0.117100
    97  H    0.086587
    98  H    0.095992
    99  H    0.089652
   100  H    0.111940
   101  H    0.097836
   102  H    0.065736
   103  H    0.079829
   104  H    0.095844
   105  H    0.098989
   106  H    0.081972
   107  H    0.048505
   108  H    0.071035
   109  H    0.098613
   110  H    0.100083
   111  H    0.069530
   112  H    0.098828
   113  H    0.091966
   114  H    0.109998
   115  H    0.098530
   116  H    0.107038
   117  H    0.091938
   118  H    0.089257
   119  H    0.093344
   120  H    0.076740
   121  H    0.055568
   122  H    0.083039
   123  H    0.091679
   124  H    0.091916
   125  H    0.103191
   126  H    0.098480
   127  H    0.091008
   128  H    0.098427
   129  H    0.104588
   130  H    0.121710
   131  H    0.145373
   132  H    0.113307
   133  O   -0.422606
   134  H    0.065952
 Sum of Mulliken charges =  -0.00000

 Dipole moment (field-independent basis, Debye):
    X=              1.2177    Y=             -5.1803    Z=             -1.3038  Tot=              5.4789
 Quadrupole moment (field-independent basis, Debye-Ang):
   XX=           -360.1018   YY=           -440.1169   ZZ=           -395.8468
   XY=             -0.1597   XZ=             13.5820   YZ=            -37.8100

 Normal termination of Gaussian 16 at Tue Oct  8 23:00:55 2019.
