 Gaussian 16, Revision A.03,
 Gaussian 16:  ES64L-G16RevA.03 25-Dec-2016

 ----------------------------------------------------------------------
 # td=(NStates=1) iop(3/107=0140000000,3/108=0140000000) iop(3/107=0140
 000000,3/108=0140000000) CAM-B3LYP/6-31G(d,p)
 ----------------------------------------------------------------------

 --
 TD
 --
 Symbolic Z-matrix:
 Charge =  0 Multiplicity = 1

                         Standard orientation:
 ---------------------------------------------------------------------
 Center     Atomic      Atomic             Coordinates (Angstroms)
 Number     Number       Type             X           Y           Z
 ---------------------------------------------------------------------
      1         12           0       -5.628157    1.210073    0.127895
      2          6           0       -4.966797   -2.124515   -0.351508
      3          6           0       -3.397518    1.268969    2.737632
      4          6           0       -6.253770    4.589771    0.587302
      5          6           0       -7.975764    1.121779   -2.359753
      6          7           0       -4.214896   -0.232421    1.000205
      7          6           0       -4.214347   -1.527012    0.646510
      8          6           0       -3.099019   -2.244520    1.440542
      9          6           0       -2.778604   -1.313289    2.541154
     10          6           0       -3.440273    0.028934    2.077311
     11          6           0       -3.334599   -1.577289    3.995862
     12          6           0       -1.900779   -2.705395    0.648135
     13          6           0       -0.879233   -3.612470    1.436662
     14          6           0        0.312283   -3.900968    0.640692
     15          8           0        0.637773   -3.510154   -0.491061
     16          8           0        1.122240   -4.822521    1.313515
     17          7           0       -4.889269    2.703214    1.393658
     18          6           0       -3.968060    2.440053    2.385812
     19          6           0       -3.721141    3.650478    3.083261
     20          6           0       -4.599380    4.709206    2.581695
     21          6           0       -5.274076    3.932783    1.409212
     22          6           0       -2.766347    3.826466    4.233193
     23          6           0       -4.666844    6.100514    2.842675
     24          8           0       -4.108833    6.603445    3.793254
     25          7           0       -6.926994    2.587723   -0.712431
     26          6           0       -6.991270    3.913915   -0.393946
     27          6           0       -7.999882    4.530464   -1.139419
     28          6           0       -8.553357    3.631537   -2.005711
     29          6           0       -7.823087    2.382629   -1.764475
     30          6           0       -8.276938    5.970900   -1.112129
     31          6           0       -9.425030    3.691553   -3.234570
     32          6           0       -8.734955    3.943110   -4.565981
     33          7           0       -6.338342   -0.127721   -1.097149
     34          6           0       -7.372709   -0.062897   -2.109327
     35          6           0       -7.690494   -1.344146   -2.673634
     36          6           0       -6.714876   -2.208802   -1.921801
     37          6           0       -5.942608   -1.405074   -1.032273
     38          6           0       -8.596900   -1.702726   -3.701954
     39          6           0       -6.192438   -3.583111   -1.878494
     40          8           0       -6.413345   -4.610074   -2.547535
     41          6           0       -5.068310   -3.594282   -0.849825
     42          6           0       -5.325477   -4.611082    0.234532
     43          8           0       -5.807408   -4.447134    1.267126
     44          8           0       -5.058942   -5.816348   -0.300483
     45          6           0       -5.295404   -6.917673    0.535588
     46          6           0        2.344197   -5.246296    0.656885
     47          6           0        3.362994   -4.232762    0.875058
     48          6           0        4.079167   -3.342480    0.095709
     49          6           0        3.722992   -3.141765   -1.301261
     50          6           0        5.143838   -2.508751    0.744245
     51          6           0        6.542234   -2.762372    0.070794
     52          6           0        7.634966   -1.785829    0.552934
     53          6           0        9.003828   -1.925358   -0.071720
     54          6           0        9.639924   -3.422968    0.002885
     55          6           0        9.974936   -0.923105    0.635177
     56          6           0       11.322555   -0.712235   -0.278475
     57          6           0       12.281481    0.299015    0.376291
     58          6           0       13.468460    0.515091   -0.561484
     59          6           0       14.399153   -0.767057   -0.486665
     60          6           0       14.234464    1.797277   -0.052949
     61          6           0       15.406221    2.249769   -0.903386
     62          6           0       15.924429    3.611476   -0.716736
     63          6           0       17.175756    4.015281   -1.418720
     64          6           0       17.028265    3.972866   -2.939356
     65          6           0       17.573399    5.382096   -0.824221
     66          1           0       -2.442837    1.446110    3.428137
     67          1           0       -6.256789    5.648755    0.906394
     68          1           0       -8.855134    0.962150   -2.993578
     69          1           0       -3.388289   -3.245138    1.920757
     70          1           0       -1.683108   -0.981493    2.561220
     71          1           0       -2.839863   -2.505347    4.539543
     72          1           0       -3.006775   -0.977467    4.693191
     73          1           0       -4.296433   -1.939261    4.068447
     74          1           0       -2.138946   -3.033817   -0.304028
     75          1           0       -1.440170   -1.741384    0.360212
     76          1           0       -0.539774   -2.928302    2.413320
     77          1           0       -1.283722   -4.586501    1.712980
     78          1           0       -1.708085    3.447408    3.816992
     79          1           0       -2.871423    4.800781    4.799978
     80          1           0       -2.799848    3.226826    5.061814
     81          1           0       -5.370644    6.418003    2.144721
     82          1           0      -10.129739    2.842705   -3.325220
     83          1           0      -10.048625    4.625391   -3.195885
     84          1           0       -9.577912    3.882993   -5.349800
     85          1           0       -8.319867    4.752220   -4.568135
     86          1           0       -8.058574    3.007282   -4.976894
     87          1           0       -8.518744   -1.145850   -4.656754
     88          1           0       -8.403173   -2.650551   -3.913741
     89          1           0       -9.614268   -1.325575   -3.261000
     90          1           0       -4.205718   -3.890602   -1.514601
     91          1           0        2.589763   -6.367172    1.123472
     92          1           0        2.135351   -5.445501   -0.461939
     93          1           0        3.775829   -4.263124    1.907502
     94          1           0        2.724637   -3.828761   -1.587673
     95          1           0        3.438008   -1.998981   -1.802707
     96          1           0        4.525790   -3.425069   -1.943465
     97          1           0        4.913702   -1.497230    0.589943
     98          1           0        5.118767   -2.907731    1.868290
     99          1           0        6.718610   -3.741041    0.127606
    100          1           0        6.621025   -2.719965   -0.999766
    101          1           0        7.401738   -0.799851    0.397903
    102          1           0        7.740870   -1.889132    1.590089
    103          1           0        9.085491   -1.604365   -1.113798
    104          1           0        8.990750   -4.289777   -0.672067
    105          1           0       10.541345   -3.395427   -0.586587
    106          1           0        9.972812   -3.886666    1.069666
    107          1           0        9.425106    0.088753    0.631054
    108          1           0       10.638190   -1.036873    1.712173
    109          1           0       11.920503   -1.728257   -0.358552
    110          1           0       10.850234   -0.486932   -1.408419
    111          1           0       11.585871    1.304305    0.496571
    112          1           0       12.700077   -0.029354    1.458216
    113          1           0       13.263078    0.606335   -1.595755
    114          1           0       14.482883   -0.888489    0.521802
    115          1           0       13.695938   -1.700232   -0.861248
    116          1           0       15.225306   -0.778773   -1.108567
    117          1           0       13.531467    2.650549   -0.176362
    118          1           0       14.509356    1.756556    0.985146
    119          1           0       16.258010    1.402096   -0.829617
    120          1           0       15.054431    2.093461   -2.035034
    121          1           0       15.305100    4.337981   -1.013204
    122          1           0       16.056623    3.832774    0.385625
    123          1           0       18.039534    3.227926   -0.954591
    124          1           0       16.084234    4.628497   -3.408092
    125          1           0       17.988522    4.429120   -3.400215
    126          1           0       16.956296    2.958430   -3.303457
    127          1           0       17.885902    5.427777    0.219213
    128          1           0       18.576203    5.750484   -1.186934
    129          1           0       16.829580    6.182856   -1.034723
    130          1           0       -5.047512   -7.876217    0.039328
    131          1           0       -6.421432   -6.793331    0.559843
    132          1           0       -4.662474   -6.715405    1.557784
    133          8           0       -7.863509    6.834416   -0.325375
    134          1           0       -9.177989    6.198724   -1.574644
 ---------------------------------------------------------------------

 SCF Done:  E(RCAM-B3LYP) =  -3043.38506757     A.U. after   15 cycles

 Excitation energies and oscillator strengths:

 Excited State   1:      Singlet-A      2.0087 eV  617.24 nm  f=0.1782  <S**2>=0.000
     243 -> 246       -0.25840
     244 -> 245        0.65023
 This state for optimization and/or second-order correction.
 Total Energy, E(TD-HF/TD-DFT) =  -3043.31124982
 Copying the excited state density for this state as the 1-particle RhoCI density.

 The electronic state is 1-A.
 Alpha  occ. eigenvalues --  -46.81751 -19.21466 -19.21402 -19.17829 -19.17444
 Alpha  occ. eigenvalues --  -19.17117 -19.16483 -19.16284 -14.39565 -14.37028
 Alpha  occ. eigenvalues --  -14.36977 -14.36651 -10.35386 -10.34665 -10.30983
 Alpha  occ. eigenvalues --  -10.29658 -10.28930 -10.28883 -10.28485 -10.28371
 Alpha  occ. eigenvalues --  -10.28064 -10.26636 -10.26536 -10.26506 -10.26432
 Alpha  occ. eigenvalues --  -10.26392 -10.26146 -10.26127 -10.25936 -10.25493
 Alpha  occ. eigenvalues --  -10.25089 -10.25022 -10.25012 -10.24519 -10.24402
 Alpha  occ. eigenvalues --  -10.24357 -10.24282 -10.24119 -10.23815 -10.23426
 Alpha  occ. eigenvalues --  -10.23326 -10.23252 -10.23216 -10.23149 -10.23144
 Alpha  occ. eigenvalues --  -10.23076 -10.23030 -10.23019 -10.22964 -10.22762
 Alpha  occ. eigenvalues --  -10.22745 -10.22319 -10.22274 -10.22228 -10.22197
 Alpha  occ. eigenvalues --  -10.22182 -10.21847 -10.21695 -10.21579 -10.21219
 Alpha  occ. eigenvalues --  -10.20429 -10.20333 -10.20048 -10.19991 -10.19568
 Alpha  occ. eigenvalues --  -10.19082  -3.10334  -1.85274  -1.84804  -1.84739
 Alpha  occ. eigenvalues --   -1.15869  -1.11424  -1.07530  -1.06459  -1.05638
 Alpha  occ. eigenvalues --   -1.04967  -1.03190  -1.01593  -1.00705  -0.99739
 Alpha  occ. eigenvalues --   -0.98666  -0.88937  -0.86764  -0.85934  -0.85756
 Alpha  occ. eigenvalues --   -0.85418  -0.85208  -0.85075  -0.84098  -0.83928
 Alpha  occ. eigenvalues --   -0.83224  -0.82519  -0.81988  -0.80740  -0.80079
 Alpha  occ. eigenvalues --   -0.79161  -0.78491  -0.77910  -0.77736  -0.76646
 Alpha  occ. eigenvalues --   -0.75914  -0.74938  -0.73762  -0.73512  -0.72549
 Alpha  occ. eigenvalues --   -0.70902  -0.70659  -0.70610  -0.70533  -0.70074
 Alpha  occ. eigenvalues --   -0.69945  -0.68744  -0.67978  -0.67228  -0.66956
 Alpha  occ. eigenvalues --   -0.66759  -0.64623  -0.64039  -0.62811  -0.62650
 Alpha  occ. eigenvalues --   -0.61889  -0.61087  -0.59593  -0.58646  -0.58533
 Alpha  occ. eigenvalues --   -0.58419  -0.58222  -0.57701  -0.57531  -0.57130
 Alpha  occ. eigenvalues --   -0.56752  -0.56131  -0.56004  -0.54954  -0.54712
 Alpha  occ. eigenvalues --   -0.54475  -0.54123  -0.53013  -0.52777  -0.52470
 Alpha  occ. eigenvalues --   -0.52224  -0.51782  -0.51272  -0.51164  -0.50670
 Alpha  occ. eigenvalues --   -0.50585  -0.50329  -0.49722  -0.49511  -0.49468
 Alpha  occ. eigenvalues --   -0.49062  -0.48823  -0.48559  -0.48096  -0.47978
 Alpha  occ. eigenvalues --   -0.47829  -0.47525  -0.47198  -0.47121  -0.47049
 Alpha  occ. eigenvalues --   -0.46927  -0.46766  -0.46510  -0.45944  -0.45802
 Alpha  occ. eigenvalues --   -0.45515  -0.45493  -0.45165  -0.44947  -0.44783
 Alpha  occ. eigenvalues --   -0.44567  -0.44203  -0.44096  -0.43952  -0.43522
 Alpha  occ. eigenvalues --   -0.43409  -0.43283  -0.43053  -0.42916  -0.42684
 Alpha  occ. eigenvalues --   -0.42448  -0.42316  -0.42199  -0.42127  -0.42016
 Alpha  occ. eigenvalues --   -0.41766  -0.41380  -0.41280  -0.40934  -0.40911
 Alpha  occ. eigenvalues --   -0.40786  -0.40605  -0.40458  -0.40198  -0.40080
 Alpha  occ. eigenvalues --   -0.39931  -0.39812  -0.39472  -0.39171  -0.38833
 Alpha  occ. eigenvalues --   -0.38553  -0.38461  -0.38293  -0.37986  -0.37782
 Alpha  occ. eigenvalues --   -0.37538  -0.37340  -0.37317  -0.37043  -0.36966
 Alpha  occ. eigenvalues --   -0.36753  -0.36512  -0.36157  -0.35578  -0.35461
 Alpha  occ. eigenvalues --   -0.35395  -0.35332  -0.35261  -0.34401  -0.34334
 Alpha  occ. eigenvalues --   -0.33946  -0.33828  -0.33656  -0.33519  -0.33096
 Alpha  occ. eigenvalues --   -0.32765  -0.32549  -0.32341  -0.32282  -0.31784
 Alpha  occ. eigenvalues --   -0.31781  -0.31609  -0.30543  -0.30081  -0.29794
 Alpha  occ. eigenvalues --   -0.28963  -0.27740  -0.27495  -0.27437  -0.27317
 Alpha  occ. eigenvalues --   -0.27226  -0.26261  -0.23519  -0.21894
 Alpha virt. eigenvalues --   -0.09060  -0.07094  -0.02415  -0.00897   0.00355
 Alpha virt. eigenvalues --    0.01983   0.02854   0.03393   0.03816   0.04385
 Alpha virt. eigenvalues --    0.04744   0.05750   0.07552   0.07829   0.08830

 Mulliken charges:
               1
     1  Mg   0.824977
     2  C    0.079278
     3  C   -0.184138
     4  C   -0.144811
     5  C   -0.183559
     6  N   -0.625045
     7  C    0.308426
     8  C   -0.149453
     9  C   -0.148147
    10  C    0.309144
    11  C   -0.306215
    12  C   -0.173668
    13  C   -0.256077
    14  C    0.618520
    15  O   -0.474054
    16  O   -0.481503
    17  N   -0.715457
    18  C    0.354394
    19  C    0.028767
    20  C   -0.050946
    21  C    0.301459
    22  C   -0.393112
    23  C    0.275436
    24  O   -0.437871
    25  N   -0.698020
    26  C    0.330703
    27  C   -0.045625
    28  C    0.050575
    29  C    0.281178
    30  C    0.243059
    31  C   -0.258633
    32  C   -0.267370
    33  N   -0.781991
    34  C    0.267714
    35  C    0.082429
    36  C   -0.039102
    37  C    0.361298
    38  C   -0.376206
    39  C    0.339194
    40  O   -0.483577
    41  C   -0.303844
    42  C    0.611269
    43  O   -0.431279
    44  O   -0.434819
    45  C   -0.074842
    46  C   -0.005368
    47  C   -0.114314
    48  C    0.169155
    49  C   -0.363777
    50  C   -0.224418
    51  C   -0.189374
    52  C   -0.161397
    53  C   -0.058047
    54  C   -0.301245
    55  C   -0.164250
    56  C   -0.173282
    57  C   -0.157439
    58  C   -0.060769
    59  C   -0.302024
    60  C   -0.163676
    61  C   -0.170587
    62  C   -0.130462
    63  C   -0.038759
    64  C   -0.300294
    65  C   -0.320732
    66  H    0.081372
    67  H    0.140631
    68  H    0.077389
    69  H    0.108511
    70  H    0.102117
    71  H    0.074857
    72  H    0.130846
    73  H    0.142187
    74  H    0.125411
    75  H    0.109577
    76  H    0.132987
    77  H    0.149599
    78  H    0.099423
    79  H    0.157782
    80  H    0.137106
    81  H    0.073175
    82  H    0.114112
    83  H    0.107387
    84  H    0.100585
    85  H    0.125407
    86  H    0.084393
    87  H    0.136433
    88  H    0.160272
    89  H    0.125633
    90  H    0.166570
    91  H    0.099605
    92  H    0.112904
    93  H    0.069146
    94  H    0.116739
    95  H    0.082026
    96  H    0.119610
    97  H    0.113743
    98  H    0.085500
    99  H    0.110457
   100  H    0.090818
   101  H    0.094769
   102  H    0.104296
   103  H    0.092684
   104  H    0.058302
   105  H    0.113460
   106  H    0.093116
   107  H    0.081742
   108  H    0.068203
   109  H    0.089308
   110  H    0.063583
   111  H    0.072616
   112  H    0.082366
   113  H    0.093878
   114  H    0.110933
   115  H    0.066645
   116  H    0.114834
   117  H    0.086134
   118  H    0.089313
   119  H    0.062123
   120  H    0.063285
   121  H    0.097165
   122  H    0.077093
   123  H    0.050674
   124  H    0.077002
   125  H    0.096285
   126  H    0.120705
   127  H    0.107982
   128  H    0.087259
   129  H    0.099275
   130  H    0.130394
   131  H    0.128417
   132  H    0.101192
   133  O   -0.426367
   134  H    0.069628
 Sum of Mulliken charges =  -0.00000

 Dipole moment (field-independent basis, Debye):
    X=              1.1724    Y=             -4.1234    Z=             -1.5871  Tot=              4.5712
 Quadrupole moment (field-independent basis, Debye-Ang):
   XX=           -370.1356   YY=           -447.8648   ZZ=           -392.0082
   XY=             12.5530   XZ=             28.9838   YZ=            -36.1167

 Normal termination of Gaussian 16 at Thu Oct 10 10:01:55 2019.
