 Gaussian 16, Revision A.03,
 Gaussian 16:  ES64L-G16RevA.03 25-Dec-2016

 ----------------------------------------------------------------------
 # td=(NStates=1) iop(3/107=0140000000,3/108=0140000000) iop(3/107=0140
 000000,3/108=0140000000) CAM-B3LYP/6-31G(d,p)
 ----------------------------------------------------------------------

 --
 TD
 --
 Symbolic Z-matrix:
 Charge =  0 Multiplicity = 1

                         Standard orientation:
 ---------------------------------------------------------------------
 Center     Atomic      Atomic             Coordinates (Angstroms)
 Number     Number       Type             X           Y           Z
 ---------------------------------------------------------------------
      1         12           0       -5.663578    1.258225    0.232006
      2          6           0       -5.039608   -2.187732   -0.196266
      3          6           0       -3.359491    1.290572    2.750252
      4          6           0       -6.346148    4.636663    0.662080
      5          6           0       -7.943321    1.169631   -2.428856
      6          7           0       -4.355398   -0.284047    1.050787
      7          6           0       -4.274481   -1.646192    0.724967
      8          6           0       -3.217195   -2.313738    1.617609
      9          6           0       -3.006420   -1.309312    2.719362
     10          6           0       -3.651250    0.013358    2.118928
     11          6           0       -3.632447   -1.719166    4.125309
     12          6           0       -1.986818   -2.548393    0.629588
     13          6           0       -1.004110   -3.456884    1.457814
     14          6           0        0.236587   -3.812251    0.639107
     15          8           0        0.475062   -3.288353   -0.431727
     16          8           0        1.014473   -4.610289    1.326773
     17          7           0       -4.965742    2.635589    1.504174
     18          6           0       -3.976685    2.388229    2.481903
     19          6           0       -3.628127    3.726062    3.056597
     20          6           0       -4.582177    4.604844    2.481592
     21          6           0       -5.244138    4.004932    1.440984
     22          6           0       -2.619349    3.900220    4.137850
     23          6           0       -4.528711    6.057494    2.792426
     24          8           0       -3.918570    6.659995    3.655307
     25          7           0       -6.875014    2.589212   -0.743879
     26          6           0       -6.982733    3.949413   -0.411951
     27          6           0       -7.959351    4.549467   -1.186462
     28          6           0       -8.439824    3.596207   -2.180858
     29          6           0       -7.766826    2.439609   -1.805381
     30          6           0       -8.335717    5.955072   -1.090962
     31          6           0       -9.441486    3.864166   -3.254633
     32          6           0       -8.615684    3.766177   -4.646062
     33          7           0       -6.469633   -0.128240   -1.035135
     34          6           0       -7.355900    0.005953   -2.023050
     35          6           0       -7.623775   -1.379980   -2.704692
     36          6           0       -6.771012   -2.188821   -2.033622
     37          6           0       -6.055884   -1.458778   -1.008738
     38          6           0       -8.494187   -1.731495   -3.747002
     39          6           0       -6.240123   -3.585839   -1.948348
     40          8           0       -6.587640   -4.602379   -2.577007
     41          6           0       -5.058582   -3.575410   -0.889531
     42          6           0       -5.340201   -4.662317    0.153025
     43          8           0       -5.903794   -4.457698    1.237859
     44          8           0       -5.020693   -5.949378   -0.343543
     45          6           0       -5.335205   -7.021866    0.517088
     46          6           0        2.273873   -5.010652    0.584098
     47          6           0        3.377693   -3.975373    0.954936
     48          6           0        3.974713   -3.187235    0.168082
     49          6           0        3.562590   -3.043770   -1.257705
     50          6           0        5.156576   -2.366999    0.668771
     51          6           0        6.605574   -2.706175    0.016438
     52          6           0        7.710377   -1.826566    0.565696
     53          6           0        9.135137   -2.042127   -0.103683
     54          6           0        9.629369   -3.470672    0.148004
     55          6           0       10.007278   -0.895055    0.348638
     56          6           0       11.379449   -1.008744   -0.242914
     57          6           0       12.290023    0.178035    0.072015
     58          6           0       13.681463    0.361525   -0.626545
     59          6           0       14.480134   -0.962216   -0.421922
     60          6           0       14.353064    1.705305   -0.223147
     61          6           0       15.491571    2.083817   -1.068947
     62          6           0       16.023098    3.524277   -0.673045
     63          6           0       17.358098    3.888174   -1.283718
     64          6           0       17.323405    4.148226   -2.785639
     65          6           0       17.917018    5.183802   -0.626807
     66          1           0       -2.566204    1.187377    3.474035
     67          1           0       -6.653176    5.607814    0.855923
     68          1           0       -8.673566    1.117477   -3.160455
     69          1           0       -3.674077   -3.205645    1.984397
     70          1           0       -1.928356   -1.055990    2.905884
     71          1           0       -3.124164   -2.551388    4.486202
     72          1           0       -3.191022   -0.963251    4.779965
     73          1           0       -4.610206   -1.778352    4.098313
     74          1           0       -2.476877   -3.083253   -0.317618
     75          1           0       -1.696944   -1.748965    0.262148
     76          1           0       -0.657170   -2.805735    2.401353
     77          1           0       -1.598007   -4.338822    1.836083
     78          1           0       -1.626547    3.619520    3.900992
     79          1           0       -2.586174    4.978587    4.369766
     80          1           0       -2.760438    3.461854    5.135845
     81          1           0       -5.465363    6.768767    2.275847
     82          1           0      -10.174268    2.939708   -3.513929
     83          1           0      -10.036894    4.738089   -3.229635
     84          1           0       -9.202004    4.122598   -5.540883
     85          1           0       -7.577264    4.326201   -4.669757
     86          1           0       -8.192503    2.514930   -4.578870
     87          1           0       -8.274574   -1.142484   -4.737840
     88          1           0       -8.158449   -2.592286   -4.502218
     89          1           0       -9.461635   -1.730545   -3.423129
     90          1           0       -4.028528   -3.751243   -1.398702
     91          1           0        2.418864   -6.126594    1.225461
     92          1           0        2.074886   -5.201045   -0.583426
     93          1           0        3.657174   -3.987091    2.063822
     94          1           0        2.596117   -3.013863   -1.353593
     95          1           0        3.829436   -1.928995   -1.373574
     96          1           0        4.222703   -3.633584   -1.908123
     97          1           0        4.928080   -1.211957    0.696799
     98          1           0        5.327360   -2.556267    1.840494
     99          1           0        6.833684   -3.705533    0.153870
    100          1           0        6.496452   -2.619072   -0.958925
    101          1           0        7.438347   -0.615234    0.387349
    102          1           0        7.656554   -1.943623    1.533035
    103          1           0        8.823507   -1.953812   -1.069186
    104          1           0        8.926675   -4.276060   -0.133259
    105          1           0       10.605051   -3.752021   -0.430186
    106          1           0        9.631995   -3.359782    1.248799
    107          1           0        9.547816    0.109094    0.054329
    108          1           0        9.975908   -0.687012    1.474701
    109          1           0       11.922524   -1.955844    0.322871
    110          1           0       11.256101   -1.379722   -1.304743
    111          1           0       11.632484    1.157410   -0.283855
    112          1           0       12.343592    0.509570    1.274894
    113          1           0       13.436744    0.400586   -1.663679
    114          1           0       14.589781   -1.002609    0.731221
    115          1           0       14.075482   -1.776212   -0.983280
    116          1           0       15.445064   -0.914714   -0.984372
    117          1           0       13.512981    2.427208   -0.334433
    118          1           0       14.539407    1.700835    0.814593
    119          1           0       16.491395    1.572764   -0.888504
    120          1           0       15.658643    2.007820   -2.160578
    121          1           0       15.224731    4.151857   -1.102216
    122          1           0       16.134029    3.645073    0.511231
    123          1           0       18.045176    3.118670   -1.286645
    124          1           0       16.452361    4.652312   -3.023958
    125          1           0       18.145659    4.879914   -3.106461
    126          1           0       17.226511    3.074929   -3.207374
    127          1           0       18.056925    4.928677    0.468178
    128          1           0       18.831758    5.313498   -0.987369
    129          1           0       17.113150    6.272719   -0.763865
    130          1           0       -4.955451   -8.035417   -0.100184
    131          1           0       -6.355341   -6.969681    0.860539
    132          1           0       -4.665006   -6.889020    1.372581
    133          8           0       -8.014871    6.803627   -0.377077
    134          1           0       -9.143922    6.321536   -1.853101
 ---------------------------------------------------------------------

 SCF Done:  E(RCAM-B3LYP) =  -3043.36185476     A.U. after   16 cycles

 Excitation energies and oscillator strengths:

 Excited State   1:      Singlet-A      2.0138 eV  615.69 nm  f=0.2142  <S**2>=0.000
     243 -> 246       -0.21444
     244 -> 245        0.66680
 This state for optimization and/or second-order correction.
 Total Energy, E(TD-HF/TD-DFT) =  -3043.28785064
 Copying the excited state density for this state as the 1-particle RhoCI density.

 The electronic state is 1-A.
 Alpha  occ. eigenvalues --  -46.81048 -19.23278 -19.22602 -19.18775 -19.18006
 Alpha  occ. eigenvalues --  -19.17271 -19.17113 -19.16466 -14.39337 -14.37486
 Alpha  occ. eigenvalues --  -14.36279 -14.36117 -10.36535 -10.34924 -10.32883
 Alpha  occ. eigenvalues --  -10.31395 -10.31157 -10.29293 -10.28540 -10.28176
 Alpha  occ. eigenvalues --  -10.27357 -10.27221 -10.27112 -10.26761 -10.26555
 Alpha  occ. eigenvalues --  -10.26014 -10.25576 -10.25426 -10.25389 -10.25384
 Alpha  occ. eigenvalues --  -10.25086 -10.25054 -10.24935 -10.24915 -10.24847
 Alpha  occ. eigenvalues --  -10.24556 -10.23841 -10.23812 -10.23771 -10.23563
 Alpha  occ. eigenvalues --  -10.23350 -10.23294 -10.23203 -10.23138 -10.23066
 Alpha  occ. eigenvalues --  -10.22720 -10.22541 -10.22290 -10.21921 -10.21691
 Alpha  occ. eigenvalues --  -10.21590 -10.21549 -10.21536 -10.21441 -10.21289
 Alpha  occ. eigenvalues --  -10.21276 -10.21249 -10.21227 -10.21100 -10.21079
 Alpha  occ. eigenvalues --  -10.20957 -10.20570 -10.20521 -10.20252 -10.20217
 Alpha  occ. eigenvalues --  -10.20006  -3.09637  -1.84576  -1.84110  -1.84043
 Alpha  occ. eigenvalues --   -1.14111  -1.12179  -1.09968  -1.06596  -1.06090
 Alpha  occ. eigenvalues --   -1.04940  -1.04897  -1.00782  -0.99808  -0.98349
 Alpha  occ. eigenvalues --   -0.97599  -0.88648  -0.86683  -0.85796  -0.85611
 Alpha  occ. eigenvalues --   -0.85299  -0.85031  -0.84589  -0.84066  -0.83192
 Alpha  occ. eigenvalues --   -0.83115  -0.82262  -0.81310  -0.80579  -0.79813
 Alpha  occ. eigenvalues --   -0.79235  -0.78093  -0.77067  -0.76784  -0.76708
 Alpha  occ. eigenvalues --   -0.75469  -0.75405  -0.74237  -0.72805  -0.72186
 Alpha  occ. eigenvalues --   -0.71840  -0.70577  -0.70388  -0.70194  -0.69364
 Alpha  occ. eigenvalues --   -0.69087  -0.68845  -0.67183  -0.66244  -0.65230
 Alpha  occ. eigenvalues --   -0.64932  -0.64646  -0.64014  -0.63111  -0.62422
 Alpha  occ. eigenvalues --   -0.61909  -0.61283  -0.61231  -0.59650  -0.59010
 Alpha  occ. eigenvalues --   -0.58912  -0.58501  -0.58082  -0.57537  -0.56672
 Alpha  occ. eigenvalues --   -0.56157  -0.55780  -0.55120  -0.54800  -0.54462
 Alpha  occ. eigenvalues --   -0.53904  -0.53556  -0.52890  -0.52334  -0.52123
 Alpha  occ. eigenvalues --   -0.51575  -0.51481  -0.51033  -0.50879  -0.50848
 Alpha  occ. eigenvalues --   -0.50574  -0.49973  -0.49823  -0.49520  -0.49412
 Alpha  occ. eigenvalues --   -0.48878  -0.48544  -0.48462  -0.48265  -0.48139
 Alpha  occ. eigenvalues --   -0.47940  -0.47313  -0.47231  -0.46969  -0.46955
 Alpha  occ. eigenvalues --   -0.46880  -0.46495  -0.46388  -0.46146  -0.46064
 Alpha  occ. eigenvalues --   -0.45992  -0.45907  -0.45613  -0.45450  -0.45066
 Alpha  occ. eigenvalues --   -0.44857  -0.44754  -0.44270  -0.44084  -0.43810
 Alpha  occ. eigenvalues --   -0.43649  -0.43515  -0.43355  -0.43170  -0.42963
 Alpha  occ. eigenvalues --   -0.42742  -0.42430  -0.42359  -0.42155  -0.41829
 Alpha  occ. eigenvalues --   -0.41639  -0.41383  -0.41109  -0.40898  -0.40850
 Alpha  occ. eigenvalues --   -0.40592  -0.40434  -0.40271  -0.40034  -0.40016
 Alpha  occ. eigenvalues --   -0.39816  -0.39599  -0.39496  -0.39469  -0.39294
 Alpha  occ. eigenvalues --   -0.38983  -0.38703  -0.38619  -0.38527  -0.38251
 Alpha  occ. eigenvalues --   -0.38104  -0.37858  -0.37406  -0.36937  -0.36858
 Alpha  occ. eigenvalues --   -0.36541  -0.36432  -0.36367  -0.35895  -0.35619
 Alpha  occ. eigenvalues --   -0.35531  -0.34989  -0.34764  -0.34549  -0.34529
 Alpha  occ. eigenvalues --   -0.34366  -0.34018  -0.33506  -0.33265  -0.33151
 Alpha  occ. eigenvalues --   -0.32974  -0.32489  -0.32090  -0.31861  -0.31692
 Alpha  occ. eigenvalues --   -0.31462  -0.30967  -0.30940  -0.30809  -0.30099
 Alpha  occ. eigenvalues --   -0.29226  -0.28675  -0.28602  -0.27709  -0.26833
 Alpha  occ. eigenvalues --   -0.26672  -0.26476  -0.23874  -0.20879
 Alpha virt. eigenvalues --   -0.08254  -0.06898  -0.02380  -0.00258   0.00716
 Alpha virt. eigenvalues --    0.01843   0.03383   0.03830   0.04182   0.04312
 Alpha virt. eigenvalues --    0.04844   0.05840   0.07080   0.07929   0.08949

 Mulliken charges:
               1
     1  Mg   0.820644
     2  C    0.117404
     3  C   -0.185227
     4  C   -0.151303
     5  C   -0.138703
     6  N   -0.620213
     7  C    0.244106
     8  C   -0.139835
     9  C   -0.170044
    10  C    0.338745
    11  C   -0.300588
    12  C   -0.124156
    13  C   -0.269554
    14  C    0.612822
    15  O   -0.474572
    16  O   -0.440985
    17  N   -0.739179
    18  C    0.378684
    19  C    0.035441
    20  C   -0.036783
    21  C    0.296588
    22  C   -0.415240
    23  C    0.245825
    24  O   -0.402276
    25  N   -0.708446
    26  C    0.322743
    27  C   -0.075093
    28  C    0.096094
    29  C    0.274171
    30  C    0.243031
    31  C   -0.253352
    32  C   -0.294294
    33  N   -0.705602
    34  C    0.290613
    35  C    0.026639
    36  C    0.072268
    37  C    0.227548
    38  C   -0.409992
    39  C    0.383680
    40  O   -0.458166
    41  C   -0.330793
    42  C    0.625629
    43  O   -0.466855
    44  O   -0.453176
    45  C   -0.075149
    46  C   -0.023484
    47  C   -0.114960
    48  C    0.158671
    49  C   -0.365425
    50  C   -0.244760
    51  C   -0.180349
    52  C   -0.173407
    53  C   -0.061344
    54  C   -0.306449
    55  C   -0.161541
    56  C   -0.158645
    57  C   -0.164620
    58  C   -0.063263
    59  C   -0.304231
    60  C   -0.158865
    61  C   -0.193341
    62  C   -0.152724
    63  C   -0.071077
    64  C   -0.304763
    65  C   -0.279784
    66  H    0.092249
    67  H    0.133396
    68  H    0.086796
    69  H    0.119153
    70  H    0.093169
    71  H    0.122349
    72  H    0.107630
    73  H    0.136788
    74  H    0.082911
    75  H    0.123222
    76  H    0.121631
    77  H    0.129325
    78  H    0.126929
    79  H    0.158748
    80  H    0.129828
    81  H    0.035093
    82  H    0.104838
    83  H    0.130217
    84  H    0.112717
    85  H    0.110647
    86  H    0.063588
    87  H    0.114392
    88  H    0.135274
    89  H    0.150147
    90  H    0.164069
    91  H    0.093215
    92  H    0.136875
    93  H    0.080316
    94  H    0.156752
    95  H    0.094159
    96  H    0.120450
    97  H    0.091407
    98  H    0.071866
    99  H    0.106245
   100  H    0.106305
   101  H    0.050960
   102  H    0.100657
   103  H    0.097219
   104  H    0.101780
   105  H    0.096397
   106  H    0.107186
   107  H    0.087097
   108  H    0.084195
   109  H    0.076681
   110  H    0.093578
   111  H    0.049092
   112  H    0.060341
   113  H    0.089410
   114  H    0.094560
   115  H    0.111284
   116  H    0.090584
   117  H    0.095306
   118  H    0.103219
   119  H    0.082896
   120  H    0.095679
   121  H    0.092857
   122  H    0.070029
   123  H    0.097909
   124  H    0.111534
   125  H    0.095589
   126  H    0.081621
   127  H    0.089126
   128  H    0.112165
   129  H    0.054095
   130  H    0.108823
   131  H    0.141920
   132  H    0.117598
   133  O   -0.384802
   134  H    0.011985
 Sum of Mulliken charges =  -0.00000

 Dipole moment (field-independent basis, Debye):
    X=              3.5974    Y=             -6.5882    Z=             -1.2720  Tot=              7.6134
 Quadrupole moment (field-independent basis, Debye-Ang):
   XX=           -386.3996   YY=           -448.8098   ZZ=           -388.6563
   XY=             12.8186   XZ=             18.4922   YZ=            -30.1541

 Normal termination of Gaussian 16 at Wed Oct  9 18:36:12 2019.
