 Gaussian 16, Revision A.03,
 Gaussian 16:  ES64L-G16RevA.03 25-Dec-2016

 ----------------------------------------------------------------------
 # td=(NStates=1) iop(3/107=0140000000,3/108=0140000000) iop(3/107=0140
 000000,3/108=0140000000) CAM-B3LYP/6-31G(d,p)
 ----------------------------------------------------------------------

 --
 TD
 --
 Symbolic Z-matrix:
 Charge =  0 Multiplicity = 1

                         Standard orientation:
 ---------------------------------------------------------------------
 Center     Atomic      Atomic             Coordinates (Angstroms)
 Number     Number       Type             X           Y           Z
 ---------------------------------------------------------------------
      1         12           0       -5.549162    1.280280    0.174247
      2          6           0       -4.967254   -2.180009   -0.427996
      3          6           0       -3.266205    1.198335    2.708732
      4          6           0       -6.043343    4.557562    0.647958
      5          6           0       -7.998822    1.174030   -2.333763
      6          7           0       -4.398231   -0.335195    1.018033
      7          6           0       -4.304971   -1.580313    0.672691
      8          6           0       -3.255905   -2.243645    1.518157
      9          6           0       -2.904655   -1.265788    2.629037
     10          6           0       -3.617863    0.064452    2.048279
     11          6           0       -3.424533   -1.711298    4.117391
     12          6           0       -1.948683   -2.729505    0.677335
     13          6           0       -0.987786   -3.557728    1.386370
     14          6           0        0.159305   -3.986438    0.567377
     15          8           0        0.537900   -3.455591   -0.525186
     16          8           0        0.926172   -4.812184    1.254925
     17          7           0       -4.866256    2.670371    1.431116
     18          6           0       -3.892240    2.421296    2.467636
     19          6           0       -3.677513    3.720684    3.149612
     20          6           0       -4.485264    4.653014    2.560142
     21          6           0       -5.089268    3.977169    1.397320
     22          6           0       -2.703659    3.868784    4.320307
     23          6           0       -4.434876    6.118515    2.846617
     24          8           0       -3.976198    6.597188    3.871254
     25          7           0       -6.730402    2.588019   -0.763826
     26          6           0       -6.861762    4.003135   -0.388068
     27          6           0       -7.888650    4.647288   -1.184735
     28          6           0       -8.428398    3.683763   -2.079263
     29          6           0       -7.731423    2.468757   -1.782003
     30          6           0       -8.204850    5.956608   -1.079243
     31          6           0       -9.380225    3.889279   -3.114159
     32          6           0       -8.709245    4.201753   -4.499028
     33          7           0       -6.364235   -0.196262   -1.103470
     34          6           0       -7.331826   -0.039035   -2.050114
     35          6           0       -7.548292   -1.305070   -2.684415
     36          6           0       -6.761712   -2.181860   -1.974095
     37          6           0       -5.904242   -1.444547   -1.141915
     38          6           0       -8.592104   -1.641086   -3.772148
     39          6           0       -6.280183   -3.519138   -1.995734
     40          8           0       -6.485269   -4.511681   -2.655660
     41          6           0       -5.013478   -3.518840   -0.897444
     42          6           0       -5.312202   -4.611850    0.174108
     43          8           0       -5.718413   -4.464998    1.284182
     44          8           0       -4.955601   -5.802518   -0.382559
     45          6           0       -5.182816   -6.954145    0.419621
     46          6           0        2.182103   -5.220734    0.661464
     47          6           0        3.218972   -4.251540    0.908663
     48          6           0        3.981907   -3.425493    0.161754
     49          6           0        3.809018   -3.326842   -1.317514
     50          6           0        5.183856   -2.711972    0.762258
     51          6           0        6.479733   -2.731522    0.050819
     52          6           0        7.544956   -1.879103    0.728540
     53          6           0        8.873654   -1.987074   -0.092642
     54          6           0        9.532381   -3.403898    0.084096
     55          6           0        9.871138   -0.953917    0.412593
     56          6           0       11.252902   -0.924606   -0.264239
     57          6           0       12.172731    0.237300    0.148445
     58          6           0       13.437143    0.429373   -0.599094
     59          6           0       14.433045   -0.778325   -0.179446
     60          6           0       14.116532    1.821322   -0.202953
     61          6           0       15.294365    2.212823   -0.998104
     62          6           0       15.934568    3.591033   -0.612849
     63          6           0       17.240117    3.951460   -1.365438
     64          6           0       17.008851    4.231141   -2.930235
     65          6           0       17.645372    5.332842   -0.855702
     66          1           0       -2.497434    1.236012    3.506577
     67          1           0       -6.429923    5.635179    0.692994
     68          1           0       -8.869407    1.146257   -3.105433
     69          1           0       -3.822252   -3.081564    1.776085
     70          1           0       -1.728463   -1.290219    2.634027
     71          1           0       -2.627060   -2.477791    4.365670
     72          1           0       -3.609344   -0.807597    4.639067
     73          1           0       -4.473023   -2.073598    4.001221
     74          1           0       -2.370489   -2.997070   -0.244119
     75          1           0       -1.219263   -1.796855    0.430028
     76          1           0       -0.209048   -3.108713    2.263909
     77          1           0       -1.525234   -4.474945    1.901754
     78          1           0       -1.740962    3.364418    4.085212
     79          1           0       -2.393351    4.884682    4.754288
     80          1           0       -3.087938    3.284930    5.144945
     81          1           0       -5.008749    6.733480    2.076507
     82          1           0      -10.100615    2.952491   -3.141755
     83          1           0      -10.219196    4.597043   -2.832729
     84          1           0       -9.625175    4.523770   -5.182595
     85          1           0       -7.770887    4.898792   -4.304755
     86          1           0       -8.274793    3.244565   -4.683557
     87          1           0       -8.456449   -1.220881   -4.828634
     88          1           0       -8.497901   -2.649874   -3.738254
     89          1           0       -9.506905   -1.387606   -3.425538
     90          1           0       -3.972041   -3.722671   -1.500540
     91          1           0        2.282086   -6.127548    1.139305
     92          1           0        2.096929   -5.320278   -0.398173
     93          1           0        3.449547   -4.098548    1.909058
     94          1           0        2.992968   -3.859924   -1.750739
     95          1           0        3.755197   -2.234426   -1.904797
     96          1           0        4.703581   -4.011002   -1.698641
     97          1           0        4.806604   -1.666577    0.778564
     98          1           0        5.315336   -3.059798    1.766109
     99          1           0        6.773546   -3.896162    0.011806
    100          1           0        6.253229   -2.533257   -1.154306
    101          1           0        7.176903   -0.761146    0.503561
    102          1           0        7.726707   -2.015361    1.666313
    103          1           0        8.732323   -1.752774   -1.123382
    104          1           0        9.127512   -4.410649   -0.037854
    105          1           0       10.346332   -3.438975   -0.819232
    106          1           0       10.121935   -3.533705    1.158626
    107          1           0        9.425276   -0.013379    0.280658
    108          1           0       10.031541   -1.104100    1.446682
    109          1           0       11.769408   -1.861192   -0.106805
    110          1           0       10.875194   -0.829144   -1.140269
    111          1           0       11.577896    0.979532   -0.200189
    112          1           0       12.185997    0.167805    1.122687
    113          1           0       13.329803    0.377085   -1.610835
    114          1           0       14.394974   -0.985837    0.971778
    115          1           0       13.844847   -1.709758   -0.533811
    116          1           0       15.421280   -0.718290   -0.718591
    117          1           0       13.538692    2.734991   -0.292871
    118          1           0       14.290472    1.797344    0.951429
    119          1           0       16.152044    1.442317   -0.768881
    120          1           0       15.081070    2.290320   -2.037464
    121          1           0       15.149447    4.436279   -0.544903
    122          1           0       16.096656    3.533735    0.529001
    123          1           0       18.184252    3.430043   -1.179812
    124          1           0       16.269108    4.982516   -3.060763
    125          1           0       18.059443    4.305368   -3.583692
    126          1           0       16.451701    3.375161   -3.561228
    127          1           0       18.304107    5.283115    0.150214
    128          1           0       18.571241    5.655943   -1.375325
    129          1           0       16.813459    6.175762   -0.934137
    130          1           0       -4.571578   -7.825394   -0.169223
    131          1           0       -6.318165   -7.072347    0.533229
    132          1           0       -4.840102   -6.896096    1.500666
    133          8           0       -7.719144    6.779826   -0.332707
    134          1           0       -8.915064    6.185508   -1.705959
 ---------------------------------------------------------------------

 SCF Done:  E(RCAM-B3LYP) =  -3043.40795679     A.U. after   15 cycles

 Excitation energies and oscillator strengths:

 Excited State   1:      Singlet-A      2.0530 eV  603.90 nm  f=0.1167  <S**2>=0.000
     243 -> 245       -0.13832
     243 -> 246       -0.32871
     244 -> 245        0.59083
     244 -> 246       -0.12044
 This state for optimization and/or second-order correction.
 Total Energy, E(TD-HF/TD-DFT) =  -3043.33250890
 Copying the excited state density for this state as the 1-particle RhoCI density.

 The electronic state is 1-A.
 Alpha  occ. eigenvalues --  -46.81244 -19.22533 -19.22197 -19.18295 -19.17470
 Alpha  occ. eigenvalues --  -19.17305 -19.16191 -19.15917 -14.39233 -14.37347
 Alpha  occ. eigenvalues --  -14.37241 -14.35871 -10.35499 -10.34609 -10.31529
 Alpha  occ. eigenvalues --  -10.30676 -10.28886 -10.28169 -10.27684 -10.27453
 Alpha  occ. eigenvalues --  -10.27405 -10.26747 -10.26740 -10.26478 -10.26112
 Alpha  occ. eigenvalues --  -10.26030 -10.25818 -10.25788 -10.25211 -10.25184
 Alpha  occ. eigenvalues --  -10.25114 -10.25102 -10.25055 -10.24674 -10.24464
 Alpha  occ. eigenvalues --  -10.24414 -10.23957 -10.23591 -10.23469 -10.23293
 Alpha  occ. eigenvalues --  -10.23190 -10.23102 -10.22941 -10.22890 -10.22676
 Alpha  occ. eigenvalues --  -10.22674 -10.22607 -10.22479 -10.22466 -10.22448
 Alpha  occ. eigenvalues --  -10.22306 -10.22274 -10.22010 -10.21838 -10.21784
 Alpha  occ. eigenvalues --  -10.21602 -10.21559 -10.21474 -10.21311 -10.21298
 Alpha  occ. eigenvalues --  -10.20612 -10.20500 -10.19932 -10.19436 -10.18364
 Alpha  occ. eigenvalues --  -10.17934  -3.09876  -1.84813  -1.84357  -1.84279
 Alpha  occ. eigenvalues --   -1.14121  -1.13526  -1.07457  -1.06832  -1.06494
 Alpha  occ. eigenvalues --   -1.06321  -1.02060  -1.01675  -1.00775  -0.99537
 Alpha  occ. eigenvalues --   -0.96310  -0.89385  -0.86761  -0.86202  -0.86004
 Alpha  occ. eigenvalues --   -0.85368  -0.85254  -0.84223  -0.83767  -0.83411
 Alpha  occ. eigenvalues --   -0.83027  -0.82900  -0.81934  -0.80500  -0.79928
 Alpha  occ. eigenvalues --   -0.79401  -0.78904  -0.77747  -0.77123  -0.76751
 Alpha  occ. eigenvalues --   -0.75257  -0.74897  -0.74116  -0.73211  -0.72103
 Alpha  occ. eigenvalues --   -0.71180  -0.70547  -0.70145  -0.69827  -0.69639
 Alpha  occ. eigenvalues --   -0.69073  -0.68893  -0.67877  -0.66811  -0.66657
 Alpha  occ. eigenvalues --   -0.66022  -0.65048  -0.64376  -0.62637  -0.62351
 Alpha  occ. eigenvalues --   -0.61714  -0.60837  -0.60398  -0.60047  -0.59203
 Alpha  occ. eigenvalues --   -0.58809  -0.58746  -0.58683  -0.58421  -0.56742
 Alpha  occ. eigenvalues --   -0.56332  -0.55984  -0.55832  -0.54813  -0.54353
 Alpha  occ. eigenvalues --   -0.54216  -0.53535  -0.53015  -0.52529  -0.52411
 Alpha  occ. eigenvalues --   -0.52303  -0.52039  -0.51409  -0.51013  -0.50546
 Alpha  occ. eigenvalues --   -0.50518  -0.50157  -0.49738  -0.49579  -0.49029
 Alpha  occ. eigenvalues --   -0.48791  -0.48730  -0.48596  -0.47860  -0.47725
 Alpha  occ. eigenvalues --   -0.47673  -0.47246  -0.47115  -0.46875  -0.46604
 Alpha  occ. eigenvalues --   -0.46485  -0.46291  -0.46218  -0.46031  -0.45634
 Alpha  occ. eigenvalues --   -0.45509  -0.45425  -0.45309  -0.45115  -0.44702
 Alpha  occ. eigenvalues --   -0.44382  -0.44275  -0.44246  -0.44083  -0.43493
 Alpha  occ. eigenvalues --   -0.43409  -0.43260  -0.43178  -0.43025  -0.42844
 Alpha  occ. eigenvalues --   -0.42731  -0.42554  -0.42131  -0.42117  -0.41805
 Alpha  occ. eigenvalues --   -0.41572  -0.41353  -0.41328  -0.41220  -0.41061
 Alpha  occ. eigenvalues --   -0.40850  -0.40757  -0.40280  -0.40078  -0.39856
 Alpha  occ. eigenvalues --   -0.39663  -0.39605  -0.39381  -0.39178  -0.38827
 Alpha  occ. eigenvalues --   -0.38695  -0.38281  -0.38107  -0.37936  -0.37884
 Alpha  occ. eigenvalues --   -0.37557  -0.37444  -0.37225  -0.37036  -0.36762
 Alpha  occ. eigenvalues --   -0.36596  -0.36408  -0.36242  -0.36009  -0.35560
 Alpha  occ. eigenvalues --   -0.34991  -0.34875  -0.34565  -0.34528  -0.34265
 Alpha  occ. eigenvalues --   -0.34231  -0.33923  -0.33552  -0.33171  -0.33107
 Alpha  occ. eigenvalues --   -0.32674  -0.32580  -0.32267  -0.32242  -0.31676
 Alpha  occ. eigenvalues --   -0.31178  -0.31157  -0.30646  -0.29745  -0.29501
 Alpha  occ. eigenvalues --   -0.28928  -0.28451  -0.27901  -0.27834  -0.27546
 Alpha  occ. eigenvalues --   -0.27355  -0.26390  -0.23041  -0.21894
 Alpha virt. eigenvalues --   -0.08517  -0.07435  -0.01977  -0.00886   0.00716
 Alpha virt. eigenvalues --    0.02476   0.03433   0.03592   0.03754   0.04262
 Alpha virt. eigenvalues --    0.05214   0.06113   0.07745   0.08289   0.08910

 Mulliken charges:
               1
     1  Mg   0.819522
     2  C    0.151233
     3  C   -0.160879
     4  C   -0.177335
     5  C   -0.183119
     6  N   -0.637717
     7  C    0.319828
     8  C   -0.154727
     9  C   -0.162506
    10  C    0.332300
    11  C   -0.307658
    12  C   -0.159969
    13  C   -0.248020
    14  C    0.605537
    15  O   -0.511281
    16  O   -0.457612
    17  N   -0.711695
    18  C    0.292939
    19  C    0.038964
    20  C   -0.034262
    21  C    0.323658
    22  C   -0.388246
    23  C    0.249794
    24  O   -0.412194
    25  N   -0.687551
    26  C    0.247612
    27  C    0.010701
    28  C    0.084939
    29  C    0.277576
    30  C    0.253116
    31  C   -0.298554
    32  C   -0.290957
    33  N   -0.722540
    34  C    0.317192
    35  C   -0.012134
    36  C    0.038654
    37  C    0.273837
    38  C   -0.368018
    39  C    0.339944
    40  O   -0.444033
    41  C   -0.385240
    42  C    0.614334
    43  O   -0.454179
    44  O   -0.426868
    45  C   -0.089617
    46  C    0.021789
    47  C   -0.129586
    48  C    0.147449
    49  C   -0.367319
    50  C   -0.210420
    51  C   -0.168556
    52  C   -0.135414
    53  C   -0.061787
    54  C   -0.301483
    55  C   -0.191878
    56  C   -0.196959
    57  C   -0.147054
    58  C   -0.050786
    59  C   -0.323404
    60  C   -0.161399
    61  C   -0.166569
    62  C   -0.174520
    63  C   -0.040140
    64  C   -0.297095
    65  C   -0.299885
    66  H    0.108160
    67  H    0.146766
    68  H    0.091838
    69  H    0.125735
    70  H    0.089890
    71  H    0.118594
    72  H    0.116372
    73  H    0.122748
    74  H    0.118893
    75  H    0.102968
    76  H    0.129283
    77  H    0.118930
    78  H    0.112527
    79  H    0.155867
    80  H    0.132982
    81  H    0.087797
    82  H    0.096121
    83  H    0.115474
    84  H    0.114308
    85  H    0.115699
    86  H    0.129309
    87  H    0.123214
    88  H    0.151114
    89  H    0.137530
    90  H    0.145434
    91  H    0.118893
    92  H    0.122411
    93  H    0.065267
    94  H    0.138000
    95  H    0.098778
    96  H    0.098196
    97  H    0.103196
    98  H    0.098791
    99  H    0.074172
   100  H    0.079141
   101  H    0.073458
   102  H    0.102490
   103  H    0.093165
   104  H    0.109136
   105  H    0.081341
   106  H    0.072551
   107  H    0.088153
   108  H    0.085168
   109  H    0.094326
   110  H    0.095259
   111  H    0.092171
   112  H    0.095039
   113  H    0.088566
   114  H    0.092746
   115  H    0.091438
   116  H    0.104538
   117  H    0.082068
   118  H    0.071078
   119  H    0.076228
   120  H    0.099092
   121  H    0.078903
   122  H    0.084411
   123  H    0.098609
   124  H    0.116427
   125  H    0.084808
   126  H    0.070722
   127  H    0.073170
   128  H    0.095278
   129  H    0.094257
   130  H    0.115619
   131  H    0.126460
   132  H    0.124009
   133  O   -0.454321
   134  H    0.049483
 Sum of Mulliken charges =  -0.00000

 Dipole moment (field-independent basis, Debye):
    X=              1.4577    Y=             -4.1022    Z=             -1.1042  Tot=              4.4913
 Quadrupole moment (field-independent basis, Debye-Ang):
   XX=           -374.8880   YY=           -440.6008   ZZ=           -394.9882
   XY=              5.4266   XZ=             25.1097   YZ=            -37.1667

 Normal termination of Gaussian 16 at Mon Oct  7 13:53:49 2019.
