 Gaussian 16, Revision A.03,
 Gaussian 16:  ES64L-G16RevA.03 25-Dec-2016

 ----------------------------------------------------------------------
 # td=(NStates=1) iop(3/107=0140000000,3/108=0140000000) iop(3/107=0140
 000000,3/108=0140000000) CAM-B3LYP/6-31G(d,p)
 ----------------------------------------------------------------------

 --
 TD
 --
 Symbolic Z-matrix:
 Charge =  0 Multiplicity = 1

                         Standard orientation:
 ---------------------------------------------------------------------
 Center     Atomic      Atomic             Coordinates (Angstroms)
 Number     Number       Type             X           Y           Z
 ---------------------------------------------------------------------
      1         12           0       -5.747954    1.246104    0.320785
      2          6           0       -5.015069   -2.162373   -0.369999
      3          6           0       -3.457088    1.217101    2.802595
      4          6           0       -6.238146    4.678027    0.706995
      5          6           0       -8.010979    1.126341   -2.381010
      6          7           0       -4.445534   -0.311841    1.079832
      7          6           0       -4.192425   -1.643414    0.671613
      8          6           0       -3.092742   -2.247638    1.528056
      9          6           0       -2.931431   -1.260355    2.519576
     10          6           0       -3.615822    0.048783    2.119545
     11          6           0       -3.353209   -1.680263    3.933593
     12          6           0       -1.926710   -2.687733    0.601841
     13          6           0       -1.010551   -3.497154    1.388409
     14          6           0        0.303873   -3.907952    0.645218
     15          8           0        0.547873   -3.622708   -0.528899
     16          8           0        1.077284   -4.732927    1.301783
     17          7           0       -4.995781    2.621531    1.450877
     18          6           0       -4.056303    2.440555    2.414836
     19          6           0       -3.639252    3.621724    3.066915
     20          6           0       -4.495228    4.664820    2.536122
     21          6           0       -5.235119    3.972764    1.566908
     22          6           0       -2.654842    3.850670    4.181748
     23          6           0       -4.517382    6.052877    2.807899
     24          8           0       -3.735998    6.644738    3.622118
     25          7           0       -6.890513    2.594531   -0.679048
     26          6           0       -6.968572    3.893884   -0.300264
     27          6           0       -7.958352    4.586313   -1.171711
     28          6           0       -8.470062    3.604714   -1.996390
     29          6           0       -7.867533    2.351963   -1.681379
     30          6           0       -8.340991    6.031451   -1.055796
     31          6           0       -9.459192    3.781345   -3.145664
     32          6           0       -8.720115    4.031473   -4.523081
     33          7           0       -6.442320   -0.168053   -1.041229
     34          6           0       -7.404848   -0.063938   -2.089996
     35          6           0       -7.590041   -1.313793   -2.714915
     36          6           0       -6.745604   -2.195509   -2.016470
     37          6           0       -6.015457   -1.459081   -1.047670
     38          6           0       -8.465330   -1.625936   -3.841477
     39          6           0       -6.179651   -3.585412   -1.959804
     40          8           0       -6.617626   -4.564448   -2.594521
     41          6           0       -4.970460   -3.566888   -0.940542
     42          6           0       -5.279609   -4.737877    0.051473
     43          8           0       -5.708969   -4.554186    1.205337
     44          8           0       -4.841036   -5.860555   -0.475605
     45          6           0       -5.077636   -7.088296    0.424760
     46          6           0        2.332292   -5.084073    0.624122
     47          6           0        3.470037   -4.181498    0.968449
     48          6           0        3.949466   -3.281471    0.188899
     49          6           0        3.664054   -3.065512   -1.285616
     50          6           0        5.039670   -2.323633    0.717097
     51          6           0        6.427211   -2.670857    0.103814
     52          6           0        7.554595   -1.834005    0.734266
     53          6           0        8.947759   -2.088682    0.094487
     54          6           0        9.566833   -3.457708    0.375464
     55          6           0        9.913899   -0.915989    0.497423
     56          6           0       11.258701   -0.902561   -0.263831
     57          6           0       12.133846    0.320358    0.183571
     58          6           0       13.478667    0.498184   -0.582144
     59          6           0       14.446295   -0.610403   -0.302836
     60          6           0       14.143592    1.830257   -0.215342
     61          6           0       15.447524    2.133571   -1.091496
     62          6           0       15.982287    3.546148   -0.705941
     63          6           0       17.264649    3.773636   -1.551696
     64          6           0       17.015411    4.128503   -2.952681
     65          6           0       17.906495    5.164358   -0.885132
     66          1           0       -2.729546    1.365581    3.582575
     67          1           0       -6.439798    5.729156    0.767761
     68          1           0       -8.687631    1.101219   -3.232290
     69          1           0       -3.449133   -3.272413    1.909512
     70          1           0       -1.853694   -1.195319    2.622213
     71          1           0       -2.750645   -2.596323    4.457737
     72          1           0       -3.229419   -1.033992    4.684918
     73          1           0       -4.284399   -2.356096    3.773476
     74          1           0       -2.321172   -3.140503   -0.277393
     75          1           0       -1.484127   -1.653260    0.146122
     76          1           0       -0.464062   -2.861148    2.324096
     77          1           0       -1.248983   -4.431745    1.681462
     78          1           0       -1.508709    3.648421    3.922311
     79          1           0       -2.568605    4.875171    4.563915
     80          1           0       -2.969879    3.339898    5.144123
     81          1           0       -5.173479    6.847758    2.342762
     82          1           0      -10.071663    2.883776   -3.265121
     83          1           0      -10.217363    4.645518   -3.163103
     84          1           0       -9.407198    4.132761   -5.317205
     85          1           0       -8.022439    4.913748   -4.233908
     86          1           0       -7.907794    3.184925   -4.561642
     87          1           0       -8.325944   -0.834208   -4.849987
     88          1           0       -8.165589   -2.636642   -4.174362
     89          1           0       -9.523308   -1.547880   -3.687390
     90          1           0       -4.015590   -4.066662   -1.652772
     91          1           0        2.499446   -6.138661    1.014255
     92          1           0        2.202702   -5.038560   -0.463001
     93          1           0        3.729176   -4.145416    1.988383
     94          1           0        2.581396   -3.202694   -1.568380
     95          1           0        3.863171   -2.125458   -1.559387
     96          1           0        4.403385   -3.713000   -1.733085
     97          1           0        4.592650   -1.483344    0.190735
     98          1           0        4.756766   -2.316148    1.749184
     99          1           0        6.624242   -3.586692    0.353535
    100          1           0        6.467493   -2.381677   -1.007169
    101          1           0        7.401197   -0.700512    0.756431
    102          1           0        7.654195   -1.971640    1.862983
    103          1           0        8.886286   -1.877328   -0.909140
    104          1           0        8.789192   -4.195620   -0.142272
    105          1           0       10.452300   -3.768495    0.021353
    106          1           0        9.848714   -3.794499    1.299609
    107          1           0        9.632719    0.155485    0.491120
    108          1           0       10.185207   -1.047343    1.536700
    109          1           0       11.726983   -1.820473    0.272080
    110          1           0       11.205963   -0.889403   -1.294406
    111          1           0       11.837646    1.347510    0.063738
    112          1           0       12.488738    0.386768    1.163728
    113          1           0       13.378319    0.544309   -1.685682
    114          1           0       14.847954   -0.620725    0.780690
    115          1           0       14.043574   -1.508666   -0.356242
    116          1           0       15.307860   -0.529456   -0.990722
    117          1           0       13.347464    2.655074   -0.327184
    118          1           0       14.490791    1.802263    0.779855
    119          1           0       16.280558    1.582234   -0.734493
    120          1           0       15.311178    2.040048   -2.256884
    121          1           0       15.241952    4.205268   -0.867515
    122          1           0       16.166213    3.572924    0.259188
    123          1           0       17.898295    2.963080   -1.280150
    124          1           0       16.208534    4.911027   -2.956006
    125          1           0       17.856852    4.426162   -3.425530
    126          1           0       16.509606    3.303981   -3.565774
    127          1           0       17.863396    5.167105    0.092405
    128          1           0       18.815756    5.476560   -1.475396
    129          1           0       17.363184    6.045993   -1.115653
    130          1           0       -4.596036   -7.971578   -0.316215
    131          1           0       -6.107555   -6.993472    0.654931
    132          1           0       -4.360265   -6.766507    1.282615
    133          8           0       -7.852289    6.852041   -0.315829
    134          1           0       -9.184893    6.298857   -1.625421
 ---------------------------------------------------------------------

 SCF Done:  E(RCAM-B3LYP) =  -3043.45231979     A.U. after   16 cycles

 Excitation energies and oscillator strengths:

 Excited State   1:      Singlet-A      1.9793 eV  626.40 nm  f=0.1707  <S**2>=0.000
     243 -> 246        0.27754
     244 -> 245        0.63953
 This state for optimization and/or second-order correction.
 Total Energy, E(TD-HF/TD-DFT) =  -3043.37958166
 Copying the excited state density for this state as the 1-particle RhoCI density.

 The electronic state is 1-A.
 Alpha  occ. eigenvalues --  -46.80931 -19.23395 -19.22534 -19.17714 -19.17136
 Alpha  occ. eigenvalues --  -19.16935 -19.15934 -19.15762 -14.39086 -14.37551
 Alpha  occ. eigenvalues --  -14.37307 -14.36084 -10.35470 -10.34427 -10.31760
 Alpha  occ. eigenvalues --  -10.30595 -10.30483 -10.30001 -10.28471 -10.27474
 Alpha  occ. eigenvalues --  -10.27292 -10.27213 -10.26994 -10.26959 -10.26807
 Alpha  occ. eigenvalues --  -10.26524 -10.25760 -10.25707 -10.25060 -10.25027
 Alpha  occ. eigenvalues --  -10.24933 -10.24835 -10.24767 -10.24727 -10.24700
 Alpha  occ. eigenvalues --  -10.24077 -10.24066 -10.24042 -10.23918 -10.23302
 Alpha  occ. eigenvalues --  -10.23051 -10.23048 -10.23044 -10.22839 -10.22750
 Alpha  occ. eigenvalues --  -10.22557 -10.22542 -10.21940 -10.21741 -10.21609
 Alpha  occ. eigenvalues --  -10.21589 -10.21362 -10.21185 -10.21171 -10.20834
 Alpha  occ. eigenvalues --  -10.20568 -10.20355 -10.20122 -10.19950 -10.19648
 Alpha  occ. eigenvalues --  -10.19623 -10.19571 -10.19535 -10.18688 -10.18399
 Alpha  occ. eigenvalues --  -10.17931  -3.09646  -1.84569  -1.84109  -1.84082
 Alpha  occ. eigenvalues --   -1.14183  -1.13284  -1.07921  -1.05162  -1.03587
 Alpha  occ. eigenvalues --   -1.03152  -1.03002  -1.00964  -0.99488  -0.98973
 Alpha  occ. eigenvalues --   -0.98158  -0.88188  -0.87382  -0.86704  -0.85244
 Alpha  occ. eigenvalues --   -0.84800  -0.84412  -0.84115  -0.83614  -0.83553
 Alpha  occ. eigenvalues --   -0.83295  -0.82918  -0.82292  -0.80359  -0.79564
 Alpha  occ. eigenvalues --   -0.78451  -0.78067  -0.77358  -0.77021  -0.76638
 Alpha  occ. eigenvalues --   -0.75698  -0.74809  -0.74339  -0.72589  -0.72457
 Alpha  occ. eigenvalues --   -0.71876  -0.71358  -0.71328  -0.70579  -0.69672
 Alpha  occ. eigenvalues --   -0.69490  -0.69305  -0.67730  -0.66846  -0.66531
 Alpha  occ. eigenvalues --   -0.65694  -0.65403  -0.63555  -0.62698  -0.61970
 Alpha  occ. eigenvalues --   -0.61056  -0.60840  -0.60762  -0.60408  -0.60333
 Alpha  occ. eigenvalues --   -0.58750  -0.58551  -0.58015  -0.57669  -0.57376
 Alpha  occ. eigenvalues --   -0.56687  -0.55970  -0.55871  -0.55037  -0.54859
 Alpha  occ. eigenvalues --   -0.53741  -0.52963  -0.52810  -0.52293  -0.52094
 Alpha  occ. eigenvalues --   -0.51980  -0.51695  -0.51632  -0.51496  -0.50930
 Alpha  occ. eigenvalues --   -0.50157  -0.50049  -0.49827  -0.49505  -0.49099
 Alpha  occ. eigenvalues --   -0.48797  -0.48490  -0.48307  -0.48164  -0.47950
 Alpha  occ. eigenvalues --   -0.47650  -0.47554  -0.47274  -0.47243  -0.47110
 Alpha  occ. eigenvalues --   -0.46581  -0.46397  -0.46270  -0.45951  -0.45804
 Alpha  occ. eigenvalues --   -0.45653  -0.45436  -0.45221  -0.45088  -0.44999
 Alpha  occ. eigenvalues --   -0.44629  -0.44491  -0.44254  -0.44145  -0.43618
 Alpha  occ. eigenvalues --   -0.43552  -0.43383  -0.43034  -0.42979  -0.42874
 Alpha  occ. eigenvalues --   -0.42740  -0.42592  -0.42283  -0.42027  -0.41877
 Alpha  occ. eigenvalues --   -0.41685  -0.41208  -0.41110  -0.41079  -0.40856
 Alpha  occ. eigenvalues --   -0.40454  -0.40273  -0.40248  -0.39940  -0.39767
 Alpha  occ. eigenvalues --   -0.39692  -0.39443  -0.39315  -0.39102  -0.39044
 Alpha  occ. eigenvalues --   -0.38854  -0.38695  -0.38321  -0.38230  -0.37958
 Alpha  occ. eigenvalues --   -0.37931  -0.37826  -0.37657  -0.37545  -0.37008
 Alpha  occ. eigenvalues --   -0.36726  -0.36705  -0.36497  -0.36182  -0.35711
 Alpha  occ. eigenvalues --   -0.35440  -0.35200  -0.34982  -0.34787  -0.34422
 Alpha  occ. eigenvalues --   -0.34162  -0.34040  -0.33783  -0.33675  -0.33492
 Alpha  occ. eigenvalues --   -0.33340  -0.33056  -0.32081  -0.31834  -0.31441
 Alpha  occ. eigenvalues --   -0.30661  -0.30551  -0.29561  -0.29413  -0.29137
 Alpha  occ. eigenvalues --   -0.28808  -0.28447  -0.28036  -0.27994  -0.27481
 Alpha  occ. eigenvalues --   -0.27328  -0.26727  -0.22848  -0.22135
 Alpha virt. eigenvalues --   -0.09311  -0.06800  -0.01791  -0.01048   0.00294
 Alpha virt. eigenvalues --    0.02564   0.03599   0.03958   0.04391   0.04619
 Alpha virt. eigenvalues --    0.05482   0.05563   0.07300   0.07664   0.08565

 Mulliken charges:
               1
     1  Mg   0.836830
     2  C    0.074613
     3  C   -0.166017
     4  C   -0.149137
     5  C   -0.166664
     6  N   -0.652468
     7  C    0.301292
     8  C   -0.145864
     9  C   -0.127784
    10  C    0.374271
    11  C   -0.310392
    12  C   -0.161721
    13  C   -0.235849
    14  C    0.567726
    15  O   -0.494113
    16  O   -0.446112
    17  N   -0.733747
    18  C    0.316089
    19  C    0.049584
    20  C    0.042967
    21  C    0.261632
    22  C   -0.409215
    23  C    0.190344
    24  O   -0.444805
    25  N   -0.703726
    26  C    0.309317
    27  C   -0.058593
    28  C    0.025021
    29  C    0.279164
    30  C    0.272511
    31  C   -0.257844
    32  C   -0.302638
    33  N   -0.741359
    34  C    0.292170
    35  C    0.058963
    36  C    0.007997
    37  C    0.325351
    38  C   -0.389249
    39  C    0.365505
    40  O   -0.474153
    41  C   -0.336518
    42  C    0.625143
    43  O   -0.499644
    44  O   -0.443843
    45  C   -0.089231
    46  C   -0.012289
    47  C   -0.119584
    48  C    0.091010
    49  C   -0.375897
    50  C   -0.220729
    51  C   -0.152898
    52  C   -0.185633
    53  C   -0.040218
    54  C   -0.323470
    55  C   -0.203302
    56  C   -0.169794
    57  C   -0.178758
    58  C   -0.071624
    59  C   -0.296680
    60  C   -0.177027
    61  C   -0.194890
    62  C   -0.167075
    63  C   -0.053440
    64  C   -0.292102
    65  C   -0.331663
    66  H    0.096388
    67  H    0.149919
    68  H    0.096274
    69  H    0.121942
    70  H    0.101530
    71  H    0.073559
    72  H    0.124802
    73  H    0.123690
    74  H    0.131017
    75  H    0.103515
    76  H    0.113570
    77  H    0.144792
    78  H    0.107196
    79  H    0.170347
    80  H    0.119269
    81  H    0.098415
    82  H    0.108033
    83  H    0.106467
    84  H    0.123073
    85  H    0.106844
    86  H    0.100111
    87  H    0.083136
    88  H    0.152872
    89  H    0.143356
    90  H    0.147158
    91  H    0.101443
    92  H    0.140875
    93  H    0.069618
    94  H    0.151969
    95  H    0.111195
    96  H    0.125903
    97  H    0.101941
    98  H    0.100896
    99  H    0.120203
   100  H    0.096601
   101  H    0.087558
   102  H    0.081945
   103  H    0.096637
   104  H    0.079735
   105  H    0.115209
   106  H    0.109897
   107  H    0.086192
   108  H    0.088736
   109  H    0.090419
   110  H    0.101622
   111  H    0.082305
   112  H    0.092547
   113  H    0.074369
   114  H    0.070527
   115  H    0.105041
   116  H    0.097873
   117  H    0.072721
   118  H    0.094530
   119  H    0.103463
   120  H    0.079149
   121  H    0.093338
   122  H    0.093712
   123  H    0.088906
   124  H    0.101804
   125  H    0.111851
   126  H    0.081180
   127  H    0.102432
   128  H    0.084834
   129  H    0.101305
   130  H    0.134986
   131  H    0.170663
   132  H    0.140564
   133  O   -0.417308
   134  H    0.073600
 Sum of Mulliken charges =  -0.00000

 Dipole moment (field-independent basis, Debye):
    X=              1.6596    Y=             -5.0930    Z=             -0.7528  Tot=              5.4092
 Quadrupole moment (field-independent basis, Debye-Ang):
   XX=           -377.2607   YY=           -428.5946   ZZ=           -394.1578
   XY=              1.9253   XZ=             23.7049   YZ=            -33.9687

 Normal termination of Gaussian 16 at Mon Oct  7 19:48:15 2019.
