 Gaussian 16, Revision A.03,
 Gaussian 16:  ES64L-G16RevA.03 25-Dec-2016

 ----------------------------------------------------------------------
 # td=(NStates=1) iop(3/107=0140000000,3/108=0140000000) iop(3/107=0140
 000000,3/108=0140000000) CAM-B3LYP/6-31G(d,p)
 ----------------------------------------------------------------------

 --
 TD
 --
 Symbolic Z-matrix:
 Charge =  0 Multiplicity = 1

                         Standard orientation:
 ---------------------------------------------------------------------
 Center     Atomic      Atomic             Coordinates (Angstroms)
 Number     Number       Type             X           Y           Z
 ---------------------------------------------------------------------
      1         12           0       -5.620014    1.196809    0.227420
      2          6           0       -4.930247   -2.173526   -0.311287
      3          6           0       -3.415813    1.152457    2.754737
      4          6           0       -6.263044    4.456499    0.667558
      5          6           0       -7.934003    1.101233   -2.277756
      6          7           0       -4.389816   -0.317357    1.136469
      7          6           0       -4.148260   -1.524568    0.628293
      8          6           0       -3.139699   -2.305648    1.475113
      9          6           0       -2.924653   -1.327518    2.642508
     10          6           0       -3.576827   -0.011250    2.179111
     11          6           0       -3.411566   -1.700359    3.982344
     12          6           0       -1.954672   -2.639012    0.622334
     13          6           0       -0.907304   -3.514872    1.321641
     14          6           0        0.299810   -3.842354    0.517927
     15          8           0        0.435572   -3.407568   -0.616049
     16          8           0        1.075012   -4.722507    1.204648
     17          7           0       -5.002733    2.525321    1.482131
     18          6           0       -4.079979    2.381021    2.433204
     19          6           0       -3.716751    3.696212    3.134921
     20          6           0       -4.569788    4.652062    2.555089
     21          6           0       -5.384530    3.906399    1.516528
     22          6           0       -2.859193    3.960609    4.283727
     23          6           0       -4.725267    6.052841    2.917124
     24          8           0       -4.216246    6.640143    3.824590
     25          7           0       -6.961627    2.579782   -0.694131
     26          6           0       -6.932179    3.826636   -0.427426
     27          6           0       -8.039262    4.522434   -1.271839
     28          6           0       -8.520664    3.559199   -2.189601
     29          6           0       -7.842974    2.347470   -1.739452
     30          6           0       -8.380563    5.956966   -1.238740
     31          6           0       -9.466633    3.724733   -3.175686
     32          6           0       -8.998528    4.097166   -4.617485
     33          7           0       -6.341950   -0.243078   -1.065219
     34          6           0       -7.328145   -0.082516   -2.078479
     35          6           0       -7.520981   -1.449603   -2.638939
     36          6           0       -6.626896   -2.227144   -2.016136
     37          6           0       -5.961563   -1.470394   -1.033415
     38          6           0       -8.626631   -1.704227   -3.639041
     39          6           0       -6.117496   -3.575157   -1.959435
     40          8           0       -6.472899   -4.537136   -2.602832
     41          6           0       -5.029756   -3.614624   -0.845915
     42          6           0       -5.202044   -4.659764    0.268177
     43          8           0       -5.626543   -4.539607    1.346408
     44          8           0       -4.835695   -5.838080   -0.268392
     45          6           0       -5.184251   -6.934987    0.663016
     46          6           0        2.260212   -5.020788    0.515815
     47          6           0        3.390890   -3.995155    0.901004
     48          6           0        3.911448   -3.099115    0.061757
     49          6           0        3.680950   -2.920334   -1.457950
     50          6           0        5.185243   -2.305416    0.588068
     51          6           0        6.508381   -2.672472    0.036502
     52          6           0        7.573636   -1.777246    0.504615
     53          6           0        8.931573   -1.962362   -0.066210
     54          6           0        9.516187   -3.345076    0.130118
     55          6           0        9.972437   -0.854526    0.348917
     56          6           0       11.324917   -0.885976   -0.172331
     57          6           0       12.247536    0.292773    0.129017
     58          6           0       13.586969    0.373337   -0.491475
     59          6           0       14.547326   -0.768928   -0.167795
     60          6           0       14.296703    1.796814   -0.103751
     61          6           0       15.609960    2.132777   -0.914533
     62          6           0       16.159134    3.537704   -0.602773
     63          6           0       17.392381    3.920801   -1.395672
     64          6           0       17.164134    4.039953   -2.837103
     65          6           0       17.944038    5.186577   -0.848611
     66          1           0       -2.738569    1.197947    3.624055
     67          1           0       -6.626445    5.553154    0.839708
     68          1           0       -8.740898    0.908527   -3.031722
     69          1           0       -3.645943   -3.258810    1.850254
     70          1           0       -1.901041   -0.888621    2.671850
     71          1           0       -2.810209   -2.628732    4.280476
     72          1           0       -3.399387   -0.689699    4.614481
     73          1           0       -4.438503   -1.879002    4.037469
     74          1           0       -2.313034   -3.346037   -0.236256
     75          1           0       -1.417593   -1.778599    0.345187
     76          1           0       -0.578671   -3.212373    2.281250
     77          1           0       -1.308791   -4.339046    1.577621
     78          1           0       -1.883561    3.615132    4.004381
     79          1           0       -2.847294    5.023101    4.652585
     80          1           0       -3.127520    3.329159    5.085341
     81          1           0       -5.604976    6.546254    2.360805
     82          1           0      -10.302334    3.053414   -3.358207
     83          1           0      -10.154065    4.570046   -3.097706
     84          1           0       -9.947721    4.253178   -5.310671
     85          1           0       -8.261469    4.955089   -4.583338
     86          1           0       -8.387860    3.164782   -5.077286
     87          1           0       -8.318693   -1.094783   -4.522033
     88          1           0       -8.732836   -2.655527   -3.938626
     89          1           0       -9.440535   -1.254775   -3.175637
     90          1           0       -4.141194   -3.765032   -1.433396
     91          1           0        2.582589   -6.114507    1.036858
     92          1           0        1.941174   -5.061742   -0.482847
     93          1           0        3.862479   -3.932908    1.884049
     94          1           0        2.800241   -3.332432   -1.763865
     95          1           0        3.804149   -1.914899   -1.762946
     96          1           0        4.512315   -3.552394   -2.137010
     97          1           0        4.825828   -1.266418    0.417224
     98          1           0        5.033243   -2.300825    1.575567
     99          1           0        6.686107   -3.630940    0.522315
    100          1           0        6.612897   -2.639887   -1.092334
    101          1           0        7.412338   -0.735226    0.466534
    102          1           0        7.738624   -1.987666    1.647061
    103          1           0        9.161696   -2.144422   -1.154232
    104          1           0        8.801166   -4.029343   -0.396319
    105          1           0       10.515103   -3.676819   -0.335739
    106          1           0        9.762339   -3.677163    1.347666
    107          1           0        9.549370    0.241033    0.024048
    108          1           0       10.049533   -1.065588    1.450586
    109          1           0       11.600724   -1.920302    0.288645
    110          1           0       11.275609   -0.983183   -1.442470
    111          1           0       11.744342    1.151747   -0.153845
    112          1           0       12.401558    0.381914    1.313862
    113          1           0       13.248732    0.181269   -1.534734
    114          1           0       14.704917   -0.785203    0.872098
    115          1           0       14.100491   -1.772737   -0.649456
    116          1           0       15.455533   -0.601372   -0.641556
    117          1           0       13.441375    2.627644   -0.304483
    118          1           0       14.643313    1.678626    0.878313
    119          1           0       16.431869    1.371611   -0.672296
    120          1           0       15.552450    2.007929   -1.940493
    121          1           0       15.318283    4.365826   -0.913681
    122          1           0       16.314433    3.726204    0.500323
    123          1           0       18.152631    3.171440   -1.318100
    124          1           0       16.274333    4.795518   -2.906779
    125          1           0       18.035543    4.295770   -3.372145
    126          1           0       16.958329    3.259546   -3.336127
    127          1           0       17.980099    5.273295    0.396358
    128          1           0       18.804193    5.588417   -1.241018
    129          1           0       17.283727    6.058753   -0.901697
    130          1           0       -5.114249   -7.775056    0.020098
    131          1           0       -6.251368   -6.771682    1.075528
    132          1           0       -4.524220   -6.885092    1.487639
    133          8           0       -7.809921    6.756243   -0.571304
    134          1           0       -9.198103    6.157704   -2.053501
 ---------------------------------------------------------------------

 SCF Done:  E(RCAM-B3LYP) =  -3043.47354960     A.U. after   15 cycles

 Excitation energies and oscillator strengths:

 Excited State   1:      Singlet-A      2.1908 eV  565.93 nm  f=0.1663  <S**2>=0.000
     243 -> 245       -0.15295
     243 -> 246        0.24594
     244 -> 245        0.62182
     244 -> 246        0.14019
 This state for optimization and/or second-order correction.
 Total Energy, E(TD-HF/TD-DFT) =  -3043.39303870
 Copying the excited state density for this state as the 1-particle RhoCI density.

 The electronic state is 1-A.
 Alpha  occ. eigenvalues --  -46.81545 -19.22863 -19.22230 -19.18069 -19.17758
 Alpha  occ. eigenvalues --  -19.17657 -19.17301 -19.16582 -14.38270 -14.37647
 Alpha  occ. eigenvalues --  -14.37187 -14.35586 -10.34965 -10.34917 -10.30784
 Alpha  occ. eigenvalues --  -10.30731 -10.30384 -10.28916 -10.28595 -10.27029
 Alpha  occ. eigenvalues --  -10.27014 -10.26576 -10.26358 -10.26347 -10.25865
 Alpha  occ. eigenvalues --  -10.25592 -10.25245 -10.24991 -10.24520 -10.24510
 Alpha  occ. eigenvalues --  -10.24435 -10.24310 -10.24047 -10.23732 -10.23626
 Alpha  occ. eigenvalues --  -10.23491 -10.23374 -10.23164 -10.22859 -10.22823
 Alpha  occ. eigenvalues --  -10.22801 -10.22796 -10.22684 -10.22574 -10.22536
 Alpha  occ. eigenvalues --  -10.22364 -10.22297 -10.22114 -10.21825 -10.21812
 Alpha  occ. eigenvalues --  -10.21783 -10.21782 -10.21688 -10.21601 -10.21367
 Alpha  occ. eigenvalues --  -10.21209 -10.21133 -10.20962 -10.20924 -10.20806
 Alpha  occ. eigenvalues --  -10.20698 -10.20670 -10.20644 -10.20037 -10.19632
 Alpha  occ. eigenvalues --  -10.18486  -3.10197  -1.85133  -1.84655  -1.84626
 Alpha  occ. eigenvalues --   -1.15099  -1.14274  -1.08528  -1.08519  -1.06990
 Alpha  occ. eigenvalues --   -1.06271  -1.05687  -1.01259  -1.00610  -1.00027
 Alpha  occ. eigenvalues --   -0.99099  -0.88185  -0.87029  -0.86704  -0.86276
 Alpha  occ. eigenvalues --   -0.85624  -0.85246  -0.84952  -0.84397  -0.84163
 Alpha  occ. eigenvalues --   -0.83853  -0.83733  -0.82507  -0.81029  -0.80462
 Alpha  occ. eigenvalues --   -0.78573  -0.78154  -0.77949  -0.77323  -0.76708
 Alpha  occ. eigenvalues --   -0.76087  -0.75978  -0.74153  -0.73373  -0.72560
 Alpha  occ. eigenvalues --   -0.72408  -0.71978  -0.70960  -0.70123  -0.69310
 Alpha  occ. eigenvalues --   -0.69264  -0.69164  -0.67394  -0.67098  -0.66355
 Alpha  occ. eigenvalues --   -0.65708  -0.65118  -0.64059  -0.62969  -0.61930
 Alpha  occ. eigenvalues --   -0.61796  -0.60788  -0.60117  -0.59506  -0.59065
 Alpha  occ. eigenvalues --   -0.58946  -0.58166  -0.57547  -0.56914  -0.56748
 Alpha  occ. eigenvalues --   -0.56378  -0.56258  -0.55864  -0.55396  -0.54741
 Alpha  occ. eigenvalues --   -0.54465  -0.54036  -0.53597  -0.52864  -0.52533
 Alpha  occ. eigenvalues --   -0.52046  -0.51840  -0.51400  -0.51132  -0.51011
 Alpha  occ. eigenvalues --   -0.50750  -0.50714  -0.49941  -0.49754  -0.49500
 Alpha  occ. eigenvalues --   -0.49204  -0.48867  -0.48612  -0.48342  -0.48238
 Alpha  occ. eigenvalues --   -0.47984  -0.47790  -0.47637  -0.47527  -0.47387
 Alpha  occ. eigenvalues --   -0.47234  -0.47078  -0.46724  -0.46283  -0.46084
 Alpha  occ. eigenvalues --   -0.45964  -0.45797  -0.45529  -0.45372  -0.45057
 Alpha  occ. eigenvalues --   -0.44859  -0.44675  -0.44441  -0.44284  -0.44170
 Alpha  occ. eigenvalues --   -0.43959  -0.43856  -0.43628  -0.43208  -0.42926
 Alpha  occ. eigenvalues --   -0.42825  -0.42639  -0.42599  -0.42373  -0.42179
 Alpha  occ. eigenvalues --   -0.42133  -0.41987  -0.41737  -0.41435  -0.41091
 Alpha  occ. eigenvalues --   -0.40843  -0.40587  -0.40523  -0.40384  -0.40170
 Alpha  occ. eigenvalues --   -0.40066  -0.39951  -0.39776  -0.39480  -0.39404
 Alpha  occ. eigenvalues --   -0.39361  -0.39027  -0.38777  -0.38664  -0.38518
 Alpha  occ. eigenvalues --   -0.38165  -0.37873  -0.37692  -0.37491  -0.36939
 Alpha  occ. eigenvalues --   -0.36886  -0.36450  -0.36151  -0.36063  -0.35565
 Alpha  occ. eigenvalues --   -0.35543  -0.35105  -0.34981  -0.34798  -0.34030
 Alpha  occ. eigenvalues --   -0.34003  -0.33932  -0.33364  -0.33096  -0.33066
 Alpha  occ. eigenvalues --   -0.32790  -0.32158  -0.32090  -0.31861  -0.31819
 Alpha  occ. eigenvalues --   -0.31410  -0.31223  -0.30831  -0.30716  -0.29726
 Alpha  occ. eigenvalues --   -0.29215  -0.28525  -0.28140  -0.28057  -0.27789
 Alpha  occ. eigenvalues --   -0.27505  -0.27180  -0.23075  -0.21431
 Alpha virt. eigenvalues --   -0.07761  -0.06061  -0.00978  -0.00455   0.01107
 Alpha virt. eigenvalues --    0.03410   0.03721   0.03971   0.04032   0.04397
 Alpha virt. eigenvalues --    0.05337   0.06737   0.08166   0.08274   0.09525

 Mulliken charges:
               1
     1  Mg   0.829793
     2  C    0.070781
     3  C   -0.201056
     4  C   -0.206789
     5  C   -0.183035
     6  N   -0.646574
     7  C    0.293263
     8  C   -0.170690
     9  C   -0.131310
    10  C    0.347367
    11  C   -0.294413
    12  C   -0.156065
    13  C   -0.268541
    14  C    0.606206
    15  O   -0.474856
    16  O   -0.445124
    17  N   -0.728748
    18  C    0.328128
    19  C    0.042153
    20  C   -0.004862
    21  C    0.304600
    22  C   -0.401196
    23  C    0.247212
    24  O   -0.399963
    25  N   -0.652630
    26  C    0.310614
    27  C   -0.092723
    28  C    0.152209
    29  C    0.265274
    30  C    0.255378
    31  C   -0.326186
    32  C   -0.299297
    33  N   -0.736448
    34  C    0.252509
    35  C   -0.005595
    36  C    0.038957
    37  C    0.336433
    38  C   -0.350069
    39  C    0.341334
    40  O   -0.451023
    41  C   -0.316383
    42  C    0.625218
    43  O   -0.446943
    44  O   -0.451402
    45  C   -0.097208
    46  C    0.002940
    47  C   -0.130492
    48  C    0.105854
    49  C   -0.348967
    50  C   -0.231457
    51  C   -0.153678
    52  C   -0.150290
    53  C   -0.056394
    54  C   -0.316915
    55  C   -0.152363
    56  C   -0.154716
    57  C   -0.137952
    58  C   -0.064038
    59  C   -0.304267
    60  C   -0.167334
    61  C   -0.189870
    62  C   -0.149923
    63  C   -0.049232
    64  C   -0.281605
    65  C   -0.302200
    66  H    0.081258
    67  H    0.146937
    68  H    0.076162
    69  H    0.115604
    70  H    0.100982
    71  H    0.105528
    72  H    0.089632
    73  H    0.136542
    74  H    0.104524
    75  H    0.121638
    76  H    0.128366
    77  H    0.136622
    78  H    0.127249
    79  H    0.167329
    80  H    0.136579
    81  H    0.064156
    82  H    0.122241
    83  H    0.126756
    84  H    0.099871
    85  H    0.117565
    86  H    0.088222
    87  H    0.126826
    88  H    0.146982
    89  H    0.136880
    90  H    0.169022
    91  H    0.089216
    92  H    0.134199
    93  H    0.084364
    94  H    0.141304
    95  H    0.119816
    96  H    0.081802
    97  H    0.087199
    98  H    0.099609
    99  H    0.114278
   100  H    0.098795
   101  H    0.104185
   102  H    0.075735
   103  H    0.087197
   104  H    0.104685
   105  H    0.108671
   106  H    0.041413
   107  H    0.053254
   108  H    0.089035
   109  H    0.086887
   110  H    0.037902
   111  H    0.097427
   112  H    0.055223
   113  H    0.073351
   114  H    0.102829
   115  H    0.082526
   116  H    0.110835
   117  H    0.075562
   118  H    0.108232
   119  H    0.080504
   120  H    0.106440
   121  H    0.057226
   122  H    0.085672
   123  H    0.088235
   124  H    0.081122
   125  H    0.096615
   126  H    0.107997
   127  H    0.058820
   128  H    0.105891
   129  H    0.098815
   130  H    0.134980
   131  H    0.133116
   132  H    0.134224
   133  O   -0.409847
   134  H    0.045787
 Sum of Mulliken charges =  -0.00000

 Dipole moment (field-independent basis, Debye):
    X=              1.5745    Y=             -4.0675    Z=             -0.3320  Tot=              4.3743
 Quadrupole moment (field-independent basis, Debye-Ang):
   XX=           -370.5788   YY=           -440.0160   ZZ=           -393.1637
   XY=              7.4248   XZ=             10.7459   YZ=            -29.8332

 Normal termination of Gaussian 16 at Fri Oct 11 10:34:15 2019.
