 Gaussian 16, Revision A.03,
 Gaussian 16:  ES64L-G16RevA.03 25-Dec-2016

 ----------------------------------------------------------------------
 # td=(NStates=1) iop(3/107=0140000000,3/108=0140000000) iop(3/107=0140
 000000,3/108=0140000000) CAM-B3LYP/6-31G(d,p)
 ----------------------------------------------------------------------

 --
 TD
 --
 Symbolic Z-matrix:
 Charge =  0 Multiplicity = 1

                         Standard orientation:
 ---------------------------------------------------------------------
 Center     Atomic      Atomic             Coordinates (Angstroms)
 Number     Number       Type             X           Y           Z
 ---------------------------------------------------------------------
      1         12           0       -5.602854    1.145176    0.232243
      2          6           0       -4.904017   -2.134146   -0.393843
      3          6           0       -3.580995    1.179608    2.718678
      4          6           0       -6.320620    4.635530    0.715770
      5          6           0       -7.924624    1.113756   -2.455648
      6          7           0       -4.411900   -0.327058    1.019339
      7          6           0       -4.248147   -1.669217    0.605218
      8          6           0       -3.164613   -2.347655    1.442963
      9          6           0       -2.989461   -1.293509    2.628312
     10          6           0       -3.634540   -0.087763    2.121535
     11          6           0       -3.474849   -1.830576    3.920572
     12          6           0       -1.932675   -2.692639    0.619401
     13          6           0       -1.015699   -3.383873    1.454327
     14          6           0        0.342320   -3.851629    0.670864
     15          8           0        0.459942   -3.423883   -0.470532
     16          8           0        1.055192   -4.828193    1.303260
     17          7           0       -4.963385    2.641962    1.507306
     18          6           0       -4.191248    2.440439    2.567281
     19          6           0       -3.866871    3.718043    3.239122
     20          6           0       -4.669862    4.587146    2.680176
     21          6           0       -5.365729    3.927629    1.536627
     22          6           0       -2.943551    3.678801    4.452490
     23          6           0       -4.787376    6.024446    2.892021
     24          8           0       -4.193807    6.733143    3.745803
     25          7           0       -6.833409    2.633637   -0.658828
     26          6           0       -6.965317    3.903329   -0.377514
     27          6           0       -8.007160    4.577435   -1.260169
     28          6           0       -8.458843    3.527326   -2.157809
     29          6           0       -7.807464    2.371380   -1.694388
     30          6           0       -8.369522    6.020887   -1.269169
     31          6           0       -9.410159    3.799439   -3.253986
     32          6           0       -8.719432    3.987597   -4.653903
     33          7           0       -6.399236   -0.173423   -1.071945
     34          6           0       -7.395412   -0.047894   -2.067855
     35          6           0       -7.566637   -1.333058   -2.626452
     36          6           0       -6.628324   -2.222156   -2.045611
     37          6           0       -5.973074   -1.418750   -1.075852
     38          6           0       -8.492141   -1.655753   -3.802742
     39          6           0       -6.119258   -3.571877   -2.060788
     40          8           0       -6.574137   -4.523493   -2.671819
     41          6           0       -4.954082   -3.511577   -0.938812
     42          6           0       -5.150794   -4.638895    0.005556
     43          8           0       -5.648300   -4.496225    1.067997
     44          8           0       -4.796123   -5.855325   -0.430180
     45          6           0       -5.187072   -6.944480    0.367767
     46          6           0        2.319623   -5.154632    0.662760
     47          6           0        3.421497   -4.272565    1.061635
     48          6           0        4.094096   -3.394438    0.263634
     49          6           0        3.730108   -3.209833   -1.231263
     50          6           0        5.133902   -2.341019    0.784946
     51          6           0        6.559906   -2.578537    0.153052
     52          6           0        7.774082   -1.752683    0.726776
     53          6           0        9.019592   -1.974377    0.060392
     54          6           0        9.619874   -3.350448    0.326709
     55          6           0        9.990969   -0.834197    0.385482
     56          6           0       11.231650   -0.688033   -0.455538
     57          6           0       12.275046    0.335284    0.065281
     58          6           0       13.626241    0.573482   -0.559132
     59          6           0       14.565173   -0.707368   -0.422599
     60          6           0       14.251868    1.771877   -0.223695
     61          6           0       15.598050    2.105388   -0.900917
     62          6           0       16.111812    3.485627   -0.607708
     63          6           0       17.339120    3.968741   -1.349072
     64          6           0       17.116581    3.962439   -2.906865
     65          6           0       17.849205    5.328100   -0.861235
     66          1           0       -2.793691    1.227675    3.654728
     67          1           0       -6.616323    5.682607    0.910810
     68          1           0       -8.813411    1.173223   -3.121030
     69          1           0       -3.648210   -3.285706    1.802226
     70          1           0       -1.922476   -1.099875    2.561881
     71          1           0       -2.905067   -2.676548    4.310835
     72          1           0       -3.557519   -0.964671    4.740422
     73          1           0       -4.418229   -1.968446    3.731957
     74          1           0       -2.117627   -3.229688   -0.369648
     75          1           0       -1.584904   -1.662388    0.422666
     76          1           0       -0.791127   -2.922074    2.358274
     77          1           0       -1.440573   -4.310448    1.631519
     78          1           0       -1.907671    3.381244    4.251799
     79          1           0       -3.022892    4.737268    4.901310
     80          1           0       -3.060678    2.999828    5.418340
     81          1           0       -5.421321    6.566560    2.332764
     82          1           0      -10.054977    2.814435   -3.233337
     83          1           0      -10.004062    4.707351   -2.915322
     84          1           0       -9.453411    3.769962   -5.440033
     85          1           0       -8.149980    4.917388   -4.494377
     86          1           0       -7.960994    3.054910   -4.639029
     87          1           0       -7.975439   -1.234756   -4.810128
     88          1           0       -8.602960   -2.869201   -3.916901
     89          1           0       -9.450455   -1.247433   -3.423626
     90          1           0       -3.952489   -3.792290   -1.504093
     91          1           0        2.600520   -6.217515    1.134979
     92          1           0        2.201583   -5.073874   -0.525425
     93          1           0        3.617235   -4.495223    2.178426
     94          1           0        2.558317   -3.604313   -1.251112
     95          1           0        3.696803   -2.112958   -1.375912
     96          1           0        4.507767   -3.707742   -1.715716
     97          1           0        5.073777   -1.265182    0.760569
     98          1           0        5.247849   -2.533889    1.907340
     99          1           0        6.770117   -3.630880    0.556330
    100          1           0        6.373979   -2.373713   -1.042136
    101          1           0        7.475380   -0.656174    0.435797
    102          1           0        7.711378   -1.858554    1.805444
    103          1           0        8.875098   -1.884182   -1.031999
    104          1           0        8.928141   -4.251651   -0.058752
    105          1           0       10.477459   -3.551000   -0.052273
    106          1           0        9.833732   -3.329560    1.456757
    107          1           0        9.231433    0.000016    0.299136
    108          1           0       10.312500   -0.718825    1.598143
    109          1           0       11.768439   -1.741509   -0.218291
    110          1           0       11.026290   -0.688317   -1.565159
    111          1           0       11.656164    1.368145    0.036839
    112          1           0       12.250044    0.294576    1.115138
    113          1           0       13.337764    0.550878   -1.627005
    114          1           0       14.871386   -0.722454    0.628502
    115          1           0       13.998977   -1.664758   -0.854626
    116          1           0       15.423504   -0.576280   -1.063730
    117          1           0       13.453564    2.587202   -0.434796
    118          1           0       14.479144    1.825522    0.917234
    119          1           0       16.545155    1.436019   -0.708482
    120          1           0       15.484843    2.041432   -2.038913
    121          1           0       15.342584    4.414325   -1.087537
    122          1           0       16.196469    3.733383    0.446927
    123          1           0       18.099064    3.245879   -1.161694
    124          1           0       16.445122    4.691667   -3.154041
    125          1           0       18.095097    4.325310   -3.433925
    126          1           0       16.878040    3.046003   -3.456309
    127          1           0       17.995599    5.301364    0.195603
    128          1           0       18.752443    5.460126   -1.429508
    129          1           0       17.212603    6.173049   -0.978817
    130          1           0       -5.090666   -7.890137   -0.274831
    131          1           0       -6.291150   -6.955721    0.877971
    132          1           0       -4.758030   -6.963650    1.420133
    133          8           0       -7.925090    6.883251   -0.500536
    134          1           0       -9.077559    6.341185   -1.962961
 ---------------------------------------------------------------------

 SCF Done:  E(RCAM-B3LYP) =  -3043.46507165     A.U. after   15 cycles

 Excitation energies and oscillator strengths:

 Excited State   1:      Singlet-A      2.0916 eV  592.78 nm  f=0.1531  <S**2>=0.000
     243 -> 246       -0.25372
     244 -> 245        0.65055
 This state for optimization and/or second-order correction.
 Total Energy, E(TD-HF/TD-DFT) =  -3043.38820743
 Copying the excited state density for this state as the 1-particle RhoCI density.

 The electronic state is 1-A.
 Alpha  occ. eigenvalues --  -46.81831 -19.24014 -19.23257 -19.18403 -19.17569
 Alpha  occ. eigenvalues --  -19.17002 -19.16919 -19.16257 -14.38639 -14.37572
 Alpha  occ. eigenvalues --  -14.37413 -14.36795 -10.36278 -10.34849 -10.31963
 Alpha  occ. eigenvalues --  -10.29542 -10.29458 -10.29427 -10.28861 -10.28480
 Alpha  occ. eigenvalues --  -10.27442 -10.27346 -10.26975 -10.26534 -10.26467
 Alpha  occ. eigenvalues --  -10.26200 -10.25868 -10.25715 -10.25619 -10.25335
 Alpha  occ. eigenvalues --  -10.25312 -10.24912 -10.24835 -10.24769 -10.24648
 Alpha  occ. eigenvalues --  -10.24448 -10.24423 -10.24218 -10.23906 -10.23844
 Alpha  occ. eigenvalues --  -10.23831 -10.23650 -10.23239 -10.23109 -10.23068
 Alpha  occ. eigenvalues --  -10.22940 -10.22812 -10.22663 -10.22661 -10.22619
 Alpha  occ. eigenvalues --  -10.22477 -10.22241 -10.22238 -10.21886 -10.21823
 Alpha  occ. eigenvalues --  -10.21669 -10.21644 -10.21628 -10.21624 -10.21350
 Alpha  occ. eigenvalues --  -10.21216 -10.21073 -10.20903 -10.20190 -10.19979
 Alpha  occ. eigenvalues --  -10.19378  -3.10404  -1.85351  -1.84858  -1.84825
 Alpha  occ. eigenvalues --   -1.15569  -1.13390  -1.07127  -1.06338  -1.05762
 Alpha  occ. eigenvalues --   -1.05023  -1.04486  -1.02031  -1.00875  -0.99420
 Alpha  occ. eigenvalues --   -0.98783  -0.89495  -0.87557  -0.86789  -0.86022
 Alpha  occ. eigenvalues --   -0.85815  -0.84946  -0.84857  -0.84623  -0.83748
 Alpha  occ. eigenvalues --   -0.83716  -0.82999  -0.82332  -0.80372  -0.79957
 Alpha  occ. eigenvalues --   -0.78708  -0.78031  -0.77463  -0.77221  -0.76507
 Alpha  occ. eigenvalues --   -0.75393  -0.74833  -0.74383  -0.72989  -0.72188
 Alpha  occ. eigenvalues --   -0.71783  -0.71403  -0.70384  -0.70272  -0.70043
 Alpha  occ. eigenvalues --   -0.69516  -0.69331  -0.68486  -0.66629  -0.66613
 Alpha  occ. eigenvalues --   -0.65906  -0.65133  -0.64147  -0.62928  -0.62384
 Alpha  occ. eigenvalues --   -0.61959  -0.61224  -0.59978  -0.59394  -0.58729
 Alpha  occ. eigenvalues --   -0.58585  -0.58371  -0.58142  -0.57774  -0.57552
 Alpha  occ. eigenvalues --   -0.56915  -0.56285  -0.55837  -0.55625  -0.55234
 Alpha  occ. eigenvalues --   -0.54489  -0.53691  -0.53196  -0.52895  -0.52195
 Alpha  occ. eigenvalues --   -0.51853  -0.51553  -0.51387  -0.51234  -0.50792
 Alpha  occ. eigenvalues --   -0.50191  -0.49922  -0.49859  -0.49595  -0.49199
 Alpha  occ. eigenvalues --   -0.48855  -0.48698  -0.48239  -0.48142  -0.47920
 Alpha  occ. eigenvalues --   -0.47872  -0.47763  -0.47563  -0.47414  -0.47307
 Alpha  occ. eigenvalues --   -0.47053  -0.46700  -0.46553  -0.46268  -0.46145
 Alpha  occ. eigenvalues --   -0.45795  -0.45685  -0.45613  -0.45384  -0.45327
 Alpha  occ. eigenvalues --   -0.45038  -0.44684  -0.44556  -0.44233  -0.43894
 Alpha  occ. eigenvalues --   -0.43791  -0.43641  -0.43566  -0.43331  -0.42843
 Alpha  occ. eigenvalues --   -0.42714  -0.42391  -0.42309  -0.41753  -0.41522
 Alpha  occ. eigenvalues --   -0.41446  -0.41102  -0.41081  -0.40887  -0.40650
 Alpha  occ. eigenvalues --   -0.40541  -0.40501  -0.40349  -0.40258  -0.40199
 Alpha  occ. eigenvalues --   -0.40006  -0.39687  -0.39545  -0.39476  -0.39103
 Alpha  occ. eigenvalues --   -0.38922  -0.38688  -0.38660  -0.38571  -0.38341
 Alpha  occ. eigenvalues --   -0.38120  -0.37917  -0.37721  -0.37357  -0.37207
 Alpha  occ. eigenvalues --   -0.36905  -0.36671  -0.36297  -0.35912  -0.35843
 Alpha  occ. eigenvalues --   -0.35468  -0.35318  -0.35034  -0.35015  -0.34690
 Alpha  occ. eigenvalues --   -0.34543  -0.34291  -0.33988  -0.33561  -0.32877
 Alpha  occ. eigenvalues --   -0.32685  -0.32244  -0.32117  -0.32006  -0.31554
 Alpha  occ. eigenvalues --   -0.31451  -0.31243  -0.30907  -0.30539  -0.30432
 Alpha  occ. eigenvalues --   -0.29665  -0.28410  -0.28202  -0.27694  -0.27686
 Alpha  occ. eigenvalues --   -0.27528  -0.27160  -0.23603  -0.22059
 Alpha virt. eigenvalues --   -0.08598  -0.07085  -0.01937  -0.00701   0.00301
 Alpha virt. eigenvalues --    0.02165   0.03210   0.03456   0.03630   0.04008
 Alpha virt. eigenvalues --    0.04496   0.05678   0.07246   0.08374   0.09071

 Mulliken charges:
               1
     1  Mg   0.821857
     2  C    0.102157
     3  C   -0.225914
     4  C   -0.159251
     5  C   -0.159340
     6  N   -0.666855
     7  C    0.318399
     8  C   -0.184423
     9  C   -0.155295
    10  C    0.376086
    11  C   -0.287969
    12  C   -0.150356
    13  C   -0.257232
    14  C    0.584974
    15  O   -0.447930
    16  O   -0.444927
    17  N   -0.681071
    18  C    0.305607
    19  C    0.091500
    20  C   -0.042030
    21  C    0.313342
    22  C   -0.398072
    23  C    0.252218
    24  O   -0.437904
    25  N   -0.651797
    26  C    0.314191
    27  C   -0.077562
    28  C    0.074532
    29  C    0.206423
    30  C    0.245545
    31  C   -0.261977
    32  C   -0.291955
    33  N   -0.749107
    34  C    0.325669
    35  C   -0.035982
    36  C    0.058937
    37  C    0.311878
    38  C   -0.363990
    39  C    0.359787
    40  O   -0.453750
    41  C   -0.367382
    42  C    0.631655
    43  O   -0.459327
    44  O   -0.425737
    45  C   -0.093310
    46  C   -0.023428
    47  C   -0.109282
    48  C    0.109201
    49  C   -0.367985
    50  C   -0.238838
    51  C   -0.180233
    52  C   -0.162859
    53  C   -0.040426
    54  C   -0.292285
    55  C   -0.154970
    56  C   -0.169219
    57  C   -0.167140
    58  C   -0.042225
    59  C   -0.313465
    60  C   -0.146237
    61  C   -0.173801
    62  C   -0.132455
    63  C   -0.061224
    64  C   -0.318259
    65  C   -0.313932
    66  H    0.059309
    67  H    0.155087
    68  H    0.100736
    69  H    0.122996
    70  H    0.109392
    71  H    0.121268
    72  H    0.091694
    73  H    0.142265
    74  H    0.119431
    75  H    0.108973
    76  H    0.130440
    77  H    0.138099
    78  H    0.132911
    79  H    0.147789
    80  H    0.120082
    81  H    0.089456
    82  H    0.091741
    83  H    0.112624
    84  H    0.127334
    85  H    0.129707
    86  H    0.095610
    87  H    0.125076
    88  H    0.134758
    89  H    0.126057
    90  H    0.144185
    91  H    0.108287
    92  H    0.117565
    93  H    0.082969
    94  H    0.130855
    95  H    0.120032
    96  H    0.137222
    97  H    0.113962
    98  H    0.084016
    99  H    0.098127
   100  H    0.072282
   101  H    0.070928
   102  H    0.098403
   103  H    0.087045
   104  H    0.081395
   105  H    0.115676
   106  H    0.084014
   107  H    0.079454
   108  H    0.052942
   109  H    0.074975
   110  H    0.090326
   111  H    0.053313
   112  H    0.094066
   113  H    0.082287
   114  H    0.102113
   115  H    0.086168
   116  H    0.110040
   117  H    0.091583
   118  H    0.073274
   119  H    0.083880
   120  H    0.089511
   121  H    0.027615
   122  H    0.087141
   123  H    0.085025
   124  H    0.115897
   125  H    0.075772
   126  H    0.105369
   127  H    0.103356
   128  H    0.105601
   129  H    0.106937
   130  H    0.127571
   131  H    0.108332
   132  H    0.119436
   133  O   -0.444907
   134  H    0.067877
 Sum of Mulliken charges =  -0.00000

 Dipole moment (field-independent basis, Debye):
    X=              2.7011    Y=             -4.9097    Z=             -0.4629  Tot=              5.6228
 Quadrupole moment (field-independent basis, Debye-Ang):
   XX=           -376.3799   YY=           -452.4589   ZZ=           -392.1108
   XY=             10.2834   XZ=             19.4653   YZ=            -34.8568

 Normal termination of Gaussian 16 at Thu Oct  3 22:44:11 2019.
