 Gaussian 16, Revision A.03,
 Gaussian 16:  ES64L-G16RevA.03 25-Dec-2016

 ----------------------------------------------------------------------
 # td=(NStates=1) iop(3/107=0140000000,3/108=0140000000) iop(3/107=0140
 000000,3/108=0140000000) CAM-B3LYP/6-31G(d,p)
 ----------------------------------------------------------------------

 --
 TD
 --
 Symbolic Z-matrix:
 Charge =  0 Multiplicity = 1

                         Standard orientation:
 ---------------------------------------------------------------------
 Center     Atomic      Atomic             Coordinates (Angstroms)
 Number     Number       Type             X           Y           Z
 ---------------------------------------------------------------------
      1         12           0       -5.635355    1.169002    0.246416
      2          6           0       -5.024014   -2.142641   -0.330320
      3          6           0       -3.433825    1.120061    2.815157
      4          6           0       -6.316199    4.442971    0.697504
      5          6           0       -8.004355    1.247987   -2.476966
      6          7           0       -4.332023   -0.318184    1.088506
      7          6           0       -4.301686   -1.663400    0.663853
      8          6           0       -3.135484   -2.403021    1.442273
      9          6           0       -2.859624   -1.356598    2.623048
     10          6           0       -3.596891   -0.153390    2.126467
     11          6           0       -3.469665   -1.910967    3.879076
     12          6           0       -1.984032   -2.623889    0.688989
     13          6           0       -0.993787   -3.552357    1.406134
     14          6           0        0.265689   -3.933912    0.622175
     15          8           0        0.512056   -3.431747   -0.499996
     16          8           0        1.126696   -4.677024    1.305438
     17          7           0       -4.869979    2.552358    1.469098
     18          6           0       -3.973477    2.348127    2.394447
     19          6           0       -3.717346    3.604819    3.253000
     20          6           0       -4.554425    4.601578    2.645427
     21          6           0       -5.307867    3.918990    1.495828
     22          6           0       -2.782148    3.662061    4.340446
     23          6           0       -4.723889    5.963229    3.053061
     24          8           0       -4.336703    6.450430    4.085795
     25          7           0       -6.849573    2.628060   -0.821526
     26          6           0       -6.999337    3.871378   -0.429616
     27          6           0       -7.965725    4.563798   -1.112337
     28          6           0       -8.485054    3.627878   -2.070977
     29          6           0       -7.789488    2.388171   -1.805667
     30          6           0       -8.416712    5.922925   -1.068812
     31          6           0       -9.566033    3.828430   -3.208785
     32          6           0       -8.974004    4.060329   -4.580672
     33          7           0       -6.412565   -0.107263   -1.042892
     34          6           0       -7.464849   -0.001690   -2.142134
     35          6           0       -7.610849   -1.333561   -2.765559
     36          6           0       -6.632661   -2.171432   -2.111115
     37          6           0       -6.120697   -1.413795   -1.118149
     38          6           0       -8.515404   -1.665771   -3.796293
     39          6           0       -6.073390   -3.508418   -2.092210
     40          8           0       -6.548599   -4.464070   -2.691907
     41          6           0       -5.006972   -3.502866   -1.033488
     42          6           0       -5.210991   -4.547206    0.029811
     43          8           0       -5.839132   -4.416566    1.146556
     44          8           0       -4.904975   -5.792905   -0.416109
     45          6           0       -5.205337   -6.857123    0.474998
     46          6           0        2.335147   -5.030037    0.675937
     47          6           0        3.465096   -4.005254    0.940699
     48          6           0        4.131527   -3.198923    0.169744
     49          6           0        3.866756   -3.045542   -1.284378
     50          6           0        5.245207   -2.346520    0.786899
     51          6           0        6.584437   -2.692935    0.173894
     52          6           0        7.599070   -1.835662    0.709862
     53          6           0        9.022128   -1.878686   -0.015344
     54          6           0        9.704209   -3.307373    0.090372
     55          6           0       10.064109   -0.884146    0.561225
     56          6           0       11.390877   -0.861211   -0.258047
     57          6           0       12.193191    0.296611    0.167628
     58          6           0       13.508633    0.457187   -0.575787
     59          6           0       14.460028   -0.748658   -0.423437
     60          6           0       14.329136    1.727346   -0.171303
     61          6           0       15.502961    2.200424   -1.069330
     62          6           0       16.073351    3.599015   -0.698195
     63          6           0       17.328906    3.967153   -1.411933
     64          6           0       17.156083    4.109902   -2.909348
     65          6           0       17.926944    5.289111   -0.828997
     66          1           0       -2.786929    1.106449    3.744650
     67          1           0       -6.611732    5.603611    0.843639
     68          1           0       -8.751933    1.213440   -3.278200
     69          1           0       -3.509898   -3.443076    1.832136
     70          1           0       -1.835370   -1.062145    2.774588
     71          1           0       -3.057027   -2.809746    4.054518
     72          1           0       -3.361388   -1.524087    4.980645
     73          1           0       -4.769103   -1.886930    3.825459
     74          1           0       -2.000759   -3.220744   -0.457749
     75          1           0       -1.557775   -1.762861    0.278783
     76          1           0       -0.695737   -3.088481    2.278157
     77          1           0       -1.511313   -4.448686    1.763257
     78          1           0       -1.862887    3.224592    4.120484
     79          1           0       -2.603961    4.585433    4.694641
     80          1           0       -3.483401    2.998350    5.081342
     81          1           0       -5.252616    6.727123    2.188735
     82          1           0      -10.245749    2.940120   -3.118633
     83          1           0      -10.135870    4.685865   -3.225967
     84          1           0       -9.892272    4.205972   -5.412801
     85          1           0       -8.216394    4.855803   -4.383735
     86          1           0       -8.518531    3.040035   -4.817727
     87          1           0       -8.547563   -1.027380   -4.744652
     88          1           0       -8.472027   -2.730874   -4.135643
     89          1           0       -9.613808   -1.367660   -3.600789
     90          1           0       -4.109591   -3.801386   -1.804485
     91          1           0        2.665100   -6.081601    1.282454
     92          1           0        2.320308   -5.201560   -0.288947
     93          1           0        3.983627   -4.276429    1.938111
     94          1           0        2.850610   -3.161895   -1.482429
     95          1           0        4.005432   -1.937809   -1.493875
     96          1           0        4.542666   -3.646288   -1.781890
     97          1           0        5.008824   -1.214660    0.457387
     98          1           0        5.193925   -2.325513    2.051769
     99          1           0        6.824730   -3.587372    0.274035
    100          1           0        6.593404   -2.325791   -0.970196
    101          1           0        7.293229   -0.735998    0.747444
    102          1           0        7.806554   -2.224382    1.813343
    103          1           0        8.868186   -1.606775   -1.108675
    104          1           0        8.921420   -4.083141   -0.178095
    105          1           0       10.494919   -3.788191   -0.626897
    106          1           0        9.908185   -3.458419    1.133418
    107          1           0        9.650888    0.065298    0.718065
    108          1           0       10.395552   -1.096257    1.455986
    109          1           0       11.806822   -1.802734   -0.252118
    110          1           0       11.035472   -0.846269   -1.386738
    111          1           0       11.604285    1.251115   -0.123929
    112          1           0       12.434999    0.456555    1.296572
    113          1           0       13.193883    0.342067   -1.590962
    114          1           0       14.781577   -0.789149    0.486654
    115          1           0       13.949001   -1.576274   -0.735079
    116          1           0       15.307109   -0.628475   -0.940795
    117          1           0       13.445857    2.416816    0.098556
    118          1           0       14.888615    1.406530    0.853060
    119          1           0       16.505382    1.372814   -1.033228
    120          1           0       15.193246    2.394943   -2.149860
    121          1           0       15.193996    4.285130   -0.995944
    122          1           0       16.149635    3.613407    0.484638
    123          1           0       18.058895    3.124785   -1.490039
    124          1           0       16.521182    4.988396   -2.990385
    125          1           0       18.003091    4.441605   -3.373131
    126          1           0       16.812158    3.091920   -3.320934
    127          1           0       17.962322    5.127425    0.190683
    128          1           0       18.924686    5.522992   -1.122704
    129          1           0       17.226869    6.171306   -1.187128
    130          1           0       -4.972096   -7.942576    0.050389
    131          1           0       -6.136346   -6.885990    0.691510
    132          1           0       -4.671142   -6.754382    1.494409
    133          8           0       -7.865204    6.829576   -0.333910
    134          1           0       -9.046904    6.142733   -1.783923
 ---------------------------------------------------------------------

 SCF Done:  E(RCAM-B3LYP) =  -3043.35492014     A.U. after   15 cycles

 Excitation energies and oscillator strengths:

 Excited State   1:      Singlet-A      2.2052 eV  562.23 nm  f=0.1529  <S**2>=0.000
     243 -> 246        0.23435
     244 -> 245        0.63962
     244 -> 246        0.12838
 This state for optimization and/or second-order correction.
 Total Energy, E(TD-HF/TD-DFT) =  -3043.27388006
 Copying the excited state density for this state as the 1-particle RhoCI density.

 The electronic state is 1-A.
 Alpha  occ. eigenvalues --  -46.81871 -19.23985 -19.23427 -19.17241 -19.17237
 Alpha  occ. eigenvalues --  -19.16996 -19.16789 -19.16316 -14.38831 -14.37205
 Alpha  occ. eigenvalues --  -14.37156 -14.36511 -10.36205 -10.35897 -10.31368
 Alpha  occ. eigenvalues --  -10.30655 -10.29047 -10.28594 -10.28089 -10.27731
 Alpha  occ. eigenvalues --  -10.27622 -10.27165 -10.27097 -10.26808 -10.26793
 Alpha  occ. eigenvalues --  -10.26535 -10.26308 -10.26133 -10.25846 -10.25555
 Alpha  occ. eigenvalues --  -10.25514 -10.25377 -10.24941 -10.24927 -10.24282
 Alpha  occ. eigenvalues --  -10.24244 -10.24244 -10.24237 -10.23872 -10.23723
 Alpha  occ. eigenvalues --  -10.23703 -10.23622 -10.23394 -10.23365 -10.23232
 Alpha  occ. eigenvalues --  -10.23010 -10.22933 -10.22705 -10.22602 -10.22456
 Alpha  occ. eigenvalues --  -10.22179 -10.22121 -10.21885 -10.21804 -10.21502
 Alpha  occ. eigenvalues --  -10.21484 -10.21239 -10.21140 -10.20660 -10.20527
 Alpha  occ. eigenvalues --  -10.20285 -10.20026 -10.20010 -10.19309 -10.18767
 Alpha  occ. eigenvalues --  -10.16004  -3.10426  -1.85360  -1.84911  -1.84829
 Alpha  occ. eigenvalues --   -1.15024  -1.13200  -1.07108  -1.06691  -1.03853
 Alpha  occ. eigenvalues --   -1.02597  -1.01952  -1.01355  -1.00837  -0.99060
 Alpha  occ. eigenvalues --   -0.97924  -0.88811  -0.87626  -0.86949  -0.85638
 Alpha  occ. eigenvalues --   -0.85489  -0.84565  -0.84502  -0.84415  -0.84135
 Alpha  occ. eigenvalues --   -0.83787  -0.83443  -0.82203  -0.81298  -0.80416
 Alpha  occ. eigenvalues --   -0.80002  -0.78805  -0.78302  -0.77388  -0.77185
 Alpha  occ. eigenvalues --   -0.75983  -0.75694  -0.74622  -0.73522  -0.72960
 Alpha  occ. eigenvalues --   -0.71807  -0.71300  -0.71250  -0.69869  -0.69764
 Alpha  occ. eigenvalues --   -0.69509  -0.68999  -0.68271  -0.67091  -0.65779
 Alpha  occ. eigenvalues --   -0.65260  -0.65115  -0.64480  -0.62939  -0.62220
 Alpha  occ. eigenvalues --   -0.61421  -0.61326  -0.60954  -0.60541  -0.59851
 Alpha  occ. eigenvalues --   -0.59313  -0.58554  -0.57889  -0.57733  -0.57212
 Alpha  occ. eigenvalues --   -0.56541  -0.56132  -0.55595  -0.55391  -0.54416
 Alpha  occ. eigenvalues --   -0.53646  -0.53418  -0.53188  -0.52825  -0.52585
 Alpha  occ. eigenvalues --   -0.51969  -0.51911  -0.51647  -0.51455  -0.50560
 Alpha  occ. eigenvalues --   -0.50467  -0.50182  -0.49877  -0.49657  -0.49310
 Alpha  occ. eigenvalues --   -0.49016  -0.48703  -0.48544  -0.48314  -0.48213
 Alpha  occ. eigenvalues --   -0.47949  -0.47747  -0.47589  -0.47462  -0.47065
 Alpha  occ. eigenvalues --   -0.46838  -0.46756  -0.46515  -0.46290  -0.46057
 Alpha  occ. eigenvalues --   -0.45920  -0.45627  -0.45387  -0.45278  -0.44971
 Alpha  occ. eigenvalues --   -0.44817  -0.44717  -0.44401  -0.44103  -0.43804
 Alpha  occ. eigenvalues --   -0.43669  -0.43575  -0.43522  -0.43251  -0.43031
 Alpha  occ. eigenvalues --   -0.42718  -0.42442  -0.42273  -0.41843  -0.41797
 Alpha  occ. eigenvalues --   -0.41695  -0.41432  -0.41180  -0.41073  -0.40820
 Alpha  occ. eigenvalues --   -0.40725  -0.40651  -0.40349  -0.40052  -0.39907
 Alpha  occ. eigenvalues --   -0.39848  -0.39502  -0.39426  -0.39275  -0.39102
 Alpha  occ. eigenvalues --   -0.39026  -0.38493  -0.38466  -0.38206  -0.37988
 Alpha  occ. eigenvalues --   -0.37878  -0.37770  -0.37642  -0.37430  -0.36779
 Alpha  occ. eigenvalues --   -0.36411  -0.36328  -0.35963  -0.35796  -0.35575
 Alpha  occ. eigenvalues --   -0.35421  -0.35055  -0.34879  -0.34857  -0.34753
 Alpha  occ. eigenvalues --   -0.34435  -0.33900  -0.33342  -0.33187  -0.32919
 Alpha  occ. eigenvalues --   -0.32912  -0.32507  -0.32071  -0.31730  -0.31560
 Alpha  occ. eigenvalues --   -0.31478  -0.30782  -0.30604  -0.30567  -0.29966
 Alpha  occ. eigenvalues --   -0.28443  -0.28285  -0.27844  -0.27768  -0.27519
 Alpha  occ. eigenvalues --   -0.27248  -0.27096  -0.23464  -0.22052
 Alpha virt. eigenvalues --   -0.08287  -0.06494  -0.01509  -0.01359  -0.00294
 Alpha virt. eigenvalues --    0.01682   0.02572   0.03262   0.04224   0.04586
 Alpha virt. eigenvalues --    0.04624   0.05437   0.06871   0.07803   0.08766

 Mulliken charges:
               1
     1  Mg   0.830703
     2  C    0.049939
     3  C   -0.222882
     4  C   -0.214759
     5  C   -0.154012
     6  N   -0.629653
     7  C    0.275512
     8  C   -0.158257
     9  C   -0.155838
    10  C    0.385160
    11  C   -0.293117
    12  C   -0.140174
    13  C   -0.267524
    14  C    0.592044
    15  O   -0.487213
    16  O   -0.420774
    17  N   -0.711563
    18  C    0.361290
    19  C    0.034458
    20  C   -0.010631
    21  C    0.300169
    22  C   -0.349857
    23  C    0.219614
    24  O   -0.407916
    25  N   -0.690528
    26  C    0.347224
    27  C   -0.027576
    28  C   -0.000511
    29  C    0.300121
    30  C    0.258324
    31  C   -0.243449
    32  C   -0.290352
    33  N   -0.705306
    34  C    0.203759
    35  C    0.080627
    36  C    0.037554
    37  C    0.314241
    38  C   -0.437731
    39  C    0.355440
    40  O   -0.460969
    41  C   -0.300580
    42  C    0.637941
    43  O   -0.507900
    44  O   -0.431339
    45  C   -0.074627
    46  C    0.015541
    47  C   -0.144876
    48  C    0.137481
    49  C   -0.372282
    50  C   -0.216841
    51  C   -0.116334
    52  C   -0.173213
    53  C   -0.064010
    54  C   -0.328361
    55  C   -0.164426
    56  C   -0.184941
    57  C   -0.167775
    58  C   -0.062677
    59  C   -0.306541
    60  C   -0.166917
    61  C   -0.163448
    62  C   -0.142610
    63  C   -0.064119
    64  C   -0.303702
    65  C   -0.306375
    66  H    0.079921
    67  H    0.148986
    68  H    0.096659
    69  H    0.115410
    70  H    0.120654
    71  H    0.126539
    72  H    0.098368
    73  H    0.097699
    74  H    0.077793
    75  H    0.127294
    76  H    0.139507
    77  H    0.129775
    78  H    0.137457
    79  H    0.156578
    80  H    0.127353
    81  H    0.048059
    82  H    0.107592
    83  H    0.126423
    84  H    0.092508
    85  H    0.124574
    86  H    0.099862
    87  H    0.125008
    88  H    0.156811
    89  H    0.126723
    90  H    0.162685
    91  H    0.085715
    92  H    0.131811
    93  H    0.065987
    94  H    0.153540
    95  H    0.096510
    96  H    0.132931
    97  H    0.083546
    98  H    0.075344
    99  H    0.107188
   100  H    0.078219
   101  H    0.087024
   102  H    0.064585
   103  H    0.073422
   104  H    0.082092
   105  H    0.101337
   106  H    0.114446
   107  H    0.083870
   108  H    0.103490
   109  H    0.114464
   110  H    0.070191
   111  H    0.082919
   112  H    0.077187
   113  H    0.082298
   114  H    0.101082
   115  H    0.093777
   116  H    0.104700
   117  H    0.079510
   118  H    0.070092
   119  H    0.053361
   120  H    0.096784
   121  H    0.083725
   122  H    0.072668
   123  H    0.082645
   124  H    0.090130
   125  H    0.109911
   126  H    0.095032
   127  H    0.111640
   128  H    0.103958
   129  H    0.084008
   130  H    0.107766
   131  H    0.149323
   132  H    0.107858
   133  O   -0.466110
   134  H    0.077130
 Sum of Mulliken charges =  -0.00000

 Dipole moment (field-independent basis, Debye):
    X=              2.6135    Y=             -5.3423    Z=             -1.0123  Tot=              6.0329
 Quadrupole moment (field-independent basis, Debye-Ang):
   XX=           -379.4504   YY=           -444.4068   ZZ=           -392.4412
   XY=              8.3622   XZ=             28.7123   YZ=            -35.4854

 Normal termination of Gaussian 16 at Sat Oct  5 09:06:16 2019.
