 Gaussian 16, Revision A.03,
 Gaussian 16:  ES64L-G16RevA.03 25-Dec-2016

 ----------------------------------------------------------------------
 # td=(NStates=1) iop(3/107=0140000000,3/108=0140000000) iop(3/107=0140
 000000,3/108=0140000000) CAM-B3LYP/6-31G(d,p)
 ----------------------------------------------------------------------

 --
 TD
 --
 Symbolic Z-matrix:
 Charge =  0 Multiplicity = 1

                         Standard orientation:
 ---------------------------------------------------------------------
 Center     Atomic      Atomic             Coordinates (Angstroms)
 Number     Number       Type             X           Y           Z
 ---------------------------------------------------------------------
      1         12           0       -5.492370    1.264200    0.098325
      2          6           0       -4.910763   -2.180548   -0.451264
      3          6           0       -3.504791    1.104509    2.833818
      4          6           0       -6.175171    4.552518    0.676531
      5          6           0       -7.937869    1.247453   -2.387728
      6          7           0       -4.363225   -0.317300    1.046170
      7          6           0       -4.309920   -1.687860    0.705154
      8          6           0       -3.300730   -2.478141    1.487985
      9          6           0       -3.052487   -1.488503    2.716010
     10          6           0       -3.646332   -0.108067    2.211055
     11          6           0       -3.664617   -1.893762    4.073706
     12          6           0       -1.975245   -2.778766    0.756041
     13          6           0       -1.025751   -3.650796    1.437611
     14          6           0        0.191422   -3.882496    0.573534
     15          8           0        0.500390   -3.401218   -0.498575
     16          8           0        1.059583   -4.810045    1.268440
     17          7           0       -4.856081    2.565118    1.407377
     18          6           0       -4.078498    2.332580    2.413057
     19          6           0       -3.727244    3.539727    3.212924
     20          6           0       -4.483783    4.572469    2.613860
     21          6           0       -5.181598    3.913112    1.516133
     22          6           0       -2.895765    3.648224    4.500922
     23          6           0       -4.609055    6.029710    3.024800
     24          8           0       -3.890779    6.509285    3.936323
     25          7           0       -6.868682    2.711995   -0.698311
     26          6           0       -7.000902    3.957723   -0.337757
     27          6           0       -7.911916    4.668965   -1.173211
     28          6           0       -8.468083    3.698416   -2.081216
     29          6           0       -7.776527    2.455191   -1.662266
     30          6           0       -8.229403    6.042304   -1.124690
     31          6           0       -9.437283    3.957225   -3.123821
     32          6           0       -8.637018    4.125226   -4.541727
     33          7           0       -6.357191   -0.047141   -1.125444
     34          6           0       -7.350478    0.027031   -2.063650
     35          6           0       -7.474599   -1.305452   -2.709999
     36          6           0       -6.598937   -2.190539   -2.126330
     37          6           0       -5.915173   -1.378856   -1.126468
     38          6           0       -8.345084   -1.455036   -3.897895
     39          6           0       -6.089060   -3.470545   -2.171728
     40          8           0       -6.463335   -4.403560   -2.858963
     41          6           0       -4.914452   -3.644194   -1.046546
     42          6           0       -5.229012   -4.600124    0.095324
     43          8           0       -5.681201   -4.495233    1.207217
     44          8           0       -4.991089   -5.894730   -0.455450
     45          6           0       -5.359462   -6.996427    0.414386
     46          6           0        2.293359   -5.034552    0.595584
     47          6           0        3.438356   -4.109790    0.943265
     48          6           0        3.981269   -3.157267    0.251022
     49          6           0        3.573890   -2.965940   -1.215937
     50          6           0        5.237572   -2.412756    0.803912
     51          6           0        6.503218   -2.665661    0.000009
     52          6           0        7.630636   -1.841510    0.639228
     53          6           0        9.000677   -2.056530   -0.109112
     54          6           0        9.555152   -3.407422    0.107240
     55          6           0        9.997539   -0.888233    0.430961
     56          6           0       11.353384   -0.867249   -0.370258
     57          6           0       12.178965    0.238465    0.157167
     58          6           0       13.488322    0.470534   -0.633975
     59          6           0       14.410320   -0.766011   -0.300044
     60          6           0       14.154431    1.719731   -0.147438
     61          6           0       15.212319    2.285299   -1.059360
     62          6           0       15.908939    3.592711   -0.646154
     63          6           0       17.206456    3.894951   -1.389667
     64          6           0       17.097844    4.216248   -2.910482
     65          6           0       17.900262    5.154180   -0.603656
     66          1           0       -3.038825    1.090624    3.722002
     67          1           0       -6.289974    5.590758    0.512934
     68          1           0       -8.573765    1.170621   -3.215839
     69          1           0       -3.602314   -3.342120    1.976978
     70          1           0       -1.835115   -1.463525    2.836495
     71          1           0       -3.015401   -2.767115    4.520612
     72          1           0       -3.909460   -1.286851    4.795604
     73          1           0       -4.755529   -2.378840    3.968126
     74          1           0       -2.128369   -3.078355   -0.317006
     75          1           0       -1.687384   -1.644737    0.504828
     76          1           0       -0.638634   -3.416874    2.478895
     77          1           0       -1.536714   -4.619464    1.571183
     78          1           0       -1.855149    3.540499    4.205774
     79          1           0       -3.047596    4.521667    5.060868
     80          1           0       -3.069754    2.740033    5.142377
     81          1           0       -5.602529    6.501186    2.544560
     82          1           0      -10.028686    3.344727   -3.080364
     83          1           0       -9.945877    4.843730   -3.139249
     84          1           0       -9.308166    4.176007   -5.511547
     85          1           0       -8.178298    5.058053   -4.301847
     86          1           0       -7.943676    3.479659   -4.813803
     87          1           0       -8.091940   -0.774644   -4.715172
     88          1           0       -8.242821   -2.557794   -4.241051
     89          1           0       -9.383934   -1.272306   -3.609228
     90          1           0       -4.075474   -4.156874   -1.524137
     91          1           0        2.582714   -6.157274    0.749045
     92          1           0        2.324408   -4.853320   -0.371744
     93          1           0        3.752649   -4.250399    2.079348
     94          1           0        2.587907   -3.331540   -1.432460
     95          1           0        3.648817   -1.910530   -1.589732
     96          1           0        4.378448   -3.493840   -1.744685
     97          1           0        4.975405   -1.340580    0.710569
     98          1           0        5.379058   -2.832581    1.723202
     99          1           0        6.858567   -3.757805   -0.064167
    100          1           0        6.258133   -2.300506   -0.896661
    101          1           0        7.153437   -0.973928    0.243288
    102          1           0        7.784446   -2.128972    1.683397
    103          1           0        8.894361   -1.881528   -1.166435
    104          1           0        8.943277   -4.200541   -0.361706
    105          1           0       10.611316   -3.690220   -0.187292
    106          1           0        9.737810   -3.749949    1.272490
    107          1           0        9.267111    0.013054    0.160639
    108          1           0       10.393241   -0.821873    1.454911
    109          1           0       11.866210   -1.993597   -0.180345
    110          1           0       11.030093   -0.966614   -1.234600
    111          1           0       11.527993    1.098899   -0.029140
    112          1           0       12.442278    0.344578    1.287088
    113          1           0       13.454464    0.466797   -1.769337
    114          1           0       14.588815   -0.675783    0.677709
    115          1           0       13.800195   -1.714229   -0.746452
    116          1           0       15.390254   -0.790210   -0.948111
    117          1           0       13.279666    2.534635   -0.158990
    118          1           0       14.715576    1.873334    0.931383
    119          1           0       16.165319    1.701892   -1.226017
    120          1           0       14.947080    2.360626   -1.919455
    121          1           0       15.124226    4.553304   -0.870605
    122          1           0       16.143213    3.426292    0.443490
    123          1           0       18.005240    3.155857   -1.175146
    124          1           0       16.384932    5.058390   -2.946321
    125          1           0       17.948250    4.491821   -3.284205
    126          1           0       16.642384    3.285530   -3.289764
    127          1           0       18.131910    5.123656    0.536084
    128          1           0       18.767065    5.497979   -1.153290
    129          1           0       17.246056    6.104820   -0.657821
    130          1           0       -5.006243   -7.716801   -0.438120
    131          1           0       -6.543452   -7.014904    0.481366
    132          1           0       -4.794458   -6.681247    1.395460
    133          8           0       -7.724375    6.830480   -0.319641
    134          1           0       -9.035578    6.111534   -1.855255
 ---------------------------------------------------------------------

 SCF Done:  E(RCAM-B3LYP) =  -3043.33349564     A.U. after   16 cycles

 Excitation energies and oscillator strengths:

 Excited State   1:      Singlet-A      2.0435 eV  606.74 nm  f=0.1412  <S**2>=0.000
     243 -> 246        0.29878
     244 -> 245        0.62562
 This state for optimization and/or second-order correction.
 Total Energy, E(TD-HF/TD-DFT) =  -3043.25839988
 Copying the excited state density for this state as the 1-particle RhoCI density.

 The electronic state is 1-A.
 Alpha  occ. eigenvalues --  -46.82066 -19.21785 -19.20800 -19.19405 -19.18833
 Alpha  occ. eigenvalues --  -19.18317 -19.17419 -19.17060 -14.39204 -14.37905
 Alpha  occ. eigenvalues --  -14.37616 -14.36967 -10.36437 -10.35445 -10.32369
 Alpha  occ. eigenvalues --  -10.31766 -10.29686 -10.28735 -10.28025 -10.27784
 Alpha  occ. eigenvalues --  -10.27578 -10.27382 -10.27296 -10.26725 -10.26412
 Alpha  occ. eigenvalues --  -10.26341 -10.26141 -10.25928 -10.25907 -10.25590
 Alpha  occ. eigenvalues --  -10.25501 -10.25260 -10.25182 -10.24953 -10.24633
 Alpha  occ. eigenvalues --  -10.24459 -10.23993 -10.23825 -10.23444 -10.23127
 Alpha  occ. eigenvalues --  -10.22869 -10.22678 -10.22367 -10.22362 -10.22270
 Alpha  occ. eigenvalues --  -10.22239 -10.22218 -10.22218 -10.22027 -10.21890
 Alpha  occ. eigenvalues --  -10.21816 -10.21802 -10.21575 -10.21545 -10.21430
 Alpha  occ. eigenvalues --  -10.21414 -10.21003 -10.20770 -10.20743 -10.20671
 Alpha  occ. eigenvalues --  -10.20577 -10.20461 -10.20291 -10.20156 -10.19622
 Alpha  occ. eigenvalues --  -10.18238  -3.10717  -1.85639  -1.85175  -1.85155
 Alpha  occ. eigenvalues --   -1.12290  -1.12138  -1.07392  -1.05957  -1.05309
 Alpha  occ. eigenvalues --   -1.04947  -1.04412  -1.02056  -1.01285  -0.99517
 Alpha  occ. eigenvalues --   -0.98044  -0.88443  -0.86916  -0.86738  -0.86275
 Alpha  occ. eigenvalues --   -0.85546  -0.84585  -0.84099  -0.83740  -0.83367
 Alpha  occ. eigenvalues --   -0.83286  -0.83004  -0.81762  -0.80616  -0.80159
 Alpha  occ. eigenvalues --   -0.79758  -0.78609  -0.78261  -0.77018  -0.76307
 Alpha  occ. eigenvalues --   -0.75597  -0.75184  -0.74111  -0.72672  -0.71451
 Alpha  occ. eigenvalues --   -0.71358  -0.70911  -0.70682  -0.69628  -0.69419
 Alpha  occ. eigenvalues --   -0.69157  -0.68796  -0.68595  -0.67505  -0.67051
 Alpha  occ. eigenvalues --   -0.66441  -0.65340  -0.64523  -0.62582  -0.62163
 Alpha  occ. eigenvalues --   -0.61699  -0.61049  -0.60799  -0.59761  -0.59477
 Alpha  occ. eigenvalues --   -0.59458  -0.58438  -0.57670  -0.57041  -0.56994
 Alpha  occ. eigenvalues --   -0.56790  -0.56192  -0.55036  -0.54766  -0.54661
 Alpha  occ. eigenvalues --   -0.54159  -0.53876  -0.53450  -0.53154  -0.52700
 Alpha  occ. eigenvalues --   -0.52446  -0.51870  -0.51365  -0.50897  -0.50749
 Alpha  occ. eigenvalues --   -0.50557  -0.50035  -0.49632  -0.49501  -0.49442
 Alpha  occ. eigenvalues --   -0.48902  -0.48705  -0.48448  -0.48224  -0.47985
 Alpha  occ. eigenvalues --   -0.47677  -0.47542  -0.47257  -0.47082  -0.46892
 Alpha  occ. eigenvalues --   -0.46720  -0.46527  -0.46493  -0.46044  -0.45818
 Alpha  occ. eigenvalues --   -0.45657  -0.45515  -0.45408  -0.45016  -0.44877
 Alpha  occ. eigenvalues --   -0.44633  -0.44521  -0.44354  -0.44200  -0.43905
 Alpha  occ. eigenvalues --   -0.43700  -0.43629  -0.43341  -0.43283  -0.42915
 Alpha  occ. eigenvalues --   -0.42748  -0.42678  -0.42471  -0.42132  -0.41843
 Alpha  occ. eigenvalues --   -0.41744  -0.41676  -0.41380  -0.41104  -0.41071
 Alpha  occ. eigenvalues --   -0.40998  -0.40812  -0.40755  -0.40502  -0.40434
 Alpha  occ. eigenvalues --   -0.40304  -0.40125  -0.39966  -0.39676  -0.39525
 Alpha  occ. eigenvalues --   -0.39261  -0.39212  -0.38874  -0.38855  -0.38587
 Alpha  occ. eigenvalues --   -0.38425  -0.38093  -0.37663  -0.37157  -0.37009
 Alpha  occ. eigenvalues --   -0.36453  -0.36400  -0.36087  -0.35957  -0.35670
 Alpha  occ. eigenvalues --   -0.35369  -0.35123  -0.35055  -0.34649  -0.34452
 Alpha  occ. eigenvalues --   -0.34380  -0.34036  -0.33773  -0.32997  -0.32663
 Alpha  occ. eigenvalues --   -0.32631  -0.32431  -0.32109  -0.31841  -0.31565
 Alpha  occ. eigenvalues --   -0.31281  -0.31256  -0.30587  -0.29990  -0.29342
 Alpha  occ. eigenvalues --   -0.29259  -0.28620  -0.28537  -0.28355  -0.28042
 Alpha  occ. eigenvalues --   -0.27715  -0.27453  -0.22986  -0.21878
 Alpha virt. eigenvalues --   -0.08542  -0.07068  -0.02392  -0.01748  -0.00167
 Alpha virt. eigenvalues --    0.01707   0.01798   0.02269   0.04231   0.04642
 Alpha virt. eigenvalues --    0.05316   0.05625   0.07224   0.08241   0.08652

 Mulliken charges:
               1
     1  Mg   0.849423
     2  C   -0.002701
     3  C   -0.166859
     4  C   -0.170501
     5  C   -0.156838
     6  N   -0.636871
     7  C    0.305433
     8  C   -0.140882
     9  C   -0.144523
    10  C    0.347575
    11  C   -0.311424
    12  C   -0.172557
    13  C   -0.264712
    14  C    0.616137
    15  O   -0.443223
    16  O   -0.492989
    17  N   -0.708165
    18  C    0.347070
    19  C    0.015714
    20  C   -0.013809
    21  C    0.263575
    22  C   -0.368381
    23  C    0.248960
    24  O   -0.420606
    25  N   -0.651630
    26  C    0.295010
    27  C   -0.043750
    28  C    0.015204
    29  C    0.268714
    30  C    0.266226
    31  C   -0.203562
    32  C   -0.326653
    33  N   -0.726665
    34  C    0.299279
    35  C   -0.007519
    36  C    0.126710
    37  C    0.280872
    38  C   -0.396202
    39  C    0.315309
    40  O   -0.447689
    41  C   -0.286216
    42  C    0.614709
    43  O   -0.456105
    44  O   -0.489753
    45  C   -0.075116
    46  C    0.023167
    47  C   -0.148224
    48  C    0.132162
    49  C   -0.391819
    50  C   -0.213562
    51  C   -0.203784
    52  C   -0.142081
    53  C   -0.067639
    54  C   -0.305599
    55  C   -0.181872
    56  C   -0.141710
    57  C   -0.170082
    58  C   -0.070655
    59  C   -0.285193
    60  C   -0.153858
    61  C   -0.156134
    62  C   -0.143377
    63  C   -0.076088
    64  C   -0.297206
    65  C   -0.325905
    66  H    0.065043
    67  H    0.131834
    68  H    0.086755
    69  H    0.123394
    70  H    0.087548
    71  H    0.093140
    72  H    0.132188
    73  H    0.105334
    74  H    0.123685
    75  H    0.101178
    76  H    0.151758
    77  H    0.152456
    78  H    0.135469
    79  H    0.160819
    80  H    0.111156
    81  H    0.101564
    82  H    0.097507
    83  H    0.127008
    84  H    0.092487
    85  H    0.121069
    86  H    0.130424
    87  H    0.133823
    88  H    0.138547
    89  H    0.132707
    90  H    0.164582
    91  H    0.096836
    92  H    0.116588
    93  H    0.052697
    94  H    0.152907
    95  H    0.097672
    96  H    0.121300
    97  H    0.098790
    98  H    0.104782
    99  H    0.085449
   100  H    0.104960
   101  H    0.096212
   102  H    0.101551
   103  H    0.088253
   104  H    0.099435
   105  H    0.102063
   106  H    0.070488
   107  H    0.066382
   108  H    0.093943
   109  H    0.057433
   110  H    0.100582
   111  H    0.097841
   112  H    0.092786
   113  H    0.085391
   114  H    0.112028
   115  H    0.080563
   116  H    0.083483
   117  H    0.067852
   118  H    0.065717
   119  H    0.073365
   120  H    0.095570
   121  H    0.049926
   122  H    0.085175
   123  H    0.092315
   124  H    0.104249
   125  H    0.117396
   126  H    0.104126
   127  H    0.092382
   128  H    0.095146
   129  H    0.082181
   130  H    0.136054
   131  H    0.122753
   132  H    0.127360
   133  O   -0.464191
   134  H    0.060175
 Sum of Mulliken charges =  -0.00000

 Dipole moment (field-independent basis, Debye):
    X=              0.1805    Y=             -3.5950    Z=             -2.1974  Tot=              4.2173
 Quadrupole moment (field-independent basis, Debye-Ang):
   XX=           -381.8202   YY=           -451.4488   ZZ=           -389.1714
   XY=              3.1270   XZ=             15.2366   YZ=            -34.1117

 Normal termination of Gaussian 16 at Tue Oct  8 10:04:12 2019.
