 Gaussian 16, Revision A.03,
 Gaussian 16:  ES64L-G16RevA.03 25-Dec-2016

 ----------------------------------------------------------------------
 # td=(NStates=1) iop(3/107=0140000000,3/108=0140000000) iop(3/107=0140
 000000,3/108=0140000000) CAM-B3LYP/6-31G(d,p)
 ----------------------------------------------------------------------

 --
 TD
 --
 Symbolic Z-matrix:
 Charge =  0 Multiplicity = 1

                         Standard orientation:
 ---------------------------------------------------------------------
 Center     Atomic      Atomic             Coordinates (Angstroms)
 Number     Number       Type             X           Y           Z
 ---------------------------------------------------------------------
      1         12           0       -5.591766    1.196934    0.099971
      2          6           0       -5.036270   -2.120608   -0.331280
      3          6           0       -3.337967    1.160280    2.732182
      4          6           0       -6.191823    4.607001    0.614859
      5          6           0       -8.056027    1.121817   -2.321453
      6          7           0       -4.326695   -0.226546    0.990874
      7          6           0       -4.254426   -1.576954    0.703482
      8          6           0       -3.143231   -2.273560    1.574961
      9          6           0       -2.857461   -1.263539    2.619866
     10          6           0       -3.540869   -0.015766    2.177940
     11          6           0       -3.337878   -1.715787    3.951828
     12          6           0       -1.971279   -2.678084    0.614413
     13          6           0       -0.717479   -3.235055    1.471740
     14          6           0        0.381052   -3.779419    0.537238
     15          8           0        0.627801   -3.330857   -0.574491
     16          8           0        1.106628   -4.698421    1.200069
     17          7           0       -4.973687    2.585336    1.426097
     18          6           0       -4.045647    2.433817    2.477353
     19          6           0       -3.824009    3.730367    3.189837
     20          6           0       -4.630782    4.576748    2.499123
     21          6           0       -5.312963    4.016914    1.368119
     22          6           0       -2.921769    3.795787    4.331514
     23          6           0       -4.687096    6.003406    2.850160
     24          8           0       -4.032791    6.580400    3.765819
     25          7           0       -6.800178    2.781578   -0.745960
     26          6           0       -6.922987    3.923851   -0.521751
     27          6           0       -7.956960    4.523987   -1.244905
     28          6           0       -8.415323    3.575460   -2.089048
     29          6           0       -7.788525    2.340000   -1.655829
     30          6           0       -8.266602    6.039766   -1.280643
     31          6           0       -9.623777    3.710323   -3.098580
     32          6           0       -9.093171    3.957236   -4.570256
     33          7           0       -6.393436   -0.134091   -1.097022
     34          6           0       -7.442914   -0.128166   -2.022057
     35          6           0       -7.542826   -1.440963   -2.639178
     36          6           0       -6.694306   -2.247252   -1.948106
     37          6           0       -6.014308   -1.389885   -1.041995
     38          6           0       -8.471023   -1.715922   -3.794261
     39          6           0       -6.335820   -3.613190   -1.872362
     40          8           0       -6.705316   -4.631127   -2.457727
     41          6           0       -5.097309   -3.622633   -0.757418
     42          6           0       -5.455903   -4.673735    0.284994
     43          8           0       -5.832360   -4.611614    1.442848
     44          8           0       -5.042914   -5.841536   -0.264841
     45          6           0       -5.261220   -6.989032    0.542860
     46          6           0        2.411007   -5.086363    0.561159
     47          6           0        3.465600   -4.105000    0.940968
     48          6           0        4.037977   -3.237968    0.154219
     49          6           0        3.720689   -3.117644   -1.351145
     50          6           0        5.278105   -2.368529    0.629631
     51          6           0        6.507035   -2.656112    0.003539
     52          6           0        7.583240   -1.732639    0.437700
     53          6           0        8.947076   -1.934902   -0.163815
     54          6           0        9.562740   -3.304621    0.103463
     55          6           0        9.908333   -0.727238    0.232580
     56          6           0       11.333817   -0.816142   -0.265189
     57          6           0       12.071995    0.462208    0.050689
     58          6           0       13.539249    0.368075   -0.572194
     59          6           0       14.416426   -0.835723   -0.171071
     60          6           0       14.294361    1.699041   -0.175522
     61          6           0       15.575286    1.983394   -0.949670
     62          6           0       16.112989    3.404022   -0.613433
     63          6           0       17.432267    3.887194   -1.353851
     64          6           0       17.237097    3.990463   -2.823069
     65          6           0       17.975480    5.173648   -0.622339
     66          1           0       -2.438634    1.002748    3.575073
     67          1           0       -6.272652    5.626718    0.698827
     68          1           0       -8.578947    1.039387   -3.094295
     69          1           0       -3.476592   -3.267052    1.819197
     70          1           0       -1.620364   -1.140483    2.582643
     71          1           0       -2.971681   -2.635116    4.331594
     72          1           0       -3.226675   -0.991019    4.632063
     73          1           0       -4.469004   -1.815862    3.935481
     74          1           0       -2.337877   -3.362877   -0.132357
     75          1           0       -1.473450   -1.665382    0.053900
     76          1           0       -0.329670   -2.562874    2.150849
     77          1           0       -1.057887   -4.171685    1.925616
     78          1           0       -1.841915    3.665605    3.903452
     79          1           0       -2.870923    4.828488    4.639614
     80          1           0       -3.255386    2.995990    5.007105
     81          1           0       -5.447547    6.505901    2.275321
     82          1           0      -10.197645    2.824414   -3.050649
     83          1           0      -10.315454    4.464372   -2.762645
     84          1           0       -9.815349    3.680696   -5.433671
     85          1           0       -8.812517    5.161204   -4.524665
     86          1           0       -8.092752    3.217574   -4.674217
     87          1           0       -8.491439   -0.779036   -4.506092
     88          1           0       -7.950459   -2.737815   -4.210463
     89          1           0       -9.402908   -1.689432   -3.182044
     90          1           0       -4.302925   -3.944451   -1.360609
     91          1           0        2.498897   -6.151705    0.823855
     92          1           0        2.186254   -5.094620   -0.482665
     93          1           0        3.568293   -3.912488    2.056148
     94          1           0        2.422194   -3.050796   -1.510538
     95          1           0        4.180163   -2.318603   -1.901774
     96          1           0        4.165983   -3.966929   -1.968658
     97          1           0        5.028545   -1.292228    0.374505
     98          1           0        5.233137   -2.622239    1.730996
     99          1           0        6.954192   -3.728046    0.201902
    100          1           0        6.493473   -2.841244   -1.227281
    101          1           0        7.184448   -0.514582    0.408866
    102          1           0        7.822554   -1.926027    1.534918
    103          1           0        8.770460   -1.850051   -1.131251
    104          1           0        8.793837   -4.122636   -0.104435
    105          1           0       10.492621   -3.414309   -0.365372
    106          1           0        9.778014   -3.543779    1.086325
    107          1           0        9.370391    0.071794    0.061109
    108          1           0       10.046573   -0.580776    1.345152
    109          1           0       11.770581   -1.800571    0.075691
    110          1           0       11.328306   -0.823692   -1.470796
    111          1           0       11.592817    1.469427   -0.107375
    112          1           0       12.288834    0.371937    1.064825
    113          1           0       13.357132    0.545225   -1.681932
    114          1           0       14.760632   -1.059630    0.979021
    115          1           0       13.885469   -1.641773   -0.330343
    116          1           0       15.213695   -0.753002   -0.856305
    117          1           0       13.709120    2.613432   -0.380123
    118          1           0       14.543644    1.635375    0.939366
    119          1           0       16.390044    1.195174   -0.770775
    120          1           0       15.397413    2.128283   -1.931608
    121          1           0       15.391941    4.146471   -0.892790
    122          1           0       16.213454    3.616676    0.541601
    123          1           0       18.233834    3.049464   -1.306733
    124          1           0       16.660955    5.028648   -2.887534
    125          1           0       18.260976    4.026469   -3.360628
    126          1           0       16.427345    3.100073   -3.225909
    127          1           0       18.075343    5.150691    0.480592
    128          1           0       18.969543    5.742412   -0.911191
    129          1           0       17.424346    5.989120   -1.009677
    130          1           0       -5.014599   -7.795389    0.097608
    131          1           0       -6.321827   -7.012436    0.745457
    132          1           0       -4.508506   -7.013732    1.505028
    133          8           0       -7.824334    6.819648   -0.409537
    134          1           0       -9.055643    6.507266   -2.106994
 ---------------------------------------------------------------------

 SCF Done:  E(RCAM-B3LYP) =  -3043.36536587     A.U. after   16 cycles

 Excitation energies and oscillator strengths:

 Excited State   1:      Singlet-A      2.1251 eV  583.44 nm  f=0.2173  <S**2>=0.000
     243 -> 246        0.18805
     244 -> 245        0.66375
 This state for optimization and/or second-order correction.
 Total Energy, E(TD-HF/TD-DFT) =  -3043.28727121
 Copying the excited state density for this state as the 1-particle RhoCI density.

 The electronic state is 1-A.
 Alpha  occ. eigenvalues --  -46.81456 -19.22353 -19.21832 -19.17762 -19.17569
 Alpha  occ. eigenvalues --  -19.17428 -19.17284 -19.16965 -14.38355 -14.38013
 Alpha  occ. eigenvalues --  -14.36845 -14.36795 -10.35111 -10.34822 -10.32496
 Alpha  occ. eigenvalues --  -10.31533 -10.30382 -10.29169 -10.27692 -10.27667
 Alpha  occ. eigenvalues --  -10.27280 -10.26451 -10.26145 -10.26101 -10.25983
 Alpha  occ. eigenvalues --  -10.25800 -10.25614 -10.25474 -10.25349 -10.25330
 Alpha  occ. eigenvalues --  -10.25237 -10.25131 -10.24760 -10.24436 -10.24351
 Alpha  occ. eigenvalues --  -10.24261 -10.23882 -10.23828 -10.23682 -10.23557
 Alpha  occ. eigenvalues --  -10.23508 -10.23434 -10.23364 -10.23269 -10.23055
 Alpha  occ. eigenvalues --  -10.22827 -10.22793 -10.22549 -10.22484 -10.22423
 Alpha  occ. eigenvalues --  -10.22303 -10.22056 -10.21942 -10.21829 -10.21789
 Alpha  occ. eigenvalues --  -10.21644 -10.21129 -10.21051 -10.20899 -10.20725
 Alpha  occ. eigenvalues --  -10.20477 -10.20416 -10.20256 -10.20211 -10.19685
 Alpha  occ. eigenvalues --  -10.19644  -3.10108  -1.85038  -1.84569  -1.84541
 Alpha  occ. eigenvalues --   -1.13273  -1.12557  -1.06262  -1.05637  -1.04715
 Alpha  occ. eigenvalues --   -1.04464  -1.04230  -1.04091  -1.01234  -0.98371
 Alpha  occ. eigenvalues --   -0.97346  -0.87959  -0.86875  -0.86019  -0.85921
 Alpha  occ. eigenvalues --   -0.85181  -0.84840  -0.84503  -0.84305  -0.84051
 Alpha  occ. eigenvalues --   -0.83163  -0.82944  -0.82022  -0.81239  -0.80035
 Alpha  occ. eigenvalues --   -0.78889  -0.78562  -0.77848  -0.77362  -0.76609
 Alpha  occ. eigenvalues --   -0.75977  -0.75514  -0.74034  -0.73348  -0.72132
 Alpha  occ. eigenvalues --   -0.71726  -0.70754  -0.70396  -0.69886  -0.69614
 Alpha  occ. eigenvalues --   -0.69112  -0.68889  -0.67782  -0.66303  -0.65945
 Alpha  occ. eigenvalues --   -0.65330  -0.64687  -0.64069  -0.62790  -0.62294
 Alpha  occ. eigenvalues --   -0.61856  -0.60694  -0.60188  -0.59244  -0.59107
 Alpha  occ. eigenvalues --   -0.58679  -0.58220  -0.58113  -0.56959  -0.56912
 Alpha  occ. eigenvalues --   -0.56256  -0.56028  -0.55709  -0.55266  -0.54385
 Alpha  occ. eigenvalues --   -0.53823  -0.53581  -0.53084  -0.52432  -0.51998
 Alpha  occ. eigenvalues --   -0.51723  -0.51275  -0.50926  -0.50626  -0.50508
 Alpha  occ. eigenvalues --   -0.50459  -0.49848  -0.49582  -0.49245  -0.48966
 Alpha  occ. eigenvalues --   -0.48845  -0.48700  -0.48627  -0.48414  -0.48315
 Alpha  occ. eigenvalues --   -0.48002  -0.47906  -0.47199  -0.47078  -0.46959
 Alpha  occ. eigenvalues --   -0.46775  -0.46534  -0.46343  -0.46139  -0.46056
 Alpha  occ. eigenvalues --   -0.45831  -0.45376  -0.45327  -0.45041  -0.44946
 Alpha  occ. eigenvalues --   -0.44840  -0.44470  -0.44334  -0.44212  -0.44070
 Alpha  occ. eigenvalues --   -0.43510  -0.43392  -0.43185  -0.43061  -0.42913
 Alpha  occ. eigenvalues --   -0.42565  -0.42398  -0.42258  -0.41802  -0.41723
 Alpha  occ. eigenvalues --   -0.41494  -0.41208  -0.41012  -0.40894  -0.40702
 Alpha  occ. eigenvalues --   -0.40462  -0.40384  -0.40226  -0.40176  -0.39676
 Alpha  occ. eigenvalues --   -0.39523  -0.39459  -0.39346  -0.39178  -0.39154
 Alpha  occ. eigenvalues --   -0.38913  -0.38864  -0.38648  -0.38531  -0.38134
 Alpha  occ. eigenvalues --   -0.37808  -0.37611  -0.37520  -0.37466  -0.37146
 Alpha  occ. eigenvalues --   -0.36831  -0.36456  -0.36423  -0.36283  -0.35751
 Alpha  occ. eigenvalues --   -0.35483  -0.35191  -0.35014  -0.34716  -0.34396
 Alpha  occ. eigenvalues --   -0.34088  -0.34000  -0.33755  -0.33073  -0.32734
 Alpha  occ. eigenvalues --   -0.32693  -0.32138  -0.32006  -0.31929  -0.31781
 Alpha  occ. eigenvalues --   -0.31731  -0.30890  -0.30171  -0.30124  -0.29940
 Alpha  occ. eigenvalues --   -0.29329  -0.28567  -0.28509  -0.28240  -0.28006
 Alpha  occ. eigenvalues --   -0.27909  -0.27524  -0.24245  -0.21418
 Alpha virt. eigenvalues --   -0.08305  -0.06656  -0.01782  -0.00823   0.00037
 Alpha virt. eigenvalues --    0.02598   0.03255   0.03383   0.03813   0.04307
 Alpha virt. eigenvalues --    0.04635   0.05631   0.06878   0.08145   0.08923

 Mulliken charges:
               1
     1  Mg   0.822020
     2  C   -0.002659
     3  C   -0.215769
     4  C   -0.161345
     5  C   -0.089346
     6  N   -0.649532
     7  C    0.315250
     8  C   -0.113335
     9  C   -0.152557
    10  C    0.378718
    11  C   -0.304866
    12  C   -0.177550
    13  C   -0.261346
    14  C    0.594315
    15  O   -0.466460
    16  O   -0.469692
    17  N   -0.700272
    18  C    0.279329
    19  C    0.090036
    20  C   -0.067422
    21  C    0.367887
    22  C   -0.379483
    23  C    0.256861
    24  O   -0.447103
    25  N   -0.606667
    26  C    0.319477
    27  C   -0.073950
    28  C    0.026084
    29  C    0.208876
    30  C    0.237055
    31  C   -0.236704
    32  C   -0.289374
    33  N   -0.753251
    34  C    0.217892
    35  C   -0.004879
    36  C    0.070425
    37  C    0.379219
    38  C   -0.354452
    39  C    0.316549
    40  O   -0.465629
    41  C   -0.316893
    42  C    0.617586
    43  O   -0.482306
    44  O   -0.437666
    45  C   -0.056897
    46  C   -0.015769
    47  C   -0.127299
    48  C    0.137974
    49  C   -0.389443
    50  C   -0.210241
    51  C   -0.144518
    52  C   -0.155007
    53  C   -0.046745
    54  C   -0.331249
    55  C   -0.164494
    56  C   -0.175365
    57  C   -0.171803
    58  C   -0.075637
    59  C   -0.305960
    60  C   -0.163889
    61  C   -0.170044
    62  C   -0.181571
    63  C   -0.038987
    64  C   -0.285011
    65  C   -0.322033
    66  H    0.085956
    67  H    0.124728
    68  H    0.050945
    69  H    0.124719
    70  H    0.084579
    71  H    0.122272
    72  H    0.112984
    73  H    0.120112
    74  H    0.119687
    75  H    0.090999
    76  H    0.144990
    77  H    0.129757
    78  H    0.124713
    79  H    0.166686
    80  H    0.134420
    81  H    0.088995
    82  H    0.114581
    83  H    0.116719
    84  H    0.110595
    85  H    0.097347
    86  H    0.090779
    87  H    0.117240
    88  H    0.145845
    89  H    0.150227
    90  H    0.167623
    91  H    0.122415
    92  H    0.139336
    93  H    0.079838
    94  H    0.141743
    95  H    0.108757
    96  H    0.104743
    97  H    0.101864
    98  H    0.095348
    99  H    0.086688
   100  H    0.068915
   101  H    0.045234
   102  H    0.088646
   103  H    0.099273
   104  H    0.086652
   105  H    0.111360
   106  H    0.110428
   107  H    0.095593
   108  H    0.070427
   109  H    0.098094
   110  H    0.059100
   111  H    0.094119
   112  H    0.102045
   113  H    0.079740
   114  H    0.081940
   115  H    0.114944
   116  H    0.119656
   117  H    0.077795
   118  H    0.081175
   119  H    0.086889
   120  H    0.098501
   121  H    0.090875
   122  H    0.071304
   123  H    0.071900
   124  H    0.078882
   125  H    0.106352
   126  H    0.080525
   127  H    0.112187
   128  H    0.076569
   129  H    0.107484
   130  H    0.127279
   131  H    0.130990
   132  H    0.086380
   133  O   -0.418011
   134  H    0.065448
 Sum of Mulliken charges =  -0.00000

 Dipole moment (field-independent basis, Debye):
    X=              2.1247    Y=             -3.7304    Z=             -0.8452  Tot=              4.3755
 Quadrupole moment (field-independent basis, Debye-Ang):
   XX=           -384.8374   YY=           -438.5181   ZZ=           -396.3932
   XY=             -2.6724   XZ=             24.8780   YZ=            -30.6300

 Normal termination of Gaussian 16 at Wed Oct  9 18:03:00 2019.
