 Gaussian 16, Revision A.03,
 Gaussian 16:  ES64L-G16RevA.03 25-Dec-2016

 ----------------------------------------------------------------------
 # td=(NStates=1) iop(3/107=0140000000,3/108=0140000000) iop(3/107=0140
 000000,3/108=0140000000) CAM-B3LYP/6-31G(d,p)
 ----------------------------------------------------------------------

 --
 TD
 --
 Symbolic Z-matrix:
 Charge =  0 Multiplicity = 1

                         Standard orientation:
 ---------------------------------------------------------------------
 Center     Atomic      Atomic             Coordinates (Angstroms)
 Number     Number       Type             X           Y           Z
 ---------------------------------------------------------------------
      1         12           0       -5.608122    1.223273    0.066963
      2          6           0       -4.957441   -2.062642   -0.441901
      3          6           0       -3.390780    1.196772    2.770260
      4          6           0       -6.189574    4.473605    0.560574
      5          6           0       -7.960930    1.063066   -2.451954
      6          7           0       -4.378837   -0.222677    1.017958
      7          6           0       -4.269210   -1.562073    0.613899
      8          6           0       -3.189414   -2.291410    1.403205
      9          6           0       -2.954015   -1.301550    2.676257
     10          6           0       -3.564049   -0.029277    2.213180
     11          6           0       -3.478707   -1.821716    3.994641
     12          6           0       -2.000664   -2.673844    0.670340
     13          6           0       -1.001807   -3.550519    1.536984
     14          6           0        0.298169   -3.893557    0.739122
     15          8           0        0.423908   -3.528537   -0.418529
     16          8           0        1.073107   -4.720557    1.378098
     17          7           0       -4.954346    2.580120    1.481805
     18          6           0       -4.087223    2.452776    2.457051
     19          6           0       -3.834237    3.643477    3.114445
     20          6           0       -4.623868    4.652886    2.503359
     21          6           0       -5.416788    3.861230    1.541959
     22          6           0       -2.996529    3.947801    4.387702
     23          6           0       -4.798258    6.032470    2.980601
     24          8           0       -4.300859    6.619217    3.869674
     25          7           0       -6.894301    2.605628   -0.849949
     26          6           0       -6.977996    3.859913   -0.450927
     27          6           0       -7.978536    4.512699   -1.148183
     28          6           0       -8.498006    3.509644   -2.201869
     29          6           0       -7.810152    2.354052   -1.786573
     30          6           0       -8.474527    5.853553   -1.173824
     31          6           0       -9.508362    3.793791   -3.120656
     32          6           0       -8.877037    3.942165   -4.585867
     33          7           0       -6.353944   -0.192900   -1.146801
     34          6           0       -7.333059   -0.036067   -2.060557
     35          6           0       -7.647665   -1.416137   -2.593117
     36          6           0       -6.696319   -2.271273   -2.044744
     37          6           0       -5.989513   -1.402289   -1.167390
     38          6           0       -8.598697   -1.802575   -3.825477
     39          6           0       -6.161541   -3.647845   -2.016588
     40          8           0       -6.581503   -4.624905   -2.649646
     41          6           0       -4.920857   -3.468901   -0.923382
     42          6           0       -5.142842   -4.523025    0.178270
     43          8           0       -5.524707   -4.300254    1.334611
     44          8           0       -4.793782   -5.807289   -0.314266
     45          6           0       -5.095475   -6.859563    0.645764
     46          6           0        2.274257   -4.972479    0.710419
     47          6           0        3.393770   -4.031460    1.041094
     48          6           0        4.152986   -3.305915    0.142438
     49          6           0        3.895880   -3.244612   -1.371397
     50          6           0        5.160294   -2.349182    0.599610
     51          6           0        6.494592   -2.692484    0.050473
     52          6           0        7.613430   -1.811599    0.513894
     53          6           0        8.981130   -1.947025   -0.105266
     54          6           0        9.618933   -3.233029    0.177879
     55          6           0        9.991795   -0.789752    0.437565
     56          6           0       11.283340   -0.719896   -0.295696
     57          6           0       12.271435    0.432518    0.244304
     58          6           0       13.607560    0.439450   -0.486313
     59          6           0       14.459369   -0.757841   -0.273972
     60          6           0       14.239026    1.749268   -0.277541
     61          6           0       15.593622    2.098183   -1.029122
     62          6           0       16.105461    3.548041   -0.688370
     63          6           0       17.426673    3.996626   -1.347585
     64          6           0       17.150833    3.928708   -2.894197
     65          6           0       17.874961    5.333437   -0.813836
     66          1           0       -2.785558    1.336343    3.369384
     67          1           0       -6.466528    5.557117    0.647658
     68          1           0       -8.956393    0.975782   -3.079676
     69          1           0       -3.528438   -3.254563    1.775791
     70          1           0       -1.876480   -1.256831    2.687847
     71          1           0       -2.921440   -2.674140    4.226381
     72          1           0       -3.215088   -1.114389    4.847820
     73          1           0       -4.503315   -1.844020    4.111594
     74          1           0       -2.213697   -3.274826   -0.154885
     75          1           0       -1.269039   -1.790709    0.357919
     76          1           0       -0.997925   -3.071649    2.513560
     77          1           0       -1.585593   -4.506626    1.510624
     78          1           0       -1.941991    3.458103    4.496036
     79          1           0       -2.935768    4.974429    4.553860
     80          1           0       -3.442316    3.574547    5.402955
     81          1           0       -5.466256    6.445545    2.155896
     82          1           0      -10.296584    2.891157   -3.086919
     83          1           0      -10.052824    4.767410   -2.763685
     84          1           0       -9.579396    4.227854   -5.407787
     85          1           0       -8.052903    4.679747   -4.486819
     86          1           0       -8.414088    3.009112   -4.938765
     87          1           0       -8.001409   -1.368496   -4.686392
     88          1           0       -8.172332   -2.859062   -3.825616
     89          1           0       -9.702079   -1.583260   -3.680360
     90          1           0       -4.121248   -3.821911   -1.603477
     91          1           0        2.670309   -6.121524    0.982740
     92          1           0        2.206440   -5.029056   -0.358223
     93          1           0        3.817037   -3.955985    2.015674
     94          1           0        2.767326   -3.415453   -1.510085
     95          1           0        4.069253   -2.281433   -1.651489
     96          1           0        4.586304   -3.746842   -1.938785
     97          1           0        5.009237   -1.281906    0.189810
     98          1           0        5.395736   -2.378362    1.687380
     99          1           0        6.904786   -3.719150    0.365863
    100          1           0        6.301499   -2.528120   -1.076474
    101          1           0        7.281160   -0.739995    0.555148
    102          1           0        7.688056   -2.072908    1.513187
    103          1           0        8.920578   -1.708269   -1.328091
    104          1           0        8.946426   -4.104252   -0.104135
    105          1           0       10.691869   -3.465167   -0.364693
    106          1           0        9.941476   -3.537345    1.251357
    107          1           0        9.292494    0.058156    0.340929
    108          1           0       10.142889   -0.931808    1.507405
    109          1           0       11.925366   -1.598641   -0.376310
    110          1           0       11.224014   -0.359618   -1.421526
    111          1           0       11.826580    1.328914    0.053955
    112          1           0       12.729904    0.220353    1.341250
    113          1           0       13.310691    0.498697   -1.541710
    114          1           0       14.874453   -0.728506    0.844928
    115          1           0       13.901798   -1.579441   -0.240178
    116          1           0       15.378013   -0.804512   -0.886714
    117          1           0       13.472608    2.377983   -0.533491
    118          1           0       14.685186    1.955806    0.789924
    119          1           0       16.364410    1.425659   -0.805313
    120          1           0       15.421616    2.121557   -2.090265
    121          1           0       15.243427    4.117161   -0.829583
    122          1           0       16.459434    3.532488    0.549634
    123          1           0       18.120861    3.370561   -1.121248
    124          1           0       16.446063    4.700137   -3.094661
    125          1           0       18.134442    4.036458   -3.299718
    126          1           0       16.923675    2.978881   -3.281535
    127          1           0       17.800623    5.333705    0.438821
    128          1           0       18.958541    5.576325   -1.270109
    129          1           0       17.154410    5.995928   -1.039237
    130          1           0       -4.675815   -7.685330    0.137956
    131          1           0       -6.020457   -7.177705    0.777647
    132          1           0       -4.704941   -6.581219    1.794827
    133          8           0       -7.912745    6.737458   -0.524154
    134          1           0       -9.569612    6.115987   -1.622668
 ---------------------------------------------------------------------

 SCF Done:  E(RCAM-B3LYP) =  -3043.40914788     A.U. after   15 cycles

 Excitation energies and oscillator strengths:

 Excited State   1:      Singlet-A      2.1866 eV  567.02 nm  f=0.0786  <S**2>=0.000
     243 -> 245        0.38845
     243 -> 246       -0.27546
     244 -> 245        0.44650
     244 -> 246        0.24794
 This state for optimization and/or second-order correction.
 Total Energy, E(TD-HF/TD-DFT) =  -3043.32879180
 Copying the excited state density for this state as the 1-particle RhoCI density.

 The electronic state is 1-A.
 Alpha  occ. eigenvalues --  -46.82100 -19.24573 -19.23349 -19.19375 -19.18810
 Alpha  occ. eigenvalues --  -19.17960 -19.17472 -19.16021 -14.38108 -14.37307
 Alpha  occ. eigenvalues --  -14.37077 -14.36591 -10.36463 -10.35961 -10.33749
 Alpha  occ. eigenvalues --  -10.30378 -10.30132 -10.28921 -10.27535 -10.27177
 Alpha  occ. eigenvalues --  -10.27035 -10.27031 -10.26527 -10.26468 -10.26443
 Alpha  occ. eigenvalues --  -10.26403 -10.26315 -10.25771 -10.25422 -10.25313
 Alpha  occ. eigenvalues --  -10.24881 -10.24742 -10.24452 -10.24167 -10.24164
 Alpha  occ. eigenvalues --  -10.24040 -10.23592 -10.23549 -10.23357 -10.23252
 Alpha  occ. eigenvalues --  -10.23198 -10.23016 -10.22975 -10.22721 -10.22492
 Alpha  occ. eigenvalues --  -10.22492 -10.22190 -10.22146 -10.22116 -10.22009
 Alpha  occ. eigenvalues --  -10.21829 -10.21645 -10.21386 -10.21375 -10.21273
 Alpha  occ. eigenvalues --  -10.21269 -10.20917 -10.20520 -10.20286 -10.20234
 Alpha  occ. eigenvalues --  -10.20203 -10.20014 -10.19968 -10.19869 -10.19784
 Alpha  occ. eigenvalues --  -10.19106  -3.10615  -1.85566  -1.85096  -1.85005
 Alpha  occ. eigenvalues --   -1.17042  -1.11765  -1.09458  -1.07456  -1.05867
 Alpha  occ. eigenvalues --   -1.05342  -1.04592  -1.03817  -1.01900  -1.01029
 Alpha  occ. eigenvalues --   -0.96675  -0.89153  -0.87427  -0.86108  -0.85881
 Alpha  occ. eigenvalues --   -0.85776  -0.84749  -0.84630  -0.84022  -0.83860
 Alpha  occ. eigenvalues --   -0.83748  -0.82947  -0.81877  -0.81106  -0.79963
 Alpha  occ. eigenvalues --   -0.79046  -0.77979  -0.77311  -0.77228  -0.76427
 Alpha  occ. eigenvalues --   -0.75662  -0.74785  -0.74412  -0.73254  -0.72438
 Alpha  occ. eigenvalues --   -0.72212  -0.71643  -0.71462  -0.70432  -0.70013
 Alpha  occ. eigenvalues --   -0.69582  -0.69293  -0.68079  -0.67510  -0.66987
 Alpha  occ. eigenvalues --   -0.65839  -0.64763  -0.64634  -0.62896  -0.62360
 Alpha  occ. eigenvalues --   -0.61769  -0.61303  -0.60423  -0.59782  -0.59471
 Alpha  occ. eigenvalues --   -0.59250  -0.58249  -0.57805  -0.57709  -0.57485
 Alpha  occ. eigenvalues --   -0.57416  -0.56475  -0.55955  -0.55528  -0.54527
 Alpha  occ. eigenvalues --   -0.54110  -0.53452  -0.52864  -0.52663  -0.52336
 Alpha  occ. eigenvalues --   -0.52166  -0.52067  -0.51854  -0.51642  -0.51323
 Alpha  occ. eigenvalues --   -0.50769  -0.49902  -0.49786  -0.49461  -0.49434
 Alpha  occ. eigenvalues --   -0.49194  -0.49180  -0.48915  -0.48148  -0.48038
 Alpha  occ. eigenvalues --   -0.47826  -0.47724  -0.47673  -0.47407  -0.47315
 Alpha  occ. eigenvalues --   -0.46927  -0.46903  -0.46732  -0.46640  -0.46481
 Alpha  occ. eigenvalues --   -0.46107  -0.45723  -0.45515  -0.45368  -0.45159
 Alpha  occ. eigenvalues --   -0.44807  -0.44456  -0.44286  -0.44038  -0.43840
 Alpha  occ. eigenvalues --   -0.43670  -0.43378  -0.43152  -0.42989  -0.42929
 Alpha  occ. eigenvalues --   -0.42910  -0.42833  -0.42545  -0.42459  -0.42145
 Alpha  occ. eigenvalues --   -0.41789  -0.41739  -0.41459  -0.41270  -0.41253
 Alpha  occ. eigenvalues --   -0.40791  -0.40690  -0.40535  -0.40384  -0.40255
 Alpha  occ. eigenvalues --   -0.40178  -0.40045  -0.39814  -0.39627  -0.39471
 Alpha  occ. eigenvalues --   -0.39262  -0.39081  -0.38612  -0.38550  -0.38423
 Alpha  occ. eigenvalues --   -0.38156  -0.37787  -0.37587  -0.37294  -0.36865
 Alpha  occ. eigenvalues --   -0.36845  -0.36635  -0.36203  -0.35971  -0.35920
 Alpha  occ. eigenvalues --   -0.35670  -0.35507  -0.35044  -0.34958  -0.34717
 Alpha  occ. eigenvalues --   -0.34482  -0.34279  -0.33900  -0.33722  -0.33354
 Alpha  occ. eigenvalues --   -0.33250  -0.32798  -0.32034  -0.31900  -0.31487
 Alpha  occ. eigenvalues --   -0.31277  -0.31134  -0.31072  -0.30216  -0.30030
 Alpha  occ. eigenvalues --   -0.29938  -0.29011  -0.28373  -0.27753  -0.26946
 Alpha  occ. eigenvalues --   -0.26941  -0.26293  -0.22987  -0.22831
 Alpha virt. eigenvalues --   -0.08584  -0.07223  -0.01911  -0.00658   0.00624
 Alpha virt. eigenvalues --    0.01662   0.02785   0.02876   0.03442   0.04482
 Alpha virt. eigenvalues --    0.05101   0.05561   0.07703   0.08802   0.08910

 Mulliken charges:
               1
     1  Mg   0.830710
     2  C    0.069230
     3  C   -0.077755
     4  C   -0.160349
     5  C   -0.173654
     6  N   -0.659449
     7  C    0.360839
     8  C   -0.152658
     9  C   -0.161066
    10  C    0.339001
    11  C   -0.301548
    12  C   -0.167281
    13  C   -0.292982
    14  C    0.608220
    15  O   -0.468107
    16  O   -0.400719
    17  N   -0.666649
    18  C    0.313950
    19  C    0.027835
    20  C   -0.045611
    21  C    0.268240
    22  C   -0.385815
    23  C    0.277566
    24  O   -0.395438
    25  N   -0.699195
    26  C    0.343723
    27  C   -0.055714
    28  C    0.087392
    29  C    0.261822
    30  C    0.199458
    31  C   -0.276855
    32  C   -0.318723
    33  N   -0.725065
    34  C    0.328940
    35  C   -0.071968
    36  C    0.077312
    37  C    0.311175
    38  C   -0.377506
    39  C    0.362614
    40  O   -0.446236
    41  C   -0.349337
    42  C    0.632911
    43  O   -0.468793
    44  O   -0.465813
    45  C   -0.084884
    46  C   -0.018746
    47  C   -0.139517
    48  C    0.155890
    49  C   -0.392454
    50  C   -0.234178
    51  C   -0.165741
    52  C   -0.175839
    53  C   -0.032609
    54  C   -0.306391
    55  C   -0.163255
    56  C   -0.182851
    57  C   -0.161260
    58  C   -0.065283
    59  C   -0.301254
    60  C   -0.146306
    61  C   -0.199616
    62  C   -0.154229
    63  C   -0.045558
    64  C   -0.319681
    65  C   -0.286055
    66  H   -0.012415
    67  H    0.148995
    68  H    0.101646
    69  H    0.121150
    70  H    0.109294
    71  H    0.117170
    72  H    0.098493
    73  H    0.138283
    74  H    0.120626
    75  H    0.099070
    76  H    0.126084
    77  H    0.133059
    78  H    0.101571
    79  H    0.162456
    80  H    0.114879
    81  H    0.054475
    82  H    0.090314
    83  H    0.104475
    84  H    0.109493
    85  H    0.121021
    86  H    0.115398
    87  H    0.141491
    88  H    0.157115
    89  H    0.136003
    90  H    0.170148
    91  H    0.089996
    92  H    0.140771
    93  H    0.079035
    94  H    0.139985
    95  H    0.119077
    96  H    0.134948
    97  H    0.103798
    98  H    0.086897
    99  H    0.090968
   100  H    0.075242
   101  H    0.074554
   102  H    0.099340
   103  H    0.058215
   104  H    0.093065
   105  H    0.083006
   106  H    0.095044
   107  H    0.089357
   108  H    0.097705
   109  H    0.102614
   110  H    0.074182
   111  H    0.097610
   112  H    0.067369
   113  H    0.073283
   114  H    0.069868
   115  H    0.108764
   116  H    0.108481
   117  H    0.084077
   118  H    0.071436
   119  H    0.097874
   120  H    0.089679
   121  H    0.094514
   122  H    0.028805
   123  H    0.096031
   124  H    0.106631
   125  H    0.094317
   126  H    0.113891
   127  H    0.071787
   128  H    0.083470
   129  H    0.117144
   130  H    0.124330
   131  H    0.144069
   132  H    0.106438
   133  O   -0.435633
   134  H    0.060839
 Sum of Mulliken charges =  -0.00000

 Dipole moment (field-independent basis, Debye):
    X=              1.9782    Y=             -5.8028    Z=             -1.5507  Tot=              6.3238
 Quadrupole moment (field-independent basis, Debye-Ang):
   XX=           -378.6715   YY=           -448.9595   ZZ=           -393.8159
   XY=             13.6198   XZ=             14.4641   YZ=            -32.1353

 Normal termination of Gaussian 16 at Thu Oct 10 00:53:28 2019.
