 Gaussian 16, Revision A.03,
 Gaussian 16:  ES64L-G16RevA.03 25-Dec-2016

 ----------------------------------------------------------------------
 # td=(NStates=1) iop(3/107=0140000000,3/108=0140000000) iop(3/107=0140
 000000,3/108=0140000000) CAM-B3LYP/6-31G(d,p)
 ----------------------------------------------------------------------

 --
 TD
 --
 Symbolic Z-matrix:
 Charge =  0 Multiplicity = 1

                         Standard orientation:
 ---------------------------------------------------------------------
 Center     Atomic      Atomic             Coordinates (Angstroms)
 Number     Number       Type             X           Y           Z
 ---------------------------------------------------------------------
      1         12           0       -5.720666    1.191673    0.265696
      2          6           0       -5.036383   -2.106472   -0.358332
      3          6           0       -3.436956    1.191803    2.759485
      4          6           0       -6.211573    4.516664    0.729210
      5          6           0       -8.002137    1.259319   -2.370149
      6          7           0       -4.351694   -0.299678    1.018877
      7          6           0       -4.229053   -1.633149    0.655262
      8          6           0       -3.199646   -2.299062    1.445851
      9          6           0       -2.860326   -1.366060    2.644162
     10          6           0       -3.594504   -0.069561    2.202307
     11          6           0       -3.360374   -1.905062    3.939297
     12          6           0       -1.954153   -2.720497    0.675355
     13          6           0       -0.940361   -3.609740    1.415227
     14          6           0        0.235287   -3.962467    0.638517
     15          8           0        0.484435   -3.629816   -0.501507
     16          8           0        1.102079   -4.774981    1.350420
     17          7           0       -4.960817    2.546195    1.526723
     18          6           0       -4.105769    2.392142    2.608077
     19          6           0       -3.721813    3.530952    3.246776
     20          6           0       -4.505628    4.544447    2.582009
     21          6           0       -5.280701    3.896279    1.564603
     22          6           0       -2.860455    3.670021    4.469190
     23          6           0       -4.527740    5.934659    3.009654
     24          8           0       -3.913967    6.523056    3.832109
     25          7           0       -6.883692    2.603833   -0.812625
     26          6           0       -6.851144    3.939385   -0.434239
     27          6           0       -7.794413    4.657524   -1.151034
     28          6           0       -8.351111    3.721859   -1.969996
     29          6           0       -7.835948    2.442792   -1.686728
     30          6           0       -8.097050    6.041771   -1.220202
     31          6           0       -9.254453    3.863808   -3.172880
     32          6           0       -8.589031    4.091089   -4.553092
     33          7           0       -6.487864   -0.105427   -1.043157
     34          6           0       -7.362338    0.084826   -2.111743
     35          6           0       -7.601768   -1.282355   -2.774013
     36          6           0       -6.760523   -2.122922   -2.025178
     37          6           0       -6.043029   -1.353818   -1.068611
     38          6           0       -8.609191   -1.576669   -3.941081
     39          6           0       -6.246721   -3.455192   -2.102241
     40          8           0       -6.570702   -4.387477   -2.833204
     41          6           0       -5.138929   -3.589180   -0.953825
     42          6           0       -5.417171   -4.599184   -0.008641
     43          8           0       -5.828389   -4.461898    1.155276
     44          8           0       -5.057524   -5.812554   -0.510361
     45          6           0       -5.477620   -6.885818    0.335310
     46          6           0        2.364819   -5.059664    0.652848
     47          6           0        3.307485   -3.935835    0.968170
     48          6           0        4.034764   -3.179394    0.177328
     49          6           0        3.799395   -3.139988   -1.336467
     50          6           0        5.038791   -2.284239    0.747431
     51          6           0        6.514270   -2.628095    0.223766
     52          6           0        7.632233   -1.723221    0.694497
     53          6           0        8.994248   -2.006471   -0.006677
     54          6           0        9.534302   -3.402370    0.361183
     55          6           0       10.020960   -0.887874    0.394882
     56          6           0       11.330345   -0.888790   -0.332626
     57          6           0       12.217260    0.299092    0.153391
     58          6           0       13.584537    0.452006   -0.610451
     59          6           0       14.472520   -0.777707   -0.511024
     60          6           0       14.197316    1.799683   -0.190509
     61          6           0       15.389067    2.162908   -1.054700
     62          6           0       16.146410    3.468606   -0.675504
     63          6           0       17.407888    3.836020   -1.421041
     64          6           0       17.039797    4.079968   -2.910544
     65          6           0       17.940302    5.106572   -0.822595
     66          1           0       -3.030249    1.267750    3.692448
     67          1           0       -6.300380    5.381171    0.782552
     68          1           0       -8.627926    1.137891   -3.172692
     69          1           0       -3.518436   -3.112401    1.701341
     70          1           0       -1.752548   -1.202777    2.971555
     71          1           0       -2.819699   -2.865945    4.226712
     72          1           0       -3.101035   -1.205650    4.818579
     73          1           0       -4.480040   -2.018445    4.090717
     74          1           0       -2.114054   -3.260498   -0.258060
     75          1           0       -1.547722   -1.775675    0.267914
     76          1           0       -0.502385   -3.196705    2.384632
     77          1           0       -1.499716   -4.547696    1.764950
     78          1           0       -1.883296    3.276711    4.279999
     79          1           0       -3.070365    4.797992    4.724855
     80          1           0       -3.354789    3.135385    5.508301
     81          1           0       -5.364912    6.429324    2.504925
     82          1           0      -10.043818    2.908916   -3.344195
     83          1           0       -9.966091    4.628624   -2.978456
     84          1           0       -9.270665    4.169373   -5.354471
     85          1           0       -8.008355    4.922428   -4.685526
     86          1           0       -7.987202    3.341885   -4.813821
     87          1           0       -8.270586   -0.771579   -4.704463
     88          1           0       -8.402642   -2.587516   -4.194593
     89          1           0       -9.514549   -1.289689   -3.697522
     90          1           0       -4.161236   -3.783367   -1.323789
     91          1           0        2.574680   -6.093363    1.215329
     92          1           0        2.226157   -5.297004   -0.397219
     93          1           0        3.467406   -4.024968    1.996273
     94          1           0        2.830403   -3.801550   -1.578615
     95          1           0        3.659482   -2.057758   -1.463030
     96          1           0        4.750724   -3.591543   -1.777838
     97          1           0        4.995464   -1.158461    0.542462
     98          1           0        4.913138   -2.204128    1.800652
     99          1           0        6.544082   -3.658947    0.434850
    100          1           0        6.519720   -2.560811   -0.851034
    101          1           0        7.520002   -0.547350    0.533233
    102          1           0        7.754332   -1.672695    1.862594
    103          1           0        8.893822   -1.929633   -1.055340
    104          1           0        8.820474   -4.172267    0.217244
    105          1           0       10.350927   -3.405811   -0.318339
    106          1           0        9.892940   -3.462864    1.450306
    107          1           0        9.516389    0.183799    0.352139
    108          1           0       10.102777   -0.902614    1.438330
    109          1           0       11.578715   -1.961447   -0.292689
    110          1           0       11.198015   -0.921361   -1.475004
    111          1           0       11.606188    1.121396    0.057444
    112          1           0       12.279131    0.191972    1.274466
    113          1           0       13.356550    0.598233   -1.846043
    114          1           0       14.643493   -0.846927    0.497640
    115          1           0       14.216244   -1.845688   -0.648590
    116          1           0       15.582296   -0.861207   -0.936789
    117          1           0       13.426198    2.585972   -0.193921
    118          1           0       14.592065    1.927440    0.845670
    119          1           0       16.125410    1.245222   -1.059882
    120          1           0       15.042204    2.189301   -2.170068
    121          1           0       15.392540    4.229480   -0.809226
    122          1           0       16.431248    3.589739    0.533079
    123          1           0       18.236322    3.065564   -1.538722
    124          1           0       16.033961    4.714223   -3.056057
    125          1           0       17.930094    4.315389   -3.404475
    126          1           0       16.864973    2.953849   -3.212287
    127          1           0       18.231053    4.995538    0.272157
    128          1           0       19.095797    5.228140   -1.114551
    129          1           0       17.415808    6.003334   -0.789635
    130          1           0       -5.314588   -7.598391   -0.155214
    131          1           0       -6.562288   -6.748500    0.513016
    132          1           0       -4.884588   -6.998980    1.371996
    133          8           0       -7.796687    6.866024   -0.391222
    134          1           0       -8.838468    6.112768   -2.203359
 ---------------------------------------------------------------------

 SCF Done:  E(RCAM-B3LYP) =  -3043.40853353     A.U. after   16 cycles

 Excitation energies and oscillator strengths:

 Excited State   1:      Singlet-A      2.0376 eV  608.49 nm  f=0.1319  <S**2>=0.000
     243 -> 245        0.16261
     243 -> 246       -0.28154
     244 -> 245        0.60644
     244 -> 246        0.12998
 This state for optimization and/or second-order correction.
 Total Energy, E(TD-HF/TD-DFT) =  -3043.33365427
 Copying the excited state density for this state as the 1-particle RhoCI density.

 The electronic state is 1-A.
 Alpha  occ. eigenvalues --  -46.81489 -19.22840 -19.21345 -19.18047 -19.17908
 Alpha  occ. eigenvalues --  -19.17273 -19.17228 -19.17204 -14.39020 -14.37042
 Alpha  occ. eigenvalues --  -14.36527 -14.36504 -10.34878 -10.34731 -10.32231
 Alpha  occ. eigenvalues --  -10.31132 -10.29531 -10.28010 -10.27926 -10.27854
 Alpha  occ. eigenvalues --  -10.27353 -10.27100 -10.26872 -10.26323 -10.25946
 Alpha  occ. eigenvalues --  -10.25909 -10.25559 -10.25202 -10.25122 -10.25115
 Alpha  occ. eigenvalues --  -10.24898 -10.24832 -10.24418 -10.24290 -10.23903
 Alpha  occ. eigenvalues --  -10.23676 -10.23656 -10.23628 -10.23608 -10.23484
 Alpha  occ. eigenvalues --  -10.23210 -10.23098 -10.23080 -10.22530 -10.22464
 Alpha  occ. eigenvalues --  -10.22445 -10.22410 -10.22235 -10.22002 -10.21724
 Alpha  occ. eigenvalues --  -10.21704 -10.21692 -10.21547 -10.21522 -10.21492
 Alpha  occ. eigenvalues --  -10.21413 -10.21377 -10.21171 -10.21088 -10.20972
 Alpha  occ. eigenvalues --  -10.20676 -10.20422 -10.20327 -10.20326 -10.20102
 Alpha  occ. eigenvalues --  -10.19894  -3.10065  -1.85004  -1.84559  -1.84454
 Alpha  occ. eigenvalues --   -1.13576  -1.12238  -1.08756  -1.07978  -1.07073
 Alpha  occ. eigenvalues --   -1.03978  -1.03899  -1.01942  -1.00415  -0.99538
 Alpha  occ. eigenvalues --   -0.98342  -0.88660  -0.86982  -0.86269  -0.86054
 Alpha  occ. eigenvalues --   -0.85270  -0.85250  -0.84441  -0.84416  -0.83840
 Alpha  occ. eigenvalues --   -0.83180  -0.83063  -0.82534  -0.81661  -0.80392
 Alpha  occ. eigenvalues --   -0.79925  -0.78914  -0.78604  -0.77937  -0.76611
 Alpha  occ. eigenvalues --   -0.75775  -0.75361  -0.74531  -0.74193  -0.73065
 Alpha  occ. eigenvalues --   -0.71241  -0.71184  -0.70843  -0.70629  -0.69959
 Alpha  occ. eigenvalues --   -0.69794  -0.69177  -0.68143  -0.67542  -0.67173
 Alpha  occ. eigenvalues --   -0.66692  -0.65359  -0.64847  -0.63116  -0.62507
 Alpha  occ. eigenvalues --   -0.62182  -0.62065  -0.60992  -0.59429  -0.59144
 Alpha  occ. eigenvalues --   -0.58631  -0.58479  -0.57835  -0.57711  -0.57453
 Alpha  occ. eigenvalues --   -0.57148  -0.56491  -0.56319  -0.55584  -0.55262
 Alpha  occ. eigenvalues --   -0.54701  -0.54133  -0.53336  -0.52552  -0.52299
 Alpha  occ. eigenvalues --   -0.52173  -0.51477  -0.50916  -0.50639  -0.50180
 Alpha  occ. eigenvalues --   -0.50074  -0.49894  -0.49312  -0.49088  -0.48923
 Alpha  occ. eigenvalues --   -0.48879  -0.48852  -0.48551  -0.48376  -0.48133
 Alpha  occ. eigenvalues --   -0.47959  -0.47796  -0.47590  -0.47257  -0.47083
 Alpha  occ. eigenvalues --   -0.46950  -0.46686  -0.46629  -0.46585  -0.46309
 Alpha  occ. eigenvalues --   -0.46242  -0.45863  -0.45767  -0.45352  -0.44982
 Alpha  occ. eigenvalues --   -0.44906  -0.44727  -0.44516  -0.44216  -0.44207
 Alpha  occ. eigenvalues --   -0.43939  -0.43569  -0.43361  -0.43229  -0.43071
 Alpha  occ. eigenvalues --   -0.42931  -0.42791  -0.42762  -0.42404  -0.42312
 Alpha  occ. eigenvalues --   -0.42211  -0.41607  -0.41542  -0.41344  -0.41075
 Alpha  occ. eigenvalues --   -0.40937  -0.40820  -0.40664  -0.40428  -0.40163
 Alpha  occ. eigenvalues --   -0.39852  -0.39682  -0.39501  -0.39242  -0.39169
 Alpha  occ. eigenvalues --   -0.39016  -0.38797  -0.38727  -0.38593  -0.38354
 Alpha  occ. eigenvalues --   -0.38028  -0.37862  -0.37835  -0.37478  -0.37401
 Alpha  occ. eigenvalues --   -0.37241  -0.36613  -0.36399  -0.36221  -0.35658
 Alpha  occ. eigenvalues --   -0.35544  -0.35479  -0.35275  -0.35123  -0.34815
 Alpha  occ. eigenvalues --   -0.34370  -0.34059  -0.33537  -0.33392  -0.32908
 Alpha  occ. eigenvalues --   -0.32597  -0.32372  -0.32198  -0.32091  -0.31930
 Alpha  occ. eigenvalues --   -0.31656  -0.30944  -0.30883  -0.30781  -0.30277
 Alpha  occ. eigenvalues --   -0.29127  -0.28713  -0.28575  -0.28293  -0.27811
 Alpha  occ. eigenvalues --   -0.27354  -0.27186  -0.23213  -0.22222
 Alpha virt. eigenvalues --   -0.09002  -0.07115  -0.02007  -0.00790   0.00421
 Alpha virt. eigenvalues --    0.02404   0.03003   0.03146   0.03990   0.04047
 Alpha virt. eigenvalues --    0.04933   0.05647   0.07491   0.08471   0.09209

 Mulliken charges:
               1
     1  Mg   0.827971
     2  C    0.026445
     3  C   -0.169555
     4  C   -0.020395
     5  C   -0.136186
     6  N   -0.639264
     7  C    0.322617
     8  C   -0.077423
     9  C   -0.140006
    10  C    0.309264
    11  C   -0.316525
    12  C   -0.192122
    13  C   -0.269208
    14  C    0.621825
    15  O   -0.470899
    16  O   -0.491168
    17  N   -0.704923
    18  C    0.270151
    19  C    0.077789
    20  C   -0.068813
    21  C    0.311590
    22  C   -0.384839
    23  C    0.254541
    24  O   -0.405419
    25  N   -0.671773
    26  C    0.226940
    27  C    0.054219
    28  C    0.000991
    29  C    0.320962
    30  C    0.241136
    31  C   -0.259855
    32  C   -0.315958
    33  N   -0.747489
    34  C    0.258480
    35  C    0.000125
    36  C    0.018415
    37  C    0.357438
    38  C   -0.347022
    39  C    0.350845
    40  O   -0.458433
    41  C   -0.321664
    42  C    0.639867
    43  O   -0.493009
    44  O   -0.452014
    45  C   -0.038964
    46  C   -0.017227
    47  C   -0.109293
    48  C    0.139770
    49  C   -0.350326
    50  C   -0.243005
    51  C   -0.182805
    52  C   -0.168836
    53  C   -0.073628
    54  C   -0.299005
    55  C   -0.176644
    56  C   -0.178989
    57  C   -0.179933
    58  C   -0.034591
    59  C   -0.324483
    60  C   -0.170172
    61  C   -0.180449
    62  C   -0.145300
    63  C   -0.046773
    64  C   -0.290264
    65  C   -0.307561
    66  H    0.072530
    67  H    0.030075
    68  H    0.073865
    69  H    0.100766
    70  H    0.112534
    71  H    0.106031
    72  H    0.099261
    73  H    0.123284
    74  H    0.119425
    75  H    0.120064
    76  H    0.134420
    77  H    0.139306
    78  H    0.136107
    79  H    0.162172
    80  H    0.094393
    81  H    0.060295
    82  H    0.075096
    83  H    0.116458
    84  H    0.113202
    85  H    0.121066
    86  H    0.118374
    87  H    0.120284
    88  H    0.160762
    89  H    0.150835
    90  H    0.169369
    91  H    0.102107
    92  H    0.123499
    93  H    0.080197
    94  H    0.123289
    95  H    0.126392
    96  H    0.110098
    97  H    0.088690
    98  H    0.103248
    99  H    0.109068
   100  H    0.103938
   101  H    0.072533
   102  H    0.073188
   103  H    0.093499
   104  H    0.107105
   105  H    0.105247
   106  H    0.093509
   107  H    0.054989
   108  H    0.098884
   109  H    0.092914
   110  H    0.077789
   111  H    0.111710
   112  H    0.091093
   113  H    0.051596
   114  H    0.117267
   115  H    0.108346
   116  H    0.087668
   117  H    0.092395
   118  H    0.091467
   119  H    0.079652
   120  H    0.082117
   121  H    0.096450
   122  H    0.051591
   123  H    0.085593
   124  H    0.089779
   125  H    0.109581
   126  H    0.084481
   127  H    0.085827
   128  H    0.072963
   129  H    0.117301
   130  H    0.114758
   131  H    0.127953
   132  H    0.099028
   133  O   -0.414871
   134  H    0.036931
 Sum of Mulliken charges =  -0.00000

 Dipole moment (field-independent basis, Debye):
    X=              1.3881    Y=             -5.1813    Z=             -0.8772  Tot=              5.4353
 Quadrupole moment (field-independent basis, Debye-Ang):
   XX=           -373.8885   YY=           -442.6270   ZZ=           -393.4402
   XY=             10.8735   XZ=             28.1117   YZ=            -31.6325

 Normal termination of Gaussian 16 at Wed Oct  9 14:20:17 2019.
