 Gaussian 16, Revision A.03,
 Gaussian 16:  ES64L-G16RevA.03 25-Dec-2016

 ----------------------------------------------------------------------
 # td=(NStates=1) iop(3/107=0140000000,3/108=0140000000) iop(3/107=0140
 000000,3/108=0140000000) CAM-B3LYP/6-31G(d,p)
 ----------------------------------------------------------------------

 --
 TD
 --
 Symbolic Z-matrix:
 Charge =  0 Multiplicity = 1

                         Standard orientation:
 ---------------------------------------------------------------------
 Center     Atomic      Atomic             Coordinates (Angstroms)
 Number     Number       Type             X           Y           Z
 ---------------------------------------------------------------------
      1         12           0       -5.632893    1.204521    0.231502
      2          6           0       -5.025778   -2.154938   -0.282537
      3          6           0       -3.343291    1.180671    2.843433
      4          6           0       -6.158084    4.529973    0.614042
      5          6           0       -7.956626    1.166661   -2.500917
      6          7           0       -4.459070   -0.353818    1.176922
      7          6           0       -4.319218   -1.673348    0.793031
      8          6           0       -3.243841   -2.369292    1.569559
      9          6           0       -3.000651   -1.407039    2.678985
     10          6           0       -3.668477   -0.109638    2.223711
     11          6           0       -3.592954   -1.754658    4.116944
     12          6           0       -2.040776   -2.696532    0.655313
     13          6           0       -0.899374   -3.329696    1.523388
     14          6           0        0.273852   -3.770372    0.611303
     15          8           0        0.518801   -3.306592   -0.490687
     16          8           0        1.135235   -4.586555    1.254308
     17          7           0       -4.930143    2.629701    1.498023
     18          6           0       -3.958969    2.414092    2.406045
     19          6           0       -3.829618    3.644475    3.120827
     20          6           0       -4.637075    4.602437    2.592438
     21          6           0       -5.247974    3.977614    1.454660
     22          6           0       -2.744408    3.862354    4.220953
     23          6           0       -4.611648    6.010010    2.808747
     24          8           0       -3.989178    6.595747    3.755331
     25          7           0       -6.843629    2.588769   -0.757499
     26          6           0       -6.905757    3.938684   -0.455365
     27          6           0       -7.980345    4.600540   -1.198822
     28          6           0       -8.437632    3.553725   -2.116576
     29          6           0       -7.695588    2.430418   -1.851446
     30          6           0       -8.391600    5.961150   -1.252123
     31          6           0       -9.385010    3.783117   -3.159219
     32          6           0       -8.829284    4.081339   -4.643840
     33          7           0       -6.348543   -0.173943   -1.133790
     34          6           0       -7.278454   -0.019769   -2.058143
     35          6           0       -7.501323   -1.310375   -2.721475
     36          6           0       -6.649485   -2.144666   -2.067228
     37          6           0       -5.986085   -1.457291   -1.052703
     38          6           0       -8.467546   -1.718077   -3.860097
     39          6           0       -6.176707   -3.568016   -1.920618
     40          8           0       -6.534696   -4.541222   -2.644771
     41          6           0       -5.085017   -3.585574   -0.881549
     42          6           0       -5.447313   -4.618619    0.213058
     43          8           0       -5.963060   -4.420575    1.275314
     44          8           0       -5.039404   -5.866691   -0.220344
     45          6           0       -5.442554   -6.948712    0.620674
     46          6           0        2.207012   -4.956829    0.555710
     47          6           0        3.313630   -4.056147    0.772023
     48          6           0        3.951823   -3.147287    0.063303
     49          6           0        3.711906   -3.007092   -1.331507
     50          6           0        5.145703   -2.389366    0.656012
     51          6           0        6.439596   -2.741596   -0.061510
     52          6           0        7.600137   -1.867418    0.457832
     53          6           0        9.064623   -1.930560   -0.238822
     54          6           0        9.640910   -3.276848   -0.013476
     55          6           0        9.879128   -0.838528    0.431901
     56          6           0       11.237624   -0.733916   -0.282113
     57          6           0       12.214593    0.320102    0.223568
     58          6           0       13.564957    0.525364   -0.524809
     59          6           0       14.411101   -0.908874   -0.478601
     60          6           0       14.347067    1.840005   -0.243545
     61          6           0       15.608742    2.020711   -0.972191
     62          6           0       16.112177    3.385818   -0.582450
     63          6           0       17.513888    3.722470   -1.165293
     64          6           0       17.454088    3.835336   -2.715926
     65          6           0       18.054738    5.059077   -0.667655
     66          1           0       -2.575851    1.271003    3.668143
     67          1           0       -6.341824    5.485161    0.650215
     68          1           0       -8.592159    1.158741   -3.157288
     69          1           0       -3.578608   -3.127094    2.064660
     70          1           0       -2.034822   -0.987911    3.002134
     71          1           0       -3.161273   -2.627431    4.680189
     72          1           0       -3.533565   -0.810208    4.688134
     73          1           0       -4.561259   -2.097271    4.013308
     74          1           0       -2.342634   -3.548544   -0.113621
     75          1           0       -1.776938   -1.669241    0.055966
     76          1           0       -0.529735   -2.701154    2.460175
     77          1           0       -1.251039   -4.208410    2.271965
     78          1           0       -1.729310    3.597615    3.880963
     79          1           0       -2.848508    4.922196    4.596620
     80          1           0       -3.132143    3.286581    4.925350
     81          1           0       -5.115137    6.733883    2.132893
     82          1           0      -10.030930    2.783945   -3.378802
     83          1           0      -10.045674    4.674557   -3.104895
     84          1           0       -9.534708    4.107422   -5.420160
     85          1           0       -8.222764    4.959521   -4.496834
     86          1           0       -8.108122    3.274335   -4.816335
     87          1           0       -8.153572   -1.069055   -4.699694
     88          1           0       -8.525083   -2.764158   -4.067635
     89          1           0       -9.571425   -1.431055   -3.484938
     90          1           0       -4.173992   -3.960343   -1.218227
     91          1           0        2.583546   -6.032132    1.035971
     92          1           0        2.012315   -5.036221   -0.472333
     93          1           0        3.640864   -4.319492    1.702450
     94          1           0        2.655521   -3.213480   -1.811185
     95          1           0        3.711356   -1.870736   -1.738337
     96          1           0        4.449106   -3.706325   -1.886397
     97          1           0        4.920017   -1.411439    0.410222
     98          1           0        5.355053   -2.458181    1.730827
     99          1           0        6.669168   -3.851571    0.007070
    100          1           0        6.307062   -2.613186   -1.085810
    101          1           0        7.200019   -0.855437    0.579151
    102          1           0        7.636798   -2.123148    1.697498
    103          1           0        8.842022   -1.742983   -1.231641
    104          1           0        8.601055   -3.936093   -0.387493
    105          1           0       10.504929   -3.601236   -0.528490
    106          1           0        9.957493   -3.257640    1.117100
    107          1           0        9.670947    0.124879    0.407208
    108          1           0        9.982270   -1.114900    1.459921
    109          1           0       11.849768   -1.611015   -0.099506
    110          1           0       11.215969   -0.844929   -1.370455
    111          1           0       11.684547    1.392168    0.315470
    112          1           0       12.427719    0.008793    1.288248
    113          1           0       13.314368    0.396223   -1.682492
    114          1           0       14.668327   -1.074061    0.674840
    115          1           0       13.965241   -1.799249   -0.881455
    116          1           0       15.551265   -0.421062   -0.893196
    117          1           0       13.794441    2.734229   -0.418052
    118          1           0       14.570510    2.006457    0.859803
    119          1           0       16.426839    1.397666   -0.638840
    120          1           0       15.362698    1.983455   -2.058732
    121          1           0       15.327596    4.314611   -0.916307
    122          1           0       16.313138    3.471349    0.591999
    123          1           0       18.177953    2.869467   -0.872061
    124          1           0       16.758301    4.711328   -2.908510
    125          1           0       18.201650    4.346780   -3.132142
    126          1           0       16.950991    2.921811   -3.137189
    127          1           0       18.374466    4.904817    0.400910
    128          1           0       18.887104    5.315055   -1.082921
    129          1           0       17.282203    5.860096   -0.947175
    130          1           0       -4.887249   -8.000657    0.380322
    131          1           0       -6.567600   -7.030517    0.623816
    132          1           0       -5.110716   -6.725553    1.705882
    133          8           0       -7.862776    6.790332   -0.399397
    134          1           0       -9.075964    6.303774   -2.003362
 ---------------------------------------------------------------------

 SCF Done:  E(RCAM-B3LYP) =  -3043.41617033     A.U. after   16 cycles

 Excitation energies and oscillator strengths:

 Excited State   1:      Singlet-A      2.1206 eV  584.68 nm  f=0.0864  <S**2>=0.000
     243 -> 246        0.36331
     244 -> 245        0.59647
 This state for optimization and/or second-order correction.
 Total Energy, E(TD-HF/TD-DFT) =  -3043.33824144
 Copying the excited state density for this state as the 1-particle RhoCI density.

 The electronic state is 1-A.
 Alpha  occ. eigenvalues --  -46.82364 -19.23222 -19.23094 -19.18931 -19.18133
 Alpha  occ. eigenvalues --  -19.17176 -19.16285 -19.15878 -14.39681 -14.37203
 Alpha  occ. eigenvalues --  -14.37116 -14.36797 -10.36327 -10.36205 -10.32054
 Alpha  occ. eigenvalues --  -10.29969 -10.29846 -10.29295 -10.28892 -10.28203
 Alpha  occ. eigenvalues --  -10.27316 -10.27128 -10.26977 -10.26873 -10.26857
 Alpha  occ. eigenvalues --  -10.26715 -10.26240 -10.25881 -10.25855 -10.25792
 Alpha  occ. eigenvalues --  -10.24993 -10.24921 -10.24808 -10.24700 -10.24662
 Alpha  occ. eigenvalues --  -10.24460 -10.24401 -10.24184 -10.24004 -10.23748
 Alpha  occ. eigenvalues --  -10.23428 -10.23195 -10.23109 -10.22793 -10.22755
 Alpha  occ. eigenvalues --  -10.22713 -10.22463 -10.22351 -10.22212 -10.22101
 Alpha  occ. eigenvalues --  -10.22095 -10.21957 -10.21836 -10.21731 -10.21692
 Alpha  occ. eigenvalues --  -10.21635 -10.20993 -10.20941 -10.20844 -10.20817
 Alpha  occ. eigenvalues --  -10.20766 -10.20067 -10.19475 -10.19460 -10.19305
 Alpha  occ. eigenvalues --  -10.18875  -3.10790  -1.85749  -1.85256  -1.85183
 Alpha  occ. eigenvalues --   -1.16413  -1.14192  -1.06379  -1.06213  -1.04641
 Alpha  occ. eigenvalues --   -1.03269  -1.02343  -1.01829  -1.01405  -1.00575
 Alpha  occ. eigenvalues --   -0.98622  -0.89608  -0.87088  -0.86689  -0.86053
 Alpha  occ. eigenvalues --   -0.85669  -0.85184  -0.84527  -0.83602  -0.83507
 Alpha  occ. eigenvalues --   -0.83262  -0.82536  -0.82069  -0.81382  -0.80325
 Alpha  occ. eigenvalues --   -0.79334  -0.78742  -0.77844  -0.77714  -0.77043
 Alpha  occ. eigenvalues --   -0.75224  -0.75031  -0.74579  -0.73543  -0.72488
 Alpha  occ. eigenvalues --   -0.71247  -0.70691  -0.70480  -0.70166  -0.69872
 Alpha  occ. eigenvalues --   -0.69682  -0.68996  -0.67947  -0.67234  -0.66943
 Alpha  occ. eigenvalues --   -0.66156  -0.64995  -0.64860  -0.63422  -0.62897
 Alpha  occ. eigenvalues --   -0.62758  -0.61684  -0.60874  -0.60478  -0.59720
 Alpha  occ. eigenvalues --   -0.59569  -0.58313  -0.58274  -0.58112  -0.57395
 Alpha  occ. eigenvalues --   -0.56869  -0.56570  -0.56515  -0.55368  -0.55025
 Alpha  occ. eigenvalues --   -0.54944  -0.54588  -0.53714  -0.52907  -0.52837
 Alpha  occ. eigenvalues --   -0.52516  -0.51772  -0.51660  -0.51513  -0.51323
 Alpha  occ. eigenvalues --   -0.51135  -0.50829  -0.50347  -0.49853  -0.49292
 Alpha  occ. eigenvalues --   -0.49202  -0.48911  -0.48778  -0.48616  -0.48573
 Alpha  occ. eigenvalues --   -0.48290  -0.47782  -0.47511  -0.47424  -0.47278
 Alpha  occ. eigenvalues --   -0.46817  -0.46491  -0.46224  -0.46133  -0.45894
 Alpha  occ. eigenvalues --   -0.45685  -0.45445  -0.45318  -0.45242  -0.45029
 Alpha  occ. eigenvalues --   -0.44791  -0.44584  -0.44376  -0.44269  -0.43954
 Alpha  occ. eigenvalues --   -0.43917  -0.43518  -0.43437  -0.43358  -0.43074
 Alpha  occ. eigenvalues --   -0.42917  -0.42885  -0.42494  -0.42366  -0.42037
 Alpha  occ. eigenvalues --   -0.41612  -0.41282  -0.40871  -0.40717  -0.40415
 Alpha  occ. eigenvalues --   -0.40382  -0.40308  -0.40167  -0.39998  -0.39779
 Alpha  occ. eigenvalues --   -0.39591  -0.39535  -0.39412  -0.39381  -0.38901
 Alpha  occ. eigenvalues --   -0.38726  -0.38498  -0.38293  -0.38195  -0.38069
 Alpha  occ. eigenvalues --   -0.37888  -0.37803  -0.37620  -0.37330  -0.37137
 Alpha  occ. eigenvalues --   -0.36856  -0.36765  -0.36595  -0.36094  -0.35831
 Alpha  occ. eigenvalues --   -0.35419  -0.35343  -0.35113  -0.34984  -0.34766
 Alpha  occ. eigenvalues --   -0.34350  -0.33966  -0.33880  -0.33636  -0.32981
 Alpha  occ. eigenvalues --   -0.32940  -0.32396  -0.32320  -0.32240  -0.32192
 Alpha  occ. eigenvalues --   -0.31586  -0.31511  -0.31157  -0.30338  -0.30197
 Alpha  occ. eigenvalues --   -0.28841  -0.28379  -0.28032  -0.27370  -0.27140
 Alpha  occ. eigenvalues --   -0.27016  -0.26869  -0.23276  -0.22443
 Alpha virt. eigenvalues --   -0.08574  -0.07734  -0.02339  -0.01733  -0.00085
 Alpha virt. eigenvalues --    0.01765   0.02876   0.03158   0.03614   0.04558
 Alpha virt. eigenvalues --    0.04718   0.04853   0.07539   0.07994   0.08961

 Mulliken charges:
               1
     1  Mg   0.827460
     2  C    0.068858
     3  C   -0.209223
     4  C   -0.122708
     5  C   -0.050583
     6  N   -0.632048
     7  C    0.273663
     8  C   -0.095046
     9  C   -0.183010
    10  C    0.360461
    11  C   -0.323277
    12  C   -0.151485
    13  C   -0.272814
    14  C    0.607291
    15  O   -0.461668
    16  O   -0.406885
    17  N   -0.729843
    18  C    0.366589
    19  C   -0.033854
    20  C    0.031852
    21  C    0.306314
    22  C   -0.375536
    23  C    0.212252
    24  O   -0.445414
    25  N   -0.681828
    26  C    0.266725
    27  C   -0.002340
    28  C    0.083077
    29  C    0.275293
    30  C    0.210744
    31  C   -0.301241
    32  C   -0.315757
    33  N   -0.729545
    34  C    0.284240
    35  C   -0.037633
    36  C    0.033725
    37  C    0.289204
    38  C   -0.361433
    39  C    0.385851
    40  O   -0.482676
    41  C   -0.298686
    42  C    0.606485
    43  O   -0.445532
    44  O   -0.446163
    45  C   -0.086131
    46  C   -0.008632
    47  C   -0.111836
    48  C    0.154262
    49  C   -0.393585
    50  C   -0.216073
    51  C   -0.188393
    52  C   -0.170389
    53  C   -0.063696
    54  C   -0.267393
    55  C   -0.151777
    56  C   -0.202436
    57  C   -0.166835
    58  C   -0.045694
    59  C   -0.314305
    60  C   -0.170214
    61  C   -0.162567
    62  C   -0.153839
    63  C   -0.065585
    64  C   -0.302891
    65  C   -0.301456
    66  H    0.102586
    67  H    0.093289
    68  H    0.035545
    69  H    0.117117
    70  H    0.112762
    71  H    0.104901
    72  H    0.116295
    73  H    0.135124
    74  H    0.110186
    75  H    0.122661
    76  H    0.139343
    77  H    0.117814
    78  H    0.121880
    79  H    0.160252
    80  H    0.135388
    81  H    0.107895
    82  H    0.088169
    83  H    0.119192
    84  H    0.125393
    85  H    0.118141
    86  H    0.107043
    87  H    0.130134
    88  H    0.159615
    89  H    0.107361
    90  H    0.169466
    91  H    0.076578
    92  H    0.111842
    93  H    0.074271
    94  H    0.137720
    95  H    0.084364
    96  H    0.117164
    97  H    0.109786
    98  H    0.099981
    99  H    0.092192
   100  H    0.106732
   101  H    0.094154
   102  H    0.039038
   103  H    0.096925
   104  H    0.065638
   105  H    0.112770
   106  H    0.089987
   107  H    0.103267
   108  H    0.092805
   109  H    0.089192
   110  H    0.087612
   111  H    0.053959
   112  H    0.084899
   113  H    0.066635
   114  H    0.081089
   115  H    0.123600
   116  H    0.067536
   117  H    0.107414
   118  H    0.082835
   119  H    0.106806
   120  H    0.102753
   121  H    0.053859
   122  H    0.073500
   123  H    0.077589
   124  H    0.077163
   125  H    0.109478
   126  H    0.099750
   127  H    0.088762
   128  H    0.114498
   129  H    0.093464
   130  H    0.115262
   131  H    0.135250
   132  H    0.115968
   133  O   -0.466024
   134  H    0.089997
 Sum of Mulliken charges =  -0.00000

 Dipole moment (field-independent basis, Debye):
    X=              1.7431    Y=             -5.2296    Z=             -1.1769  Tot=              5.6367
 Quadrupole moment (field-independent basis, Debye-Ang):
   XX=           -377.9860   YY=           -447.3965   ZZ=           -393.8259
   XY=             21.7946   XZ=             21.5238   YZ=            -42.2468

 Normal termination of Gaussian 16 at Sat Oct  5 02:05:02 2019.
