 Gaussian 16, Revision A.03,
 Gaussian 16:  ES64L-G16RevA.03 25-Dec-2016

 ----------------------------------------------------------------------
 # td=(NStates=1) iop(3/107=0140000000,3/108=0140000000) iop(3/107=0140
 000000,3/108=0140000000) CAM-B3LYP/6-31G(d,p)
 ----------------------------------------------------------------------

 --
 TD
 --
 Symbolic Z-matrix:
 Charge =  0 Multiplicity = 1

                         Standard orientation:
 ---------------------------------------------------------------------
 Center     Atomic      Atomic             Coordinates (Angstroms)
 Number     Number       Type             X           Y           Z
 ---------------------------------------------------------------------
      1         12           0       -5.645864    1.105650    0.234462
      2          6           0       -5.037619   -2.205872   -0.280543
      3          6           0       -3.399119    1.247785    2.748295
      4          6           0       -6.147708    4.501369    0.565572
      5          6           0       -7.913727    1.185154   -2.361827
      6          7           0       -4.429703   -0.298483    1.047531
      7          6           0       -4.291143   -1.633796    0.687917
      8          6           0       -3.202964   -2.410907    1.530815
      9          6           0       -2.868521   -1.204917    2.561674
     10          6           0       -3.673223    0.014983    2.120460
     11          6           0       -3.377133   -1.650054    3.991837
     12          6           0       -1.991221   -2.756484    0.694533
     13          6           0       -0.894266   -3.560865    1.502536
     14          6           0        0.221220   -3.898120    0.550329
     15          8           0        0.448163   -3.468287   -0.560047
     16          8           0        0.981364   -4.804514    1.176059
     17          7           0       -4.852858    2.587733    1.500179
     18          6           0       -3.941731    2.493889    2.427676
     19          6           0       -3.675658    3.671455    3.121492
     20          6           0       -4.626094    4.604991    2.542202
     21          6           0       -5.260417    3.955321    1.483885
     22          6           0       -2.830615    3.809375    4.316829
     23          6           0       -4.695967    6.008296    2.897461
     24          8           0       -4.111756    6.568387    3.957637
     25          7           0       -6.934466    2.605733   -0.665956
     26          6           0       -6.943405    3.909048   -0.465660
     27          6           0       -7.954611    4.561001   -1.275640
     28          6           0       -8.471420    3.608025   -2.075489
     29          6           0       -7.721791    2.447131   -1.725315
     30          6           0       -8.281515    5.905726   -1.262442
     31          6           0       -9.513899    3.770990   -3.214853
     32          6           0       -8.919954    4.217303   -4.543428
     33          7           0       -6.311613   -0.132443   -1.105261
     34          6           0       -7.298986   -0.093656   -2.100319
     35          6           0       -7.516485   -1.303863   -2.666047
     36          6           0       -6.754132   -2.234255   -1.988129
     37          6           0       -5.897844   -1.418367   -1.116182
     38          6           0       -8.580916   -1.715864   -3.794097
     39          6           0       -6.357864   -3.566619   -1.962101
     40          8           0       -6.747811   -4.560021   -2.523336
     41          6           0       -5.139488   -3.576393   -0.822163
     42          6           0       -5.226076   -4.660728    0.178579
     43          8           0       -5.538091   -4.497750    1.342906
     44          8           0       -4.887815   -5.845480   -0.305112
     45          6           0       -5.225855   -6.889034    0.470763
     46          6           0        2.261638   -5.096348    0.571577
     47          6           0        3.348138   -4.063352    0.903487
     48          6           0        3.914952   -3.114117    0.161794
     49          6           0        3.677141   -2.955339   -1.293169
     50          6           0        5.104136   -2.354713    0.644679
     51          6           0        6.419166   -2.590038    0.063921
     52          6           0        7.699285   -1.764292    0.650088
     53          6           0        8.940586   -1.873603   -0.159056
     54          6           0        9.571090   -3.262958   -0.025082
     55          6           0        9.927395   -0.825726    0.383651
     56          6           0       11.275866   -0.867427   -0.296704
     57          6           0       12.231729    0.187775    0.310472
     58          6           0       13.563318    0.401166   -0.484910
     59          6           0       14.510035   -0.766478   -0.360635
     60          6           0       14.284373    1.752876   -0.137041
     61          6           0       15.514567    2.127660   -1.017572
     62          6           0       16.086863    3.502616   -0.668283
     63          6           0       17.374370    3.882944   -1.314236
     64          6           0       17.401828    3.907920   -2.836056
     65          6           0       17.929938    5.175134   -0.851495
     66          1           0       -2.569139    1.367876    3.346185
     67          1           0       -6.170150    5.511608    0.737991
     68          1           0       -8.895576    1.200796   -3.006898
     69          1           0       -3.713636   -3.061344    2.139245
     70          1           0       -1.700893   -1.090157    2.526860
     71          1           0       -3.078298   -2.717008    4.133507
     72          1           0       -2.972039   -0.920432    4.636660
     73          1           0       -4.354292   -1.665276    4.139772
     74          1           0       -2.212968   -3.568755   -0.229002
     75          1           0       -1.481591   -1.921311    0.254540
     76          1           0       -0.344223   -3.066706    2.214917
     77          1           0       -1.328257   -4.456964    1.974112
     78          1           0       -1.802826    3.894881    3.943997
     79          1           0       -2.878127    4.931927    4.635917
     80          1           0       -2.879783    2.945213    5.181505
     81          1           0       -5.305017    6.652476    2.178115
     82          1           0      -10.034617    2.845856   -3.228879
     83          1           0      -10.236166    4.524785   -2.890231
     84          1           0       -9.806425    4.530709   -5.270567
     85          1           0       -8.296836    5.169529   -4.342524
     86          1           0       -8.254020    3.398550   -5.002068
     87          1           0       -8.288551   -1.175816   -4.720019
     88          1           0       -8.477085   -2.783359   -3.903438
     89          1           0       -9.579045   -1.527601   -3.610867
     90          1           0       -4.340484   -3.784486   -1.458925
     91          1           0        2.548699   -6.071993    1.041736
     92          1           0        2.089935   -5.303152   -0.564324
     93          1           0        3.442989   -4.121137    2.000056
     94          1           0        2.664482   -3.180955   -1.783106
     95          1           0        3.654420   -1.996162   -1.399221
     96          1           0        4.676350   -3.408988   -1.777363
     97          1           0        4.930267   -1.075277    0.429263
     98          1           0        4.868065   -2.297697    1.789924
     99          1           0        6.609617   -3.658057    0.574559
    100          1           0        6.309774   -2.702782   -0.921833
    101          1           0        7.581245   -0.455695    0.541956
    102          1           0        7.696363   -1.971604    1.613291
    103          1           0        8.732486   -1.645447   -1.189343
    104          1           0        8.837225   -4.005332   -0.192046
    105          1           0       10.511075   -3.408100   -0.591071
    106          1           0        9.936271   -3.387119    1.033911
    107          1           0        9.464471   -0.098768    0.221505
    108          1           0        9.980998   -0.949928    1.387333
    109          1           0       11.638281   -1.898666    0.032746
    110          1           0       11.201504   -0.739883   -1.387703
    111          1           0       11.625601    1.233607    0.444487
    112          1           0       12.584485    0.042533    1.420347
    113          1           0       12.968805    0.408496   -1.479262
    114          1           0       14.858649   -0.845578    0.823652
    115          1           0       14.138566   -1.733556   -0.857358
    116          1           0       15.359946   -0.385596   -0.977897
    117          1           0       13.454989    2.551282   -0.045458
    118          1           0       14.731896    1.599467    0.860184
    119          1           0       16.411370    1.332935   -0.972742
    120          1           0       14.955764    2.133078   -2.112598
    121          1           0       15.261561    4.147212   -0.862457
    122          1           0       16.092259    3.437944    0.360227
    123          1           0       18.156903    3.355209   -1.326870
    124          1           0       16.735308    4.750222   -3.259457
    125          1           0       18.515192    3.847741   -3.271591
    126          1           0       17.042964    2.853029   -3.149169
    127          1           0       18.122818    5.211093    0.396268
    128          1           0       19.021824    5.058726   -1.249255
    129          1           0       17.312164    6.129085   -0.953119
    130          1           0       -4.552140   -7.864334    0.184422
    131          1           0       -6.308258   -7.280669    0.278325
    132          1           0       -4.908593   -6.384891    1.464307
    133          8           0       -7.797052    6.796919   -0.515194
    134          1           0       -9.039333    6.210615   -1.691748
 ---------------------------------------------------------------------

 SCF Done:  E(RCAM-B3LYP) =  -3043.33206736     A.U. after   16 cycles

 Excitation energies and oscillator strengths:

 Excited State   1:      Singlet-A      2.0441 eV  606.54 nm  f=0.1199  <S**2>=0.000
     243 -> 246       -0.27395
     244 -> 245        0.63852
 This state for optimization and/or second-order correction.
 Total Energy, E(TD-HF/TD-DFT) =  -3043.25694698
 Copying the excited state density for this state as the 1-particle RhoCI density.

 The electronic state is 1-A.
 Alpha  occ. eigenvalues --  -46.81941 -19.22720 -19.22245 -19.17676 -19.17366
 Alpha  occ. eigenvalues --  -19.17050 -19.17040 -19.16137 -14.39175 -14.37762
 Alpha  occ. eigenvalues --  -14.37293 -14.36461 -10.34925 -10.34701 -10.31671
 Alpha  occ. eigenvalues --  -10.31223 -10.28382 -10.28195 -10.27977 -10.27867
 Alpha  occ. eigenvalues --  -10.27455 -10.27105 -10.26662 -10.26567 -10.26537
 Alpha  occ. eigenvalues --  -10.26536 -10.26509 -10.25437 -10.25265 -10.25057
 Alpha  occ. eigenvalues --  -10.25011 -10.24783 -10.24724 -10.24660 -10.24568
 Alpha  occ. eigenvalues --  -10.23888 -10.23883 -10.23835 -10.23559 -10.23508
 Alpha  occ. eigenvalues --  -10.23473 -10.23290 -10.23259 -10.23182 -10.23005
 Alpha  occ. eigenvalues --  -10.22777 -10.22682 -10.22663 -10.22492 -10.22277
 Alpha  occ. eigenvalues --  -10.22221 -10.22057 -10.22056 -10.21994 -10.21972
 Alpha  occ. eigenvalues --  -10.21910 -10.21885 -10.21881 -10.21488 -10.21143
 Alpha  occ. eigenvalues --  -10.20954 -10.20609 -10.19880 -10.19812 -10.19624
 Alpha  occ. eigenvalues --  -10.17269  -3.10610  -1.85536  -1.85082  -1.85034
 Alpha  occ. eigenvalues --   -1.16726  -1.13844  -1.07974  -1.05760  -1.04985
 Alpha  occ. eigenvalues --   -1.04539  -1.03121  -1.01265  -1.00870  -1.00298
 Alpha  occ. eigenvalues --   -0.99189  -0.89039  -0.87274  -0.86803  -0.86287
 Alpha  occ. eigenvalues --   -0.86060  -0.85482  -0.85292  -0.84235  -0.83643
 Alpha  occ. eigenvalues --   -0.83497  -0.83331  -0.82034  -0.80989  -0.80226
 Alpha  occ. eigenvalues --   -0.80206  -0.78915  -0.78548  -0.77842  -0.77108
 Alpha  occ. eigenvalues --   -0.75956  -0.75372  -0.74458  -0.73557  -0.72603
 Alpha  occ. eigenvalues --   -0.71779  -0.71209  -0.70962  -0.70175  -0.69970
 Alpha  occ. eigenvalues --   -0.69644  -0.69226  -0.68306  -0.67971  -0.67010
 Alpha  occ. eigenvalues --   -0.66643  -0.65325  -0.64634  -0.62820  -0.62632
 Alpha  occ. eigenvalues --   -0.61898  -0.61107  -0.60472  -0.60282  -0.59908
 Alpha  occ. eigenvalues --   -0.59155  -0.58501  -0.58097  -0.57239  -0.56688
 Alpha  occ. eigenvalues --   -0.56606  -0.56373  -0.55908  -0.55742  -0.55546
 Alpha  occ. eigenvalues --   -0.55084  -0.53713  -0.53646  -0.53133  -0.52646
 Alpha  occ. eigenvalues --   -0.52324  -0.52185  -0.52031  -0.51330  -0.51279
 Alpha  occ. eigenvalues --   -0.51055  -0.50582  -0.50247  -0.49596  -0.49578
 Alpha  occ. eigenvalues --   -0.49060  -0.48838  -0.48357  -0.48335  -0.48083
 Alpha  occ. eigenvalues --   -0.48065  -0.47827  -0.47431  -0.46991  -0.46969
 Alpha  occ. eigenvalues --   -0.46833  -0.46624  -0.46413  -0.46314  -0.46040
 Alpha  occ. eigenvalues --   -0.45819  -0.45526  -0.45320  -0.45139  -0.45026
 Alpha  occ. eigenvalues --   -0.44864  -0.44521  -0.44281  -0.43991  -0.43908
 Alpha  occ. eigenvalues --   -0.43441  -0.43294  -0.43246  -0.43065  -0.43054
 Alpha  occ. eigenvalues --   -0.42608  -0.42514  -0.42442  -0.42278  -0.42074
 Alpha  occ. eigenvalues --   -0.41969  -0.41858  -0.41442  -0.41365  -0.41235
 Alpha  occ. eigenvalues --   -0.40758  -0.40547  -0.40515  -0.40473  -0.40235
 Alpha  occ. eigenvalues --   -0.40162  -0.39783  -0.39669  -0.39496  -0.39241
 Alpha  occ. eigenvalues --   -0.39115  -0.38674  -0.38520  -0.38495  -0.38295
 Alpha  occ. eigenvalues --   -0.38232  -0.38097  -0.37573  -0.37275  -0.36948
 Alpha  occ. eigenvalues --   -0.36689  -0.36282  -0.36198  -0.35881  -0.35698
 Alpha  occ. eigenvalues --   -0.35388  -0.35316  -0.35233  -0.35135  -0.34256
 Alpha  occ. eigenvalues --   -0.33874  -0.33640  -0.33289  -0.33180  -0.32979
 Alpha  occ. eigenvalues --   -0.32639  -0.32316  -0.32249  -0.31923  -0.31721
 Alpha  occ. eigenvalues --   -0.31286  -0.30927  -0.30884  -0.30504  -0.30403
 Alpha  occ. eigenvalues --   -0.29999  -0.29035  -0.28143  -0.27735  -0.27615
 Alpha  occ. eigenvalues --   -0.27555  -0.27131  -0.23112  -0.22796
 Alpha virt. eigenvalues --   -0.09592  -0.07209  -0.02529  -0.02094   0.00638
 Alpha virt. eigenvalues --    0.02686   0.02927   0.03041   0.04229   0.04261
 Alpha virt. eigenvalues --    0.04532   0.05652   0.08005   0.08401   0.09635

 Mulliken charges:
               1
     1  Mg   0.835507
     2  C    0.130172
     3  C   -0.179118
     4  C   -0.157486
     5  C   -0.188060
     6  N   -0.658826
     7  C    0.256717
     8  C   -0.114298
     9  C   -0.189797
    10  C    0.378484
    11  C   -0.317268
    12  C   -0.170210
    13  C   -0.263876
    14  C    0.601916
    15  O   -0.476143
    16  O   -0.457513
    17  N   -0.711325
    18  C    0.357191
    19  C    0.070185
    20  C   -0.009746
    21  C    0.294718
    22  C   -0.416843
    23  C    0.206496
    24  O   -0.462399
    25  N   -0.636529
    26  C    0.303426
    27  C    0.013897
    28  C    0.025598
    29  C    0.279587
    30  C    0.243187
    31  C   -0.224039
    32  C   -0.292948
    33  N   -0.730666
    34  C    0.284088
    35  C    0.014924
    36  C    0.051415
    37  C    0.238483
    38  C   -0.371592
    39  C    0.331079
    40  O   -0.449956
    41  C   -0.352651
    42  C    0.632386
    43  O   -0.491275
    44  O   -0.397729
    45  C   -0.097595
    46  C   -0.002559
    47  C   -0.124201
    48  C    0.127403
    49  C   -0.358669
    50  C   -0.208628
    51  C   -0.165690
    52  C   -0.127098
    53  C   -0.068587
    54  C   -0.320748
    55  C   -0.120860
    56  C   -0.186457
    57  C   -0.165725
    58  C   -0.047987
    59  C   -0.291822
    60  C   -0.179988
    61  C   -0.179730
    62  C   -0.148729
    63  C   -0.021167
    64  C   -0.315588
    65  C   -0.281285
    66  H    0.080034
    67  H    0.099703
    68  H    0.089119
    69  H    0.140538
    70  H    0.094721
    71  H    0.104700
    72  H    0.115973
    73  H    0.136589
    74  H    0.088964
    75  H    0.134353
    76  H    0.144710
    77  H    0.140787
    78  H    0.132390
    79  H    0.168977
    80  H    0.119287
    81  H    0.107968
    82  H    0.115822
    83  H    0.120704
    84  H    0.104236
    85  H    0.112048
    86  H    0.114240
    87  H    0.123024
    88  H    0.149169
    89  H    0.136084
    90  H    0.165772
    91  H    0.112722
    92  H    0.115852
    93  H    0.077652
    94  H    0.133913
    95  H    0.132410
    96  H    0.097855
    97  H    0.034959
    98  H    0.090780
    99  H    0.080708
   100  H    0.105162
   101  H    0.029725
   102  H    0.106572
   103  H    0.088182
   104  H    0.102231
   105  H    0.104248
   106  H    0.088496
   107  H    0.081310
   108  H    0.096499
   109  H    0.097332
   110  H    0.092007
   111  H    0.055340
   112  H    0.067860
   113  H    0.067464
   114  H    0.077282
   115  H    0.100523
   116  H    0.107588
   117  H    0.086650
   118  H    0.088587
   119  H    0.081844
   120  H    0.069445
   121  H    0.097150
   122  H    0.102665
   123  H    0.098967
   124  H    0.093951
   125  H    0.084390
   126  H    0.096186
   127  H    0.048497
   128  H    0.084007
   129  H    0.100115
   130  H    0.091867
   131  H    0.118704
   132  H    0.128908
   133  O   -0.455413
   134  H    0.055447
 Sum of Mulliken charges =  -0.00000

 Dipole moment (field-independent basis, Debye):
    X=              1.1350    Y=             -4.0233    Z=             -2.1946  Tot=              4.7214
 Quadrupole moment (field-independent basis, Debye-Ang):
   XX=           -368.5666   YY=           -455.6106   ZZ=           -399.7402
   XY=             -3.5196   XZ=             32.4983   YZ=            -36.8950

 Normal termination of Gaussian 16 at Mon Oct  7 14:07:16 2019.
