 Gaussian 16, Revision A.03,
 Gaussian 16:  ES64L-G16RevA.03 25-Dec-2016

 ----------------------------------------------------------------------
 # td=(NStates=1) iop(3/107=0140000000,3/108=0140000000) iop(3/107=0140
 000000,3/108=0140000000) CAM-B3LYP/6-31G(d,p)
 ----------------------------------------------------------------------

 --
 TD
 --
 Symbolic Z-matrix:
 Charge =  0 Multiplicity = 1

                         Standard orientation:
 ---------------------------------------------------------------------
 Center     Atomic      Atomic             Coordinates (Angstroms)
 Number     Number       Type             X           Y           Z
 ---------------------------------------------------------------------
      1         12           0       -5.606307    1.329216    0.028096
      2          6           0       -5.001928   -2.184669   -0.269532
      3          6           0       -3.294683    1.243065    2.779957
      4          6           0       -6.110663    4.553354    0.559631
      5          6           0       -8.041529    1.126204   -2.299195
      6          7           0       -4.342457   -0.314728    1.024550
      7          6           0       -4.259190   -1.582573    0.700235
      8          6           0       -3.187614   -2.262725    1.501487
      9          6           0       -2.951282   -1.264455    2.676769
     10          6           0       -3.502298    0.037766    2.188997
     11          6           0       -3.640320   -1.697987    3.961155
     12          6           0       -1.942468   -2.533126    0.564019
     13          6           0       -1.049550   -3.532726    1.327875
     14          6           0        0.245913   -3.906781    0.591134
     15          8           0        0.464472   -3.439225   -0.548404
     16          8           0        1.086505   -4.753270    1.201616
     17          7           0       -4.857434    2.594975    1.521426
     18          6           0       -3.930614    2.411365    2.480715
     19          6           0       -3.767802    3.703204    3.178052
     20          6           0       -4.479918    4.664807    2.560104
     21          6           0       -5.206172    4.009592    1.401176
     22          6           0       -2.820997    3.992480    4.266458
     23          6           0       -4.518657    6.072442    2.773454
     24          8           0       -4.015153    6.617028    3.807232
     25          7           0       -6.799750    2.627322   -0.737171
     26          6           0       -6.855600    3.903491   -0.414625
     27          6           0       -7.906760    4.585006   -1.235258
     28          6           0       -8.407934    3.578850   -2.085157
     29          6           0       -7.726968    2.361531   -1.746394
     30          6           0       -8.308786    5.966465   -1.193001
     31          6           0       -9.564199    3.749085   -3.102484
     32          6           0       -8.979098    4.061042   -4.605587
     33          7           0       -6.416983   -0.207089   -1.078387
     34          6           0       -7.429343   -0.147056   -2.072116
     35          6           0       -7.580653   -1.433311   -2.689664
     36          6           0       -6.715424   -2.246104   -1.913375
     37          6           0       -6.051615   -1.468359   -1.044753
     38          6           0       -8.525849   -1.734582   -3.788546
     39          6           0       -6.248851   -3.619718   -1.918881
     40          8           0       -6.452920   -4.675907   -2.578696
     41          6           0       -5.214622   -3.539764   -0.816809
     42          6           0       -5.525457   -4.581884    0.251495
     43          8           0       -5.825442   -4.339497    1.334979
     44          8           0       -5.259508   -5.942865   -0.235065
     45          6           0       -5.403013   -6.980654    0.668188
     46          6           0        2.366043   -5.076931    0.469314
     47          6           0        3.438386   -4.062540    0.865335
     48          6           0        4.008956   -3.201730    0.165995
     49          6           0        3.718482   -2.885822   -1.269780
     50          6           0        5.281580   -2.393485    0.668145
     51          6           0        6.663995   -2.743121    0.119445
     52          6           0        7.842607   -1.878546    0.583580
     53          6           0        9.168254   -2.061674   -0.201420
     54          6           0        9.624588   -3.515056   -0.189328
     55          6           0       10.128762   -1.082108    0.485732
     56          6           0       11.502736   -1.023011   -0.262793
     57          6           0       12.294944    0.186270    0.154827
     58          6           0       13.591498    0.408177   -0.453656
     59          6           0       14.570336   -0.778528   -0.033381
     60          6           0       14.182275    1.770576   -0.152510
     61          6           0       15.451246    2.172943   -0.794350
     62          6           0       15.944582    3.646724   -0.604578
     63          6           0       17.257301    4.052471   -1.454780
     64          6           0       16.989111    4.025573   -2.904758
     65          6           0       17.842990    5.379082   -0.901318
     66          1           0       -2.512038    1.263089    3.602787
     67          1           0       -6.209180    5.724177    0.699736
     68          1           0       -8.953898    0.965584   -3.083479
     69          1           0       -3.614632   -3.011682    1.998319
     70          1           0       -1.930663   -1.253710    2.817332
     71          1           0       -2.999385   -2.515919    4.528714
     72          1           0       -3.563902   -0.824205    4.714299
     73          1           0       -4.586639   -1.920288    3.648737
     74          1           0       -2.177284   -2.975016   -0.416446
     75          1           0       -1.485611   -1.526108    0.549431
     76          1           0       -0.620376   -3.132245    2.332722
     77          1           0       -1.608952   -4.449578    1.533523
     78          1           0       -1.755107    3.628922    3.920580
     79          1           0       -2.871480    5.118772    4.424413
     80          1           0       -3.331781    3.593423    5.431729
     81          1           0       -5.275594    6.794672    2.256259
     82          1           0       -9.919176    2.737234   -3.115918
     83          1           0      -10.222611    4.526469   -2.748038
     84          1           0      -10.009160    4.360529   -5.011687
     85          1           0       -8.415931    4.882785   -4.564819
     86          1           0       -8.337189    3.220870   -5.127437
     87          1           0       -8.308671   -1.068602   -4.608282
     88          1           0       -8.443761   -2.703013   -4.305113
     89          1           0       -9.716776   -1.676815   -3.621549
     90          1           0       -4.200637   -3.988105   -1.177610
     91          1           0        2.380324   -6.057427    0.987855
     92          1           0        2.157347   -5.325107   -0.690513
     93          1           0        3.877493   -4.244747    1.798789
     94          1           0        2.664509   -3.077597   -1.612730
     95          1           0        3.829408   -2.031082   -1.636708
     96          1           0        4.410506   -3.400259   -1.831112
     97          1           0        5.121921   -1.411522    0.296822
     98          1           0        5.175171   -2.430269    1.825615
     99          1           0        6.888766   -3.837541    0.185396
    100          1           0        6.663850   -2.558747   -0.930164
    101          1           0        7.531674   -0.780622    0.534515
    102          1           0        7.970259   -2.232761    1.604221
    103          1           0        9.067322   -1.594169   -1.185521
    104          1           0        8.982096   -4.228853   -0.609402
    105          1           0       10.500708   -3.505605   -0.459864
    106          1           0        9.955472   -3.919032    0.743114
    107          1           0        9.829342   -0.150062    0.333950
    108          1           0       10.340091   -1.620036    1.499499
    109          1           0       11.974578   -2.030610   -0.279938
    110          1           0       11.413504   -1.168572   -1.481850
    111          1           0       11.575791    1.139165    0.079578
    112          1           0       12.432387    0.153379    1.204174
    113          1           0       13.377043    0.196662   -1.656234
    114          1           0       14.764359   -1.144308    0.942277
    115          1           0       14.280169   -1.725719   -0.484835
    116          1           0       15.579006   -0.510324   -0.488715
    117          1           0       13.420322    2.550855   -0.037372
    118          1           0       14.498144    1.619848    0.923162
    119          1           0       16.260838    1.671612   -0.565156
    120          1           0       15.509111    2.001206   -1.960170
    121          1           0       15.236173    4.359368   -0.893571
    122          1           0       15.894200    3.879102    0.505990
    123          1           0       17.868803    3.238148   -1.178825
    124          1           0       16.235916    4.735362   -3.147532
    125          1           0       17.767015    4.343344   -3.390669
    126          1           0       16.708006    3.049958   -3.222552
    127          1           0       17.883582    5.270269    0.050732
    128          1           0       18.783452    5.709219   -1.489473
    129          1           0       17.055500    6.059952   -1.224734
    130          1           0       -5.037408   -7.963364    0.338285
    131          1           0       -6.443656   -6.794045    1.114084
    132          1           0       -4.871756   -6.796553    1.614800
    133          8           0       -7.877105    6.810423   -0.424352
    134          1           0       -9.004030    6.267561   -1.863455
 ---------------------------------------------------------------------

 SCF Done:  E(RCAM-B3LYP) =  -3043.39948152     A.U. after   16 cycles

 Excitation energies and oscillator strengths:

 Excited State   1:      Singlet-A      2.0789 eV  596.40 nm  f=0.1924  <S**2>=0.000
     243 -> 246       -0.24677
     244 -> 245        0.64941
 This state for optimization and/or second-order correction.
 Total Energy, E(TD-HF/TD-DFT) =  -3043.32308468
 Copying the excited state density for this state as the 1-particle RhoCI density.

 The electronic state is 1-A.
 Alpha  occ. eigenvalues --  -46.81838 -19.21970 -19.19743 -19.18822 -19.17342
 Alpha  occ. eigenvalues --  -19.16794 -19.16254 -19.15550 -14.38260 -14.38014
 Alpha  occ. eigenvalues --  -14.37699 -14.36131 -10.34937 -10.34155 -10.31261
 Alpha  occ. eigenvalues --  -10.30749 -10.29391 -10.29064 -10.28122 -10.27530
 Alpha  occ. eigenvalues --  -10.27529 -10.27480 -10.27132 -10.26898 -10.26267
 Alpha  occ. eigenvalues --  -10.26234 -10.25912 -10.25440 -10.25340 -10.25182
 Alpha  occ. eigenvalues --  -10.24900 -10.24673 -10.24648 -10.24396 -10.24176
 Alpha  occ. eigenvalues --  -10.24127 -10.23904 -10.23749 -10.23631 -10.23546
 Alpha  occ. eigenvalues --  -10.23510 -10.23160 -10.23110 -10.23004 -10.22793
 Alpha  occ. eigenvalues --  -10.22725 -10.22330 -10.22076 -10.22051 -10.21890
 Alpha  occ. eigenvalues --  -10.21674 -10.21615 -10.21143 -10.20944 -10.20917
 Alpha  occ. eigenvalues --  -10.20911 -10.20896 -10.20720 -10.20285 -10.20277
 Alpha  occ. eigenvalues --  -10.20256 -10.20169 -10.19370 -10.18112 -10.17954
 Alpha  occ. eigenvalues --  -10.17773  -3.10424  -1.85354  -1.84915  -1.84817
 Alpha  occ. eigenvalues --   -1.13949  -1.11498  -1.06688  -1.05315  -1.04592
 Alpha  occ. eigenvalues --   -1.03761  -1.01864  -1.01348  -1.00386  -0.99186
 Alpha  occ. eigenvalues --   -0.98274  -0.88985  -0.86571  -0.86372  -0.86050
 Alpha  occ. eigenvalues --   -0.85576  -0.85146  -0.85014  -0.84095  -0.83812
 Alpha  occ. eigenvalues --   -0.83716  -0.83355  -0.81673  -0.80675  -0.80027
 Alpha  occ. eigenvalues --   -0.79181  -0.78671  -0.77973  -0.76785  -0.76224
 Alpha  occ. eigenvalues --   -0.76042  -0.75268  -0.74193  -0.73034  -0.72848
 Alpha  occ. eigenvalues --   -0.72763  -0.71944  -0.71339  -0.70856  -0.69851
 Alpha  occ. eigenvalues --   -0.69604  -0.69469  -0.68042  -0.67622  -0.66990
 Alpha  occ. eigenvalues --   -0.66280  -0.65465  -0.64571  -0.62950  -0.62758
 Alpha  occ. eigenvalues --   -0.62069  -0.60795  -0.60573  -0.59773  -0.59413
 Alpha  occ. eigenvalues --   -0.59131  -0.58039  -0.57811  -0.57647  -0.57220
 Alpha  occ. eigenvalues --   -0.56548  -0.56023  -0.55873  -0.55458  -0.54649
 Alpha  occ. eigenvalues --   -0.54246  -0.53464  -0.52863  -0.52425  -0.52107
 Alpha  occ. eigenvalues --   -0.52026  -0.51900  -0.51295  -0.51277  -0.50543
 Alpha  occ. eigenvalues --   -0.50069  -0.49791  -0.49653  -0.49403  -0.49255
 Alpha  occ. eigenvalues --   -0.48916  -0.48781  -0.48598  -0.48444  -0.48192
 Alpha  occ. eigenvalues --   -0.48060  -0.47602  -0.47220  -0.47129  -0.46961
 Alpha  occ. eigenvalues --   -0.46919  -0.46669  -0.46382  -0.46017  -0.45920
 Alpha  occ. eigenvalues --   -0.45859  -0.45521  -0.45412  -0.45325  -0.44811
 Alpha  occ. eigenvalues --   -0.44515  -0.44304  -0.44218  -0.44051  -0.43929
 Alpha  occ. eigenvalues --   -0.43501  -0.43471  -0.43287  -0.43045  -0.42677
 Alpha  occ. eigenvalues --   -0.42431  -0.42224  -0.42127  -0.41994  -0.41802
 Alpha  occ. eigenvalues --   -0.41649  -0.41601  -0.41308  -0.41176  -0.41045
 Alpha  occ. eigenvalues --   -0.40948  -0.40705  -0.40639  -0.40306  -0.40206
 Alpha  occ. eigenvalues --   -0.40136  -0.39707  -0.39655  -0.39426  -0.39116
 Alpha  occ. eigenvalues --   -0.38892  -0.38827  -0.38716  -0.38602  -0.38259
 Alpha  occ. eigenvalues --   -0.37977  -0.37913  -0.37614  -0.37321  -0.37190
 Alpha  occ. eigenvalues --   -0.37105  -0.37075  -0.36750  -0.36319  -0.35829
 Alpha  occ. eigenvalues --   -0.35507  -0.35190  -0.35011  -0.34966  -0.34578
 Alpha  occ. eigenvalues --   -0.34096  -0.33927  -0.33486  -0.33104  -0.32796
 Alpha  occ. eigenvalues --   -0.32201  -0.32141  -0.31972  -0.31418  -0.31404
 Alpha  occ. eigenvalues --   -0.30970  -0.30868  -0.29964  -0.29857  -0.29519
 Alpha  occ. eigenvalues --   -0.28981  -0.28657  -0.28378  -0.28153  -0.27800
 Alpha  occ. eigenvalues --   -0.27510  -0.27227  -0.23570  -0.22089
 Alpha virt. eigenvalues --   -0.09176  -0.07018  -0.02552  -0.01474   0.00258
 Alpha virt. eigenvalues --    0.02520   0.04078   0.04325   0.04684   0.04879
 Alpha virt. eigenvalues --    0.05225   0.05928   0.07752   0.08075   0.08876

 Mulliken charges:
               1
     1  Mg   0.857586
     2  C    0.143460
     3  C   -0.195325
     4  C   -0.180318
     5  C   -0.184908
     6  N   -0.634229
     7  C    0.315193
     8  C   -0.150762
     9  C   -0.168453
    10  C    0.328658
    11  C   -0.296232
    12  C   -0.149484
    13  C   -0.263937
    14  C    0.587919
    15  O   -0.490786
    16  O   -0.472240
    17  N   -0.726177
    18  C    0.377827
    19  C    0.042848
    20  C    0.047013
    21  C    0.285132
    22  C   -0.398499
    23  C    0.192412
    24  O   -0.432365
    25  N   -0.765633
    26  C    0.340627
    27  C   -0.038200
    28  C    0.015241
    29  C    0.312056
    30  C    0.251821
    31  C   -0.243991
    32  C   -0.313565
    33  N   -0.737609
    34  C    0.229275
    35  C    0.079994
    36  C    0.003877
    37  C    0.313347
    38  C   -0.404867
    39  C    0.368117
    40  O   -0.482664
    41  C   -0.371834
    42  C    0.606005
    43  O   -0.397961
    44  O   -0.476215
    45  C   -0.072649
    46  C   -0.008624
    47  C   -0.125140
    48  C    0.156466
    49  C   -0.382927
    50  C   -0.225355
    51  C   -0.187118
    52  C   -0.153305
    53  C   -0.073056
    54  C   -0.302487
    55  C   -0.147626
    56  C   -0.196939
    57  C   -0.146628
    58  C   -0.035196
    59  C   -0.337206
    60  C   -0.174133
    61  C   -0.168006
    62  C   -0.198723
    63  C   -0.085894
    64  C   -0.295008
    65  C   -0.293998
    66  H    0.104164
    67  H    0.145272
    68  H    0.101044
    69  H    0.113880
    70  H    0.097329
    71  H    0.101095
    72  H    0.102961
    73  H    0.138422
    74  H    0.133521
    75  H    0.119928
    76  H    0.119500
    77  H    0.139687
    78  H    0.113000
    79  H    0.178079
    80  H    0.088749
    81  H    0.105728
    82  H    0.120139
    83  H    0.124304
    84  H    0.112065
    85  H    0.135909
    86  H    0.112276
    87  H    0.129622
    88  H    0.151751
    89  H    0.115928
    90  H    0.156498
    91  H    0.123556
    92  H    0.129949
    93  H    0.079148
    94  H    0.138411
    95  H    0.114095
    96  H    0.121066
    97  H    0.105362
    98  H    0.078463
    99  H    0.088323
   100  H    0.094799
   101  H    0.073908
   102  H    0.091368
   103  H    0.084134
   104  H    0.113875
   105  H    0.101592
   106  H    0.092257
   107  H    0.101683
   108  H    0.090240
   109  H    0.092577
   110  H    0.051905
   111  H    0.062143
   112  H    0.101993
   113  H    0.054291
   114  H    0.109941
   115  H    0.103364
   116  H    0.094097
   117  H    0.094961
   118  H    0.089667
   119  H    0.112708
   120  H    0.064899
   121  H    0.091540
   122  H    0.069152
   123  H    0.087487
   124  H    0.098540
   125  H    0.108594
   126  H    0.105655
   127  H    0.114669
   128  H    0.088718
   129  H    0.099114
   130  H    0.126746
   131  H    0.104119
   132  H    0.095376
   133  O   -0.435921
   134  H    0.061981
 Sum of Mulliken charges =  -0.00000

 Dipole moment (field-independent basis, Debye):
    X=              2.8498    Y=             -1.7485    Z=             -1.1526  Tot=              3.5366
 Quadrupole moment (field-independent basis, Debye-Ang):
   XX=           -360.3065   YY=           -442.6372   ZZ=           -394.6247
   XY=            -16.3275   XZ=             27.1555   YZ=            -39.9289

 Normal termination of Gaussian 16 at Wed Oct  9 09:48:00 2019.
