 Gaussian 16, Revision A.03,
 Gaussian 16:  ES64L-G16RevA.03 25-Dec-2016

 ----------------------------------------------------------------------
 # td=(NStates=1) iop(3/107=0140000000,3/108=0140000000) iop(3/107=0140
 000000,3/108=0140000000) CAM-B3LYP/6-31G(d,p)
 ----------------------------------------------------------------------

 --
 TD
 --
 Symbolic Z-matrix:
 Charge =  0 Multiplicity = 1

                         Standard orientation:
 ---------------------------------------------------------------------
 Center     Atomic      Atomic             Coordinates (Angstroms)
 Number     Number       Type             X           Y           Z
 ---------------------------------------------------------------------
      1         12           0       -5.675127    1.207578    0.188232
      2          6           0       -4.987308   -2.111007   -0.359195
      3          6           0       -3.387202    1.216066    2.783017
      4          6           0       -6.189775    4.574329    0.576269
      5          6           0       -7.983569    1.131442   -2.413285
      6          7           0       -4.378671   -0.299238    1.118968
      7          6           0       -4.201834   -1.542221    0.648387
      8          6           0       -3.167998   -2.299341    1.506873
      9          6           0       -2.898288   -1.330554    2.618457
     10          6           0       -3.579994   -0.048361    2.124008
     11          6           0       -3.514134   -1.790765    4.089005
     12          6           0       -1.888169   -2.637360    0.626822
     13          6           0       -0.961415   -3.575052    1.518826
     14          6           0        0.274327   -3.967476    0.608473
     15          8           0        0.385552   -3.511354   -0.600580
     16          8           0        1.094925   -4.762595    1.246855
     17          7           0       -4.967610    2.637891    1.458320
     18          6           0       -4.063862    2.443210    2.395994
     19          6           0       -3.761187    3.636023    3.176956
     20          6           0       -4.494284    4.683560    2.549507
     21          6           0       -5.306308    3.919237    1.425810
     22          6           0       -2.727351    3.864458    4.252823
     23          6           0       -4.592926    6.082407    2.894108
     24          8           0       -3.977126    6.568785    3.798869
     25          7           0       -6.830762    2.630327   -0.675494
     26          6           0       -6.983093    3.948742   -0.463429
     27          6           0       -7.928819    4.670319   -1.229901
     28          6           0       -8.481799    3.570118   -2.063345
     29          6           0       -7.836496    2.333437   -1.675647
     30          6           0       -8.261281    6.083419   -1.095725
     31          6           0       -9.450700    3.758788   -3.089572
     32          6           0       -8.853952    4.171270   -4.373060
     33          7           0       -6.322363   -0.169489   -1.141519
     34          6           0       -7.359296   -0.030382   -2.140177
     35          6           0       -7.464130   -1.318926   -2.798528
     36          6           0       -6.585542   -2.206630   -2.103864
     37          6           0       -5.859180   -1.394644   -1.069312
     38          6           0       -8.301879   -1.701094   -3.870606
     39          6           0       -6.210076   -3.602575   -1.991776
     40          8           0       -6.601354   -4.566651   -2.550319
     41          6           0       -4.991486   -3.489248   -0.838835
     42          6           0       -5.316837   -4.646105    0.143131
     43          8           0       -5.838511   -4.453504    1.183436
     44          8           0       -4.915908   -5.874938   -0.292271
     45          6           0       -5.302605   -6.929035    0.568310
     46          6           0        2.405386   -5.174991    0.510014
     47          6           0        3.416362   -4.144263    0.894291
     48          6           0        4.002458   -3.308335    0.087288
     49          6           0        3.700246   -3.170330   -1.362574
     50          6           0        5.047481   -2.409797    0.634396
     51          6           0        6.509522   -2.769691    0.128710
     52          6           0        7.634913   -1.884377    0.649919
     53          6           0        8.990176   -2.120538   -0.055272
     54          6           0        9.582096   -3.539414    0.304864
     55          6           0        9.969130   -0.939840    0.269368
     56          6           0       11.317649   -0.855910   -0.344348
     57          6           0       12.195853    0.244279    0.247754
     58          6           0       13.544714    0.447636   -0.552781
     59          6           0       14.586323   -0.701722   -0.330839
     60          6           0       14.241827    1.821481   -0.051437
     61          6           0       15.380025    2.224354   -0.934146
     62          6           0       15.885771    3.571753   -0.686793
     63          6           0       17.217627    4.005730   -1.305407
     64          6           0       17.086481    4.154338   -2.870616
     65          6           0       17.735315    5.363187   -0.842298
     66          1           0       -2.759390    1.403666    3.710415
     67          1           0       -6.156991    5.768726    0.654873
     68          1           0       -8.648353    1.038103   -3.180718
     69          1           0       -3.525342   -3.400710    1.757715
     70          1           0       -1.855438   -1.056622    2.663978
     71          1           0       -3.139998   -2.765522    4.327796
     72          1           0       -3.105302   -1.146822    4.800566
     73          1           0       -4.617329   -1.577410    4.011184
     74          1           0       -2.105111   -3.168595   -0.250636
     75          1           0       -1.224747   -1.807400    0.340276
     76          1           0       -0.556651   -3.146546    2.362864
     77          1           0       -1.528902   -4.460142    1.775445
     78          1           0       -1.853625    3.640731    3.855000
     79          1           0       -2.653613    4.949506    4.528692
     80          1           0       -3.125617    3.177538    5.238501
     81          1           0       -5.215270    6.675869    2.282665
     82          1           0      -10.044032    2.774300   -3.252653
     83          1           0      -10.192196    4.615692   -2.819041
     84          1           0       -9.357559    4.138144   -5.317071
     85          1           0       -8.380929    5.359333   -4.301360
     86          1           0       -7.941955    3.449647   -4.562860
     87          1           0       -7.780038   -1.600820   -4.955811
     88          1           0       -8.326717   -2.752901   -4.018990
     89          1           0       -9.305518   -1.435896   -3.716559
     90          1           0       -4.136230   -4.154611   -1.472905
     91          1           0        2.656462   -6.214750    0.893547
     92          1           0        2.273983   -5.208970   -0.597048
     93          1           0        3.456708   -4.078513    1.948750
     94          1           0        2.718712   -3.640300   -1.500355
     95          1           0        3.572262   -2.041157   -1.808069
     96          1           0        4.411926   -3.673445   -2.025830
     97          1           0        4.867482   -1.292976    0.274912
     98          1           0        5.007297   -2.423406    1.833181
     99          1           0        6.784486   -3.783910    0.690524
    100          1           0        6.331290   -2.938730   -1.068701
    101          1           0        7.215634   -0.805261    0.596544
    102          1           0        7.890919   -2.025720    1.717964
    103          1           0        8.741676   -2.036418   -1.142795
    104          1           0        8.840991   -4.219854   -0.152648
    105          1           0       10.538832   -3.794403   -0.080649
    106          1           0        9.800152   -3.739258    1.388210
    107          1           0        9.592839   -0.033291   -0.134818
    108          1           0       10.054494   -0.991762    1.485509
    109          1           0       12.068129   -1.764532   -0.295586
    110          1           0       11.118208   -0.638564   -1.524750
    111          1           0       11.582876    1.240734    0.058373
    112          1           0       12.322853    0.262562    1.319333
    113          1           0       13.279063    0.477776   -1.623328
    114          1           0       14.657522   -0.827007    0.781700
    115          1           0       14.267505   -1.679906   -0.639846
    116          1           0       15.609917   -0.436891   -0.658778
    117          1           0       13.635511    2.708510    0.121026
    118          1           0       14.413500    1.470318    0.953754
    119          1           0       16.253258    1.504770   -0.804043
    120          1           0       15.208845    2.218270   -1.996547
    121          1           0       15.160391    4.370169   -1.168162
    122          1           0       15.702271    3.704448    0.367058
    123          1           0       17.826160    3.043857   -1.315982
    124          1           0       16.217080    4.872912   -3.259325
    125          1           0       18.080568    4.592399   -2.994207
    126          1           0       16.933882    3.219263   -3.259596
    127          1           0       17.790324    5.465413    0.058811
    128          1           0       18.736398    5.721823   -1.373200
    129          1           0       17.132556    6.168782   -0.946636
    130          1           0       -4.947992   -7.869558   -0.002591
    131          1           0       -6.385962   -6.871340    0.860014
    132          1           0       -4.691664   -6.906959    1.508379
    133          8           0       -7.811656    6.887757   -0.401828
    134          1           0       -9.265932    6.312663   -1.523155
 ---------------------------------------------------------------------

 SCF Done:  E(RCAM-B3LYP) =  -3043.47832230     A.U. after   15 cycles

 Excitation energies and oscillator strengths:

 Excited State   1:      Singlet-A      2.1743 eV  570.22 nm  f=0.0742  <S**2>=0.000
     243 -> 245        0.16106
     243 -> 246       -0.33569
     244 -> 245        0.57753
     244 -> 246        0.12952
 This state for optimization and/or second-order correction.
 Total Energy, E(TD-HF/TD-DFT) =  -3043.39841734
 Copying the excited state density for this state as the 1-particle RhoCI density.

 The electronic state is 1-A.
 Alpha  occ. eigenvalues --  -46.81636 -19.23903 -19.22207 -19.17469 -19.16961
 Alpha  occ. eigenvalues --  -19.16700 -19.16648 -19.16284 -14.38988 -14.37289
 Alpha  occ. eigenvalues --  -14.36847 -14.36392 -10.35412 -10.34189 -10.31244
 Alpha  occ. eigenvalues --  -10.29690 -10.29456 -10.29296 -10.28040 -10.27869
 Alpha  occ. eigenvalues --  -10.27751 -10.27226 -10.26588 -10.26270 -10.26041
 Alpha  occ. eigenvalues --  -10.25906 -10.25589 -10.25432 -10.25322 -10.24753
 Alpha  occ. eigenvalues --  -10.24639 -10.24624 -10.24188 -10.24101 -10.23994
 Alpha  occ. eigenvalues --  -10.23924 -10.23781 -10.23772 -10.23601 -10.23385
 Alpha  occ. eigenvalues --  -10.23369 -10.23260 -10.23248 -10.23191 -10.22787
 Alpha  occ. eigenvalues --  -10.22618 -10.22558 -10.22491 -10.22406 -10.22397
 Alpha  occ. eigenvalues --  -10.22382 -10.22367 -10.22206 -10.22196 -10.22099
 Alpha  occ. eigenvalues --  -10.22088 -10.21609 -10.21504 -10.21454 -10.20802
 Alpha  occ. eigenvalues --  -10.20604 -10.20442 -10.20187 -10.20096 -10.19841
 Alpha  occ. eigenvalues --  -10.18501  -3.10225  -1.85166  -1.84692  -1.84633
 Alpha  occ. eigenvalues --   -1.13982  -1.12431  -1.10446  -1.08971  -1.07734
 Alpha  occ. eigenvalues --   -1.05789  -1.02336  -1.01251  -1.00829  -0.99113
 Alpha  occ. eigenvalues --   -0.97888  -0.88754  -0.87192  -0.85851  -0.85466
 Alpha  occ. eigenvalues --   -0.84953  -0.84631  -0.84544  -0.83847  -0.83163
 Alpha  occ. eigenvalues --   -0.82826  -0.82451  -0.80900  -0.80349  -0.79513
 Alpha  occ. eigenvalues --   -0.78594  -0.78309  -0.77175  -0.76775  -0.76620
 Alpha  occ. eigenvalues --   -0.75215  -0.74901  -0.73911  -0.72886  -0.72657
 Alpha  occ. eigenvalues --   -0.71625  -0.71539  -0.70592  -0.69995  -0.69640
 Alpha  occ. eigenvalues --   -0.69327  -0.69016  -0.67597  -0.66594  -0.66461
 Alpha  occ. eigenvalues --   -0.65323  -0.64406  -0.63308  -0.62406  -0.61882
 Alpha  occ. eigenvalues --   -0.61652  -0.61138  -0.59859  -0.59149  -0.58687
 Alpha  occ. eigenvalues --   -0.58549  -0.58018  -0.57799  -0.57746  -0.57017
 Alpha  occ. eigenvalues --   -0.56639  -0.56518  -0.55872  -0.54738  -0.54040
 Alpha  occ. eigenvalues --   -0.53257  -0.52634  -0.52160  -0.52036  -0.51867
 Alpha  occ. eigenvalues --   -0.51634  -0.51398  -0.51049  -0.50683  -0.50457
 Alpha  occ. eigenvalues --   -0.50437  -0.49850  -0.49697  -0.49552  -0.49388
 Alpha  occ. eigenvalues --   -0.49096  -0.48961  -0.48698  -0.48524  -0.48079
 Alpha  occ. eigenvalues --   -0.47979  -0.47743  -0.47271  -0.46952  -0.46861
 Alpha  occ. eigenvalues --   -0.46724  -0.46624  -0.46292  -0.46233  -0.46194
 Alpha  occ. eigenvalues --   -0.45655  -0.45303  -0.45211  -0.44819  -0.44746
 Alpha  occ. eigenvalues --   -0.44623  -0.44468  -0.44347  -0.44287  -0.44150
 Alpha  occ. eigenvalues --   -0.43807  -0.43562  -0.43387  -0.43309  -0.42792
 Alpha  occ. eigenvalues --   -0.42573  -0.42451  -0.42309  -0.42137  -0.42072
 Alpha  occ. eigenvalues --   -0.41808  -0.41684  -0.41497  -0.41248  -0.41101
 Alpha  occ. eigenvalues --   -0.40569  -0.40476  -0.40397  -0.40081  -0.40019
 Alpha  occ. eigenvalues --   -0.39989  -0.39680  -0.39579  -0.39366  -0.39232
 Alpha  occ. eigenvalues --   -0.39053  -0.38776  -0.38680  -0.38594  -0.38313
 Alpha  occ. eigenvalues --   -0.38044  -0.37931  -0.37632  -0.37372  -0.37032
 Alpha  occ. eigenvalues --   -0.36536  -0.36496  -0.36186  -0.36044  -0.35880
 Alpha  occ. eigenvalues --   -0.35463  -0.35133  -0.35027  -0.34940  -0.34339
 Alpha  occ. eigenvalues --   -0.34241  -0.34042  -0.33366  -0.33155  -0.33006
 Alpha  occ. eigenvalues --   -0.32773  -0.32668  -0.32202  -0.31455  -0.31289
 Alpha  occ. eigenvalues --   -0.31286  -0.30360  -0.30062  -0.29562  -0.29092
 Alpha  occ. eigenvalues --   -0.28408  -0.28187  -0.27750  -0.27631  -0.27524
 Alpha  occ. eigenvalues --   -0.27137  -0.26899  -0.22752  -0.21893
 Alpha virt. eigenvalues --   -0.07760  -0.06852  -0.01819  -0.00106   0.01459
 Alpha virt. eigenvalues --    0.02395   0.03308   0.03632   0.04220   0.04505
 Alpha virt. eigenvalues --    0.05317   0.06234   0.08002   0.08599   0.09867

 Mulliken charges:
               1
     1  Mg   0.827008
     2  C    0.174115
     3  C   -0.194676
     4  C   -0.195781
     5  C   -0.125102
     6  N   -0.617044
     7  C    0.324888
     8  C   -0.155641
     9  C   -0.153112
    10  C    0.323723
    11  C   -0.310596
    12  C   -0.177261
    13  C   -0.271344
    14  C    0.590229
    15  O   -0.512374
    16  O   -0.446932
    17  N   -0.699361
    18  C    0.327422
    19  C    0.027225
    20  C   -0.049352
    21  C    0.316816
    22  C   -0.370447
    23  C    0.252543
    24  O   -0.412664
    25  N   -0.689655
    26  C    0.302238
    27  C   -0.003461
    28  C    0.031204
    29  C    0.263306
    30  C    0.245252
    31  C   -0.265350
    32  C   -0.282703
    33  N   -0.795696
    34  C    0.275423
    35  C    0.057768
    36  C   -0.010422
    37  C    0.336908
    38  C   -0.421726
    39  C    0.366957
    40  O   -0.429772
    41  C   -0.405670
    42  C    0.619210
    43  O   -0.454526
    44  O   -0.448326
    45  C   -0.086185
    46  C   -0.034202
    47  C   -0.118053
    48  C    0.186496
    49  C   -0.389825
    50  C   -0.228255
    51  C   -0.161003
    52  C   -0.159937
    53  C   -0.062410
    54  C   -0.324047
    55  C   -0.137924
    56  C   -0.169697
    57  C   -0.166537
    58  C   -0.066132
    59  C   -0.323115
    60  C   -0.182911
    61  C   -0.161291
    62  C   -0.165810
    63  C   -0.069715
    64  C   -0.292529
    65  C   -0.294198
    66  H    0.091676
    67  H    0.136276
    68  H    0.087117
    69  H    0.113010
    70  H    0.113002
    71  H    0.121976
    72  H    0.121269
    73  H    0.129655
    74  H    0.134583
    75  H    0.120467
    76  H    0.136176
    77  H    0.130047
    78  H    0.141589
    79  H    0.164568
    80  H    0.093297
    81  H    0.079181
    82  H    0.097213
    83  H    0.111272
    84  H    0.121296
    85  H    0.075046
    86  H    0.092841
    87  H    0.122576
    88  H    0.160014
    89  H    0.131639
    90  H    0.139377
    91  H    0.127288
    92  H    0.139318
    93  H    0.093407
    94  H    0.146706
    95  H    0.104941
    96  H    0.120977
    97  H    0.082112
    98  H    0.077207
    99  H    0.088001
   100  H    0.080320
   101  H    0.078063
   102  H    0.097035
   103  H    0.079245
   104  H    0.108899
   105  H    0.113921
   106  H    0.095857
   107  H    0.101338
   108  H    0.056048
   109  H    0.071759
   110  H    0.067772
   111  H    0.066850
   112  H    0.094432
   113  H    0.084139
   114  H    0.091871
   115  H    0.108797
   116  H    0.108450
   117  H    0.091059
   118  H    0.096848
   119  H    0.078317
   120  H    0.100218
   121  H    0.063380
   122  H    0.084004
   123  H    0.081287
   124  H    0.078357
   125  H    0.101605
   126  H    0.103758
   127  H    0.101749
   128  H    0.081244
   129  H    0.111985
   130  H    0.117540
   131  H    0.136424
   132  H    0.112553
   133  O   -0.381453
   134  H    0.035253
 Sum of Mulliken charges =  -0.00000

 Dipole moment (field-independent basis, Debye):
    X=              3.2004    Y=             -5.0954    Z=             -0.1885  Tot=              6.0201
 Quadrupole moment (field-independent basis, Debye-Ang):
   XX=           -387.5641   YY=           -434.0504   ZZ=           -393.0923
   XY=              5.4260   XZ=             26.6889   YZ=            -29.2313

 Normal termination of Gaussian 16 at Mon Oct  7 20:20:32 2019.
