 Gaussian 16, Revision A.03,
 Gaussian 16:  ES64L-G16RevA.03 25-Dec-2016

 ----------------------------------------------------------------------
 # td=(NStates=1) iop(3/107=0140000000,3/108=0140000000) iop(3/107=0140
 000000,3/108=0140000000) CAM-B3LYP/6-31G(d,p)
 ----------------------------------------------------------------------

 --
 TD
 --
 Symbolic Z-matrix:
 Charge =  0 Multiplicity = 1

                         Standard orientation:
 ---------------------------------------------------------------------
 Center     Atomic      Atomic             Coordinates (Angstroms)
 Number     Number       Type             X           Y           Z
 ---------------------------------------------------------------------
      1         12           0       -5.574253    1.260470    0.245159
      2          6           0       -5.000732   -2.244009   -0.247858
      3          6           0       -3.299990    1.202631    2.695050
      4          6           0       -6.150075    4.619004    0.626659
      5          6           0       -8.003787    1.217116   -2.258775
      6          7           0       -4.297897   -0.374130    1.076955
      7          6           0       -4.219284   -1.614528    0.663837
      8          6           0       -3.127233   -2.343827    1.445519
      9          6           0       -2.756690   -1.299936    2.608618
     10          6           0       -3.481564   -0.077061    2.079564
     11          6           0       -3.228345   -1.659541    3.953303
     12          6           0       -1.929943   -2.796419    0.577377
     13          6           0       -0.872510   -3.654572    1.448527
     14          6           0        0.297315   -4.002434    0.573945
     15          8           0        0.458937   -3.719194   -0.596688
     16          8           0        1.081009   -4.892422    1.264650
     17          7           0       -4.864789    2.687175    1.549261
     18          6           0       -3.893206    2.511149    2.489063
     19          6           0       -3.580045    3.793207    3.094920
     20          6           0       -4.386606    4.723135    2.503102
     21          6           0       -5.149482    4.002463    1.497455
     22          6           0       -2.607066    3.904883    4.251060
     23          6           0       -4.499184    6.112814    2.876977
     24          8           0       -3.747729    6.690558    3.682853
     25          7           0       -6.905448    2.721221   -0.634063
     26          6           0       -6.933028    4.033085   -0.359319
     27          6           0       -7.943542    4.666610   -1.174344
     28          6           0       -8.379156    3.703791   -2.059949
     29          6           0       -7.763665    2.449202   -1.689563
     30          6           0       -8.290677    6.044840   -1.018593
     31          6           0       -9.511914    3.756661   -3.090248
     32          6           0       -8.880831    4.047160   -4.605342
     33          7           0       -6.408424   -0.176931   -1.078203
     34          6           0       -7.316028   -0.039255   -2.001967
     35          6           0       -7.598595   -1.299165   -2.690758
     36          6           0       -6.655810   -2.127530   -2.031492
     37          6           0       -6.011473   -1.419212   -1.012609
     38          6           0       -8.528898   -1.633658   -3.827026
     39          6           0       -6.214327   -3.529137   -2.025331
     40          8           0       -6.586799   -4.549440   -2.636261
     41          6           0       -5.069353   -3.556704   -0.875715
     42          6           0       -5.339341   -4.657386    0.123554
     43          8           0       -5.857195   -4.503409    1.268978
     44          8           0       -5.134890   -5.816746   -0.329815
     45          6           0       -5.521420   -7.011394    0.491636
     46          6           0        2.306112   -5.197854    0.562219
     47          6           0        3.446752   -4.210237    0.935186
     48          6           0        4.042904   -3.294285    0.155439
     49          6           0        3.642512   -3.132895   -1.316257
     50          6           0        5.135877   -2.438866    0.658878
     51          6           0        6.464224   -2.779557    0.062948
     52          6           0        7.594970   -1.856301    0.583655
     53          6           0        8.922379   -2.001124   -0.006394
     54          6           0        9.490765   -3.398644    0.278934
     55          6           0        9.904091   -0.849577    0.579392
     56          6           0       11.326267   -0.999269   -0.166549
     57          6           0       12.115975    0.287335    0.169453
     58          6           0       13.478757    0.382401   -0.510405
     59          6           0       14.410102   -0.717480   -0.311013
     60          6           0       13.956055    1.914274   -0.316265
     61          6           0       15.297185    2.257176   -1.164549
     62          6           0       15.858136    3.634062   -0.759566
     63          6           0       17.229857    3.906054   -1.384961
     64          6           0       16.950278    4.112370   -2.880306
     65          6           0       17.936217    5.115742   -0.874252
     66          1           0       -2.346105    1.199513    3.220010
     67          1           0       -6.190360    5.693463    0.757813
     68          1           0       -8.851026    1.118138   -2.826398
     69          1           0       -3.453508   -3.183923    1.992338
     70          1           0       -1.744680   -1.096553    2.710355
     71          1           0       -2.641741   -2.485141    4.317054
     72          1           0       -3.047585   -0.796660    4.621377
     73          1           0       -4.295612   -1.862845    3.926661
     74          1           0       -2.348176   -3.546670   -0.119847
     75          1           0       -1.393110   -2.023010    0.043128
     76          1           0       -0.503563   -2.928538    2.314747
     77          1           0       -1.384072   -4.610788    1.976307
     78          1           0       -1.660053    3.698974    3.814330
     79          1           0       -2.547764    4.901956    4.735002
     80          1           0       -2.735810    3.054477    5.078189
     81          1           0       -5.112803    6.662293    2.286295
     82          1           0       -9.850337    2.629239   -3.060143
     83          1           0      -10.112044    4.393608   -2.946872
     84          1           0       -9.556183    4.149773   -5.495401
     85          1           0       -8.282632    5.003545   -4.405760
     86          1           0       -7.978412    3.488146   -4.747785
     87          1           0       -8.338243   -1.183430   -4.892593
     88          1           0       -8.497453   -2.655848   -3.958195
     89          1           0       -9.501886   -1.373181   -3.545397
     90          1           0       -4.122457   -3.871193   -1.470788
     91          1           0        2.511988   -6.225033    1.011099
     92          1           0        2.314894   -5.244973   -0.504671
     93          1           0        3.806869   -3.925996    1.933157
     94          1           0        2.612415   -3.358754   -1.664328
     95          1           0        3.659137   -2.221090   -1.573031
     96          1           0        4.506195   -3.651794   -1.953215
     97          1           0        5.027679   -1.411766    0.420448
     98          1           0        5.299687   -2.383436    1.760826
     99          1           0        6.748834   -3.746173    0.402211
    100          1           0        6.452752   -2.806567   -1.083890
    101          1           0        7.318423   -0.708222    0.403002
    102          1           0        7.605013   -1.831829    1.535782
    103          1           0        8.927169   -1.835686   -1.025219
    104          1           0        8.950275   -4.131393   -0.159238
    105          1           0       10.381360   -3.506308   -0.023031
    106          1           0        9.394766   -3.654087    1.414557
    107          1           0        9.507162    0.270581    0.231216
    108          1           0       10.115030   -0.896619    1.680348
    109          1           0       11.778208   -1.977067   -0.026516
    110          1           0       11.328037   -1.033068   -1.291966
    111          1           0       11.596214    1.063895   -0.034469
    112          1           0       12.302405    0.247720    1.271085
    113          1           0       13.390813    0.480130   -1.585340
    114          1           0       14.446144   -1.118037    0.774228
    115          1           0       13.839385   -1.619678   -0.725333
    116          1           0       15.433626   -0.557562   -0.805116
    117          1           0       13.120526    2.527393   -0.595277
    118          1           0       14.418333    2.046164    0.634613
    119          1           0       16.130821    1.446362   -0.785394
    120          1           0       15.130313    2.298058   -2.074790
    121          1           0       14.949344    4.315808   -0.935382
    122          1           0       16.122557    3.635293    0.441886
    123          1           0       17.802393    3.080135   -1.456733
    124          1           0       16.432560    5.106416   -3.200268
    125          1           0       17.978538    4.300528   -3.289575
    126          1           0       16.601054    3.208771   -3.457008
    127          1           0       17.836737    4.815523    0.341223
    128          1           0       18.961428    5.290753   -1.068980
    129          1           0       17.205945    5.868026   -1.110148
    130          1           0       -5.135468   -7.800347   -0.142244
    131          1           0       -6.662374   -7.223976    0.548838
    132          1           0       -5.144002   -6.969093    1.485918
    133          8           0       -7.837172    6.892682   -0.356671
    134          1           0       -9.267482    6.186598   -1.720823
 ---------------------------------------------------------------------

 SCF Done:  E(RCAM-B3LYP) =  -3043.44966799     A.U. after   16 cycles

 Excitation energies and oscillator strengths:

 Excited State   1:      Singlet-A      2.0314 eV  610.35 nm  f=0.1717  <S**2>=0.000
     243 -> 246        0.26536
     244 -> 245        0.64497
 This state for optimization and/or second-order correction.
 Total Energy, E(TD-HF/TD-DFT) =  -3043.37501641
 Copying the excited state density for this state as the 1-particle RhoCI density.

 The electronic state is 1-A.
 Alpha  occ. eigenvalues --  -46.84221 -19.23335 -19.22601 -19.18183 -19.18175
 Alpha  occ. eigenvalues --  -19.17343 -19.16884 -19.14810 -14.39163 -14.37456
 Alpha  occ. eigenvalues --  -14.37010 -14.36835 -10.35511 -10.34168 -10.31899
 Alpha  occ. eigenvalues --  -10.30804 -10.29424 -10.28549 -10.28046 -10.28012
 Alpha  occ. eigenvalues --  -10.27530 -10.27317 -10.26852 -10.26310 -10.26291
 Alpha  occ. eigenvalues --  -10.26232 -10.26124 -10.25684 -10.25508 -10.25381
 Alpha  occ. eigenvalues --  -10.25047 -10.24998 -10.24516 -10.24451 -10.23824
 Alpha  occ. eigenvalues --  -10.23818 -10.23587 -10.23545 -10.23312 -10.23175
 Alpha  occ. eigenvalues --  -10.23095 -10.23037 -10.23027 -10.22802 -10.22720
 Alpha  occ. eigenvalues --  -10.22625 -10.22373 -10.22022 -10.21930 -10.21511
 Alpha  occ. eigenvalues --  -10.21187 -10.21159 -10.21142 -10.21028 -10.21026
 Alpha  occ. eigenvalues --  -10.20953 -10.20799 -10.20577 -10.20568 -10.20540
 Alpha  occ. eigenvalues --  -10.20284 -10.20261 -10.20038 -10.19640 -10.19321
 Alpha  occ. eigenvalues --  -10.18504  -3.12291  -1.87269  -1.86730  -1.86688
 Alpha  occ. eigenvalues --   -1.15079  -1.13321  -1.10383  -1.05299  -1.05249
 Alpha  occ. eigenvalues --   -1.05209  -1.02947  -1.01981  -1.00960  -1.00881
 Alpha  occ. eigenvalues --   -0.99979  -0.88688  -0.86726  -0.85763  -0.85484
 Alpha  occ. eigenvalues --   -0.85365  -0.84730  -0.84218  -0.84029  -0.83863
 Alpha  occ. eigenvalues --   -0.83778  -0.83003  -0.81739  -0.80310  -0.79593
 Alpha  occ. eigenvalues --   -0.79137  -0.78394  -0.77980  -0.77653  -0.76549
 Alpha  occ. eigenvalues --   -0.75761  -0.75415  -0.73977  -0.73829  -0.72822
 Alpha  occ. eigenvalues --   -0.72640  -0.70937  -0.70544  -0.70174  -0.69891
 Alpha  occ. eigenvalues --   -0.69743  -0.68718  -0.68199  -0.67633  -0.66752
 Alpha  occ. eigenvalues --   -0.66415  -0.65203  -0.64726  -0.62848  -0.62599
 Alpha  occ. eigenvalues --   -0.62305  -0.61656  -0.61300  -0.60246  -0.59402
 Alpha  occ. eigenvalues --   -0.59104  -0.58821  -0.58525  -0.58080  -0.57814
 Alpha  occ. eigenvalues --   -0.56908  -0.56618  -0.55905  -0.55479  -0.55015
 Alpha  occ. eigenvalues --   -0.54178  -0.53430  -0.52900  -0.52726  -0.52191
 Alpha  occ. eigenvalues --   -0.52000  -0.51630  -0.51310  -0.51242  -0.50938
 Alpha  occ. eigenvalues --   -0.50699  -0.50216  -0.50004  -0.49839  -0.49499
 Alpha  occ. eigenvalues --   -0.49024  -0.48764  -0.48458  -0.48164  -0.47928
 Alpha  occ. eigenvalues --   -0.47785  -0.47678  -0.47162  -0.47068  -0.46783
 Alpha  occ. eigenvalues --   -0.46686  -0.46425  -0.46209  -0.46100  -0.45899
 Alpha  occ. eigenvalues --   -0.45762  -0.45700  -0.45482  -0.45295  -0.45234
 Alpha  occ. eigenvalues --   -0.44944  -0.44775  -0.44573  -0.44245  -0.43958
 Alpha  occ. eigenvalues --   -0.43624  -0.43546  -0.43393  -0.43241  -0.43009
 Alpha  occ. eigenvalues --   -0.42852  -0.42743  -0.42517  -0.42250  -0.42203
 Alpha  occ. eigenvalues --   -0.42048  -0.41868  -0.41388  -0.41094  -0.40889
 Alpha  occ. eigenvalues --   -0.40863  -0.40711  -0.40577  -0.40527  -0.40412
 Alpha  occ. eigenvalues --   -0.40297  -0.39954  -0.39701  -0.39621  -0.39461
 Alpha  occ. eigenvalues --   -0.39426  -0.39249  -0.39086  -0.38827  -0.38499
 Alpha  occ. eigenvalues --   -0.38319  -0.38030  -0.37588  -0.37377  -0.37319
 Alpha  occ. eigenvalues --   -0.36895  -0.36846  -0.36523  -0.36135  -0.35800
 Alpha  occ. eigenvalues --   -0.35582  -0.35476  -0.35105  -0.34930  -0.34861
 Alpha  occ. eigenvalues --   -0.34387  -0.34130  -0.33821  -0.33621  -0.33286
 Alpha  occ. eigenvalues --   -0.33015  -0.32414  -0.31859  -0.31520  -0.31439
 Alpha  occ. eigenvalues --   -0.31158  -0.31087  -0.30294  -0.29210  -0.29134
 Alpha  occ. eigenvalues --   -0.28933  -0.28482  -0.28202  -0.28064  -0.27843
 Alpha  occ. eigenvalues --   -0.27640  -0.27047  -0.22789  -0.22144
 Alpha virt. eigenvalues --   -0.09246  -0.06625  -0.01894  -0.00690   0.00399
 Alpha virt. eigenvalues --    0.02186   0.02528   0.03356   0.03931   0.04202
 Alpha virt. eigenvalues --    0.05076   0.05873   0.08238   0.08321   0.09563

 Mulliken charges:
               1
     1  Mg   0.842603
     2  C    0.174087
     3  C   -0.200166
     4  C   -0.180650
     5  C   -0.143314
     6  N   -0.630327
     7  C    0.320278
     8  C   -0.167225
     9  C   -0.147898
    10  C    0.323964
    11  C   -0.302219
    12  C   -0.171844
    13  C   -0.280468
    14  C    0.628229
    15  O   -0.462143
    16  O   -0.460818
    17  N   -0.711986
    18  C    0.301108
    19  C    0.050395
    20  C   -0.026963
    21  C    0.307847
    22  C   -0.380276
    23  C    0.257306
    24  O   -0.434690
    25  N   -0.704551
    26  C    0.330814
    27  C    0.000853
    28  C   -0.017707
    29  C    0.315519
    30  C    0.259558
    31  C   -0.168045
    32  C   -0.343081
    33  N   -0.712530
    34  C    0.250406
    35  C    0.033762
    36  C   -0.011420
    37  C    0.274854
    38  C   -0.380609
    39  C    0.370347
    40  O   -0.474090
    41  C   -0.379288
    42  C    0.616052
    43  O   -0.533133
    44  O   -0.405888
    45  C   -0.094040
    46  C   -0.002053
    47  C   -0.131779
    48  C    0.128743
    49  C   -0.376030
    50  C   -0.236134
    51  C   -0.176623
    52  C   -0.149131
    53  C   -0.049434
    54  C   -0.304187
    55  C   -0.178320
    56  C   -0.205243
    57  C   -0.142990
    58  C   -0.050566
    59  C   -0.310082
    60  C   -0.191427
    61  C   -0.175203
    62  C   -0.149548
    63  C   -0.045347
    64  C   -0.323943
    65  C   -0.279405
    66  H    0.082473
    67  H    0.120515
    68  H    0.087068
    69  H    0.122495
    70  H    0.101637
    71  H    0.111065
    72  H    0.109442
    73  H    0.128062
    74  H    0.114216
    75  H    0.125854
    76  H    0.122613
    77  H    0.132081
    78  H    0.133285
    79  H    0.160280
    80  H    0.108025
    81  H    0.086250
    82  H    0.095426
    83  H    0.103027
    84  H    0.120188
    85  H    0.103766
    86  H    0.124386
    87  H    0.118855
    88  H    0.156659
    89  H    0.131983
    90  H    0.155075
    91  H    0.107576
    92  H    0.143572
    93  H    0.066121
    94  H    0.141060
    95  H    0.122672
    96  H    0.093397
    97  H    0.107484
    98  H    0.092974
    99  H    0.106337
   100  H    0.084995
   101  H    0.049426
   102  H    0.097139
   103  H    0.093164
   104  H    0.111134
   105  H    0.104610
   106  H    0.078148
   107  H    0.067085
   108  H    0.097316
   109  H    0.100139
   110  H    0.080304
   111  H    0.092898
   112  H    0.083253
   113  H    0.081454
   114  H    0.086714
   115  H    0.093395
   116  H    0.101534
   117  H    0.088965
   118  H    0.100123
   119  H    0.066933
   120  H    0.101590
   121  H    0.084499
   122  H    0.047851
   123  H    0.098883
   124  H    0.087726
   125  H    0.083433
   126  H    0.099746
   127  H    0.058346
   128  H    0.113965
   129  H    0.112099
   130  H    0.136097
   131  H    0.135914
   132  H    0.150502
   133  O   -0.393789
   134  H    0.004581
 Sum of Mulliken charges =  -0.00000

 Dipole moment (field-independent basis, Debye):
    X=              2.2848    Y=             -4.4706    Z=             -1.5304  Tot=              5.2487
 Quadrupole moment (field-independent basis, Debye-Ang):
   XX=           -385.2791   YY=           -440.7193   ZZ=           -396.9571
   XY=              6.2466   XZ=             14.4767   YZ=            -33.3314

 Normal termination of Gaussian 16 at Mon Oct  7 20:05:37 2019.
