 Gaussian 16, Revision A.03,
 Gaussian 16:  ES64L-G16RevA.03 25-Dec-2016

 ----------------------------------------------------------------------
 # td=(NStates=1) iop(3/107=0140000000,3/108=0140000000) iop(3/107=0140
 000000,3/108=0140000000) CAM-B3LYP/6-31G(d,p)
 ----------------------------------------------------------------------

 --
 TD
 --
 Symbolic Z-matrix:
 Charge =  0 Multiplicity = 1

                         Standard orientation:
 ---------------------------------------------------------------------
 Center     Atomic      Atomic             Coordinates (Angstroms)
 Number     Number       Type             X           Y           Z
 ---------------------------------------------------------------------
      1         12           0       -5.677817    1.274164    0.185488
      2          6           0       -5.185021   -2.232968   -0.287112
      3          6           0       -3.366769    1.142012    2.705245
      4          6           0       -6.225227    4.564071    0.685499
      5          6           0       -8.017610    1.232769   -2.216530
      6          7           0       -4.404923   -0.340109    1.073576
      7          6           0       -4.345094   -1.568432    0.669580
      8          6           0       -3.208459   -2.364746    1.520437
      9          6           0       -2.903649   -1.294806    2.569804
     10          6           0       -3.558399   -0.057204    2.163154
     11          6           0       -3.290149   -1.870588    3.968847
     12          6           0       -2.048508   -2.773331    0.571278
     13          6           0       -0.977466   -3.705838    1.282231
     14          6           0        0.276656   -3.914112    0.601731
     15          8           0        0.508991   -3.534810   -0.576475
     16          8           0        1.105373   -4.771273    1.253033
     17          7           0       -4.923517    2.592459    1.559148
     18          6           0       -4.039337    2.337729    2.462658
     19          6           0       -3.699563    3.551285    3.158838
     20          6           0       -4.515074    4.542318    2.581377
     21          6           0       -5.320711    3.903899    1.518004
     22          6           0       -2.754320    3.704379    4.295213
     23          6           0       -4.613345    5.984145    2.983713
     24          8           0       -4.053637    6.593307    3.894455
     25          7           0       -6.952462    2.700507   -0.768102
     26          6           0       -6.940947    3.980220   -0.336499
     27          6           0       -7.932508    4.648089   -1.098607
     28          6           0       -8.487618    3.724739   -1.959489
     29          6           0       -7.821434    2.442626   -1.718500
     30          6           0       -8.282288    6.140442   -1.144876
     31          6           0       -9.465135    3.931382   -3.065895
     32          6           0       -8.789684    4.277989   -4.483203
     33          7           0       -6.398934   -0.118044   -1.190578
     34          6           0       -7.464431   -0.038595   -2.028944
     35          6           0       -7.528375   -1.193038   -2.714405
     36          6           0       -6.710558   -2.140632   -2.125105
     37          6           0       -6.017820   -1.402373   -1.079249
     38          6           0       -8.459982   -1.474625   -3.869711
     39          6           0       -6.204530   -3.543539   -2.119825
     40          8           0       -6.580409   -4.463647   -2.809667
     41          6           0       -5.109211   -3.695989   -0.923424
     42          6           0       -5.402043   -4.620873    0.066339
     43          8           0       -5.772510   -4.580429    1.220909
     44          8           0       -5.116438   -5.888962   -0.374983
     45          6           0       -5.463693   -7.133342    0.486464
     46          6           0        2.334479   -5.097690    0.514831
     47          6           0        3.425160   -4.042091    0.933177
     48          6           0        4.054919   -3.251239    0.088978
     49          6           0        3.670712   -3.174865   -1.350734
     50          6           0        5.087367   -2.313500    0.582572
     51          6           0        6.546781   -2.720222    0.101200
     52          6           0        7.654416   -1.879263    0.686637
     53          6           0        9.008487   -2.070638    0.060495
     54          6           0        9.608799   -3.458994    0.219825
     55          6           0       10.084930   -0.989009    0.535929
     56          6           0       11.435790   -0.946865   -0.225619
     57          6           0       12.268475    0.283136    0.137344
     58          6           0       13.684614    0.403202   -0.536615
     59          6           0       14.491597   -0.776508   -0.180771
     60          6           0       14.327615    1.844251   -0.180403
     61          6           0       15.389797    2.261171   -1.073749
     62          6           0       16.136192    3.562337   -0.695019
     63          6           0       17.410848    3.927967   -1.407893
     64          6           0       17.189949    4.258201   -2.931567
     65          6           0       18.073611    5.182946   -0.775338
     66          1           0       -2.795879    1.046714    3.720902
     67          1           0       -6.493349    5.637345    0.846727
     68          1           0       -8.923881    1.009919   -2.875894
     69          1           0       -3.658105   -3.305526    1.870812
     70          1           0       -1.812780   -0.987372    2.511675
     71          1           0       -2.573338   -2.911435    4.095426
     72          1           0       -3.188974   -1.070732    4.622556
     73          1           0       -4.284287   -1.935054    3.801695
     74          1           0       -2.488277   -3.369159   -0.234678
     75          1           0       -1.573028   -1.782995    0.437646
     76          1           0       -0.420793   -3.225055    2.286350
     77          1           0       -1.276999   -4.602439    1.839787
     78          1           0       -1.952279    3.048208    4.060837
     79          1           0       -2.597632    4.578929    4.662148
     80          1           0       -3.243181    3.123252    4.978642
     81          1           0       -5.416744    6.357129    2.515564
     82          1           0       -9.980169    3.057042   -3.155554
     83          1           0      -10.114577    4.821700   -2.872093
     84          1           0       -9.657013    4.414648   -5.122930
     85          1           0       -8.296591    5.227039   -4.390251
     86          1           0       -8.125939    3.374325   -4.639779
     87          1           0       -8.330956   -0.754467   -4.575669
     88          1           0       -8.442673   -2.447912   -4.296928
     89          1           0       -9.461453   -1.160052   -3.670710
     90          1           0       -4.115574   -3.905756   -1.577787
     91          1           0        2.430979   -6.243175    0.813030
     92          1           0        2.242936   -5.033046   -0.607019
     93          1           0        3.413554   -3.852974    1.921371
     94          1           0        2.624344   -3.399536   -1.450773
     95          1           0        3.890871   -2.123082   -1.719689
     96          1           0        4.361959   -3.542166   -2.118288
     97          1           0        5.097906   -1.202498    0.237348
     98          1           0        5.187247   -2.237993    1.714851
     99          1           0        6.814943   -3.793996    0.213229
    100          1           0        6.592912   -2.678963   -1.077560
    101          1           0        7.464554   -0.812682    0.429542
    102          1           0        7.608008   -1.937204    1.913301
    103          1           0        8.848518   -1.910616   -0.986756
    104          1           0        8.996352   -4.374475   -0.276305
    105          1           0       10.672972   -3.435162   -0.252335
    106          1           0        9.737292   -3.687946    1.324035
    107          1           0        9.559924    0.106347    0.447728
    108          1           0       10.159660   -1.034810    1.712578
    109          1           0       12.011549   -1.819955   -0.359685
    110          1           0       10.850408   -0.680873   -1.199250
    111          1           0       11.564247    1.299519   -0.074669
    112          1           0       12.619420    0.486477    1.118957
    113          1           0       13.420957    0.271804   -1.711191
    114          1           0       14.594539   -0.929038    1.012318
    115          1           0       14.003396   -1.587344   -0.600083
    116          1           0       15.558080   -0.834229   -0.600053
    117          1           0       13.459241    2.499178   -0.184249
    118          1           0       14.756084    1.719851    0.800925
    119          1           0       16.084917    1.335493   -1.242151
    120          1           0       15.039278    2.624633   -2.106988
    121          1           0       15.513372    4.345831   -0.927561
    122          1           0       16.477330    3.603852    0.408642
    123          1           0       18.043366    3.120218   -1.136459
    124          1           0       16.486326    5.221191   -3.104110
    125          1           0       18.093431    4.416542   -3.517864
    126          1           0       16.667192    3.418434   -3.544641
    127          1           0       18.142510    4.796871    0.440525
    128          1           0       19.074366    5.518072   -1.208700
    129          1           0       17.410995    6.099715   -0.611082
    130          1           0       -5.139610   -7.901930   -0.022317
    131          1           0       -6.517373   -7.130292    0.633771
    132          1           0       -5.064807   -7.045988    1.386485
    133          8           0       -7.812940    6.908897   -0.322622
    134          1           0       -9.037858    6.356983   -1.682625
 ---------------------------------------------------------------------

 SCF Done:  E(RCAM-B3LYP) =  -3043.42628293     A.U. after   16 cycles

 Excitation energies and oscillator strengths:

 Excited State   1:      Singlet-A      2.0515 eV  604.34 nm  f=0.2403  <S**2>=0.000
     243 -> 246       -0.22614
     244 -> 245        0.66078
 This state for optimization and/or second-order correction.
 Total Energy, E(TD-HF/TD-DFT) =  -3043.35088993
 Copying the excited state density for this state as the 1-particle RhoCI density.

 The electronic state is 1-A.
 Alpha  occ. eigenvalues --  -46.82899 -19.22306 -19.19896 -19.18286 -19.17961
 Alpha  occ. eigenvalues --  -19.16704 -19.16299 -19.16202 -14.38976 -14.37418
 Alpha  occ. eigenvalues --  -14.36574 -14.35846 -10.34784 -10.34182 -10.32832
 Alpha  occ. eigenvalues --  -10.30457 -10.28943 -10.28507 -10.28012 -10.27166
 Alpha  occ. eigenvalues --  -10.27155 -10.26877 -10.26556 -10.25867 -10.25836
 Alpha  occ. eigenvalues --  -10.25709 -10.25451 -10.25421 -10.25187 -10.24934
 Alpha  occ. eigenvalues --  -10.24487 -10.24442 -10.24440 -10.24292 -10.24247
 Alpha  occ. eigenvalues --  -10.23967 -10.23878 -10.23761 -10.23553 -10.23248
 Alpha  occ. eigenvalues --  -10.23108 -10.22926 -10.22789 -10.22773 -10.22669
 Alpha  occ. eigenvalues --  -10.22655 -10.22596 -10.22556 -10.22541 -10.22435
 Alpha  occ. eigenvalues --  -10.22205 -10.22193 -10.22053 -10.22018 -10.21987
 Alpha  occ. eigenvalues --  -10.21887 -10.21860 -10.21748 -10.21405 -10.21022
 Alpha  occ. eigenvalues --  -10.21019 -10.20520 -10.20464 -10.20303 -10.20064
 Alpha  occ. eigenvalues --  -10.19779  -3.11155  -1.86132  -1.85631  -1.85519
 Alpha  occ. eigenvalues --   -1.12126  -1.11490  -1.07944  -1.07858  -1.05266
 Alpha  occ. eigenvalues --   -1.02235  -1.02224  -1.01625  -1.01410  -1.01080
 Alpha  occ. eigenvalues --   -1.00242  -0.88420  -0.86306  -0.86122  -0.85844
 Alpha  occ. eigenvalues --   -0.85380  -0.85010  -0.84608  -0.84434  -0.83939
 Alpha  occ. eigenvalues --   -0.83685  -0.83290  -0.82490  -0.81163  -0.79893
 Alpha  occ. eigenvalues --   -0.79420  -0.78292  -0.78034  -0.77637  -0.76653
 Alpha  occ. eigenvalues --   -0.75800  -0.75440  -0.74696  -0.73933  -0.73458
 Alpha  occ. eigenvalues --   -0.71251  -0.70954  -0.70728  -0.70585  -0.69524
 Alpha  occ. eigenvalues --   -0.69319  -0.68935  -0.68737  -0.67994  -0.67167
 Alpha  occ. eigenvalues --   -0.66705  -0.65643  -0.64651  -0.62863  -0.62031
 Alpha  occ. eigenvalues --   -0.61925  -0.61639  -0.59950  -0.59498  -0.58347
 Alpha  occ. eigenvalues --   -0.58078  -0.58066  -0.57907  -0.57864  -0.56882
 Alpha  occ. eigenvalues --   -0.56429  -0.56361  -0.56234  -0.55715  -0.55114
 Alpha  occ. eigenvalues --   -0.54679  -0.54177  -0.53003  -0.52921  -0.52144
 Alpha  occ. eigenvalues --   -0.52051  -0.51450  -0.50783  -0.50760  -0.50608
 Alpha  occ. eigenvalues --   -0.50349  -0.50027  -0.49831  -0.49342  -0.49226
 Alpha  occ. eigenvalues --   -0.48933  -0.48856  -0.48816  -0.48414  -0.48286
 Alpha  occ. eigenvalues --   -0.48240  -0.48105  -0.47883  -0.47758  -0.47077
 Alpha  occ. eigenvalues --   -0.46960  -0.46642  -0.46570  -0.46272  -0.46211
 Alpha  occ. eigenvalues --   -0.45987  -0.45597  -0.45552  -0.45372  -0.44884
 Alpha  occ. eigenvalues --   -0.44671  -0.44476  -0.44292  -0.44077  -0.44048
 Alpha  occ. eigenvalues --   -0.43858  -0.43609  -0.43447  -0.43177  -0.42820
 Alpha  occ. eigenvalues --   -0.42707  -0.42654  -0.42499  -0.42468  -0.42074
 Alpha  occ. eigenvalues --   -0.41906  -0.41867  -0.41580  -0.41207  -0.40978
 Alpha  occ. eigenvalues --   -0.40782  -0.40645  -0.40258  -0.39929  -0.39778
 Alpha  occ. eigenvalues --   -0.39711  -0.39612  -0.39412  -0.39296  -0.38971
 Alpha  occ. eigenvalues --   -0.38944  -0.38861  -0.38593  -0.38445  -0.38173
 Alpha  occ. eigenvalues --   -0.37962  -0.37818  -0.37584  -0.37548  -0.37393
 Alpha  occ. eigenvalues --   -0.36723  -0.36378  -0.36194  -0.35983  -0.35650
 Alpha  occ. eigenvalues --   -0.35365  -0.34999  -0.34391  -0.34271  -0.34257
 Alpha  occ. eigenvalues --   -0.33969  -0.33517  -0.33405  -0.33226  -0.32992
 Alpha  occ. eigenvalues --   -0.32794  -0.32164  -0.32103  -0.31950  -0.31947
 Alpha  occ. eigenvalues --   -0.31180  -0.30763  -0.30479  -0.29736  -0.29582
 Alpha  occ. eigenvalues --   -0.28975  -0.28424  -0.28238  -0.27742  -0.27603
 Alpha  occ. eigenvalues --   -0.27221  -0.27033  -0.23756  -0.21752
 Alpha virt. eigenvalues --   -0.08915  -0.06232  -0.01526  -0.01144   0.00010
 Alpha virt. eigenvalues --    0.02095   0.02906   0.03310   0.03437   0.03859
 Alpha virt. eigenvalues --    0.04921   0.05418   0.07351   0.08785   0.08870

 Mulliken charges:
               1
     1  Mg   0.821973
     2  C    0.026086
     3  C   -0.179338
     4  C   -0.157736
     5  C   -0.207304
     6  N   -0.625555
     7  C    0.313972
     8  C   -0.165186
     9  C   -0.182094
    10  C    0.330701
    11  C   -0.275778
    12  C   -0.141120
    13  C   -0.277051
    14  C    0.622956
    15  O   -0.501429
    16  O   -0.473613
    17  N   -0.747358
    18  C    0.359884
    19  C   -0.002164
    20  C   -0.091346
    21  C    0.319013
    22  C   -0.340500
    23  C    0.282127
    24  O   -0.435446
    25  N   -0.734954
    26  C    0.320777
    27  C   -0.080135
    28  C    0.009790
    29  C    0.378298
    30  C    0.304178
    31  C   -0.261562
    32  C   -0.303752
    33  N   -0.740384
    34  C    0.289233
    35  C    0.018612
    36  C    0.011648
    37  C    0.315287
    38  C   -0.381260
    39  C    0.350103
    40  O   -0.426939
    41  C   -0.325780
    42  C    0.673299
    43  O   -0.484636
    44  O   -0.509902
    45  C   -0.074715
    46  C   -0.013978
    47  C   -0.133503
    48  C    0.190121
    49  C   -0.400966
    50  C   -0.237170
    51  C   -0.178058
    52  C   -0.148095
    53  C   -0.050454
    54  C   -0.296578
    55  C   -0.177049
    56  C   -0.179241
    57  C   -0.151727
    58  C   -0.072376
    59  C   -0.293867
    60  C   -0.157480
    61  C   -0.165787
    62  C   -0.162310
    63  C   -0.043160
    64  C   -0.315343
    65  C   -0.289792
    66  H    0.083134
    67  H    0.156063
    68  H    0.074801
    69  H    0.125542
    70  H    0.102939
    71  H    0.097224
    72  H    0.107847
    73  H    0.139812
    74  H    0.122456
    75  H    0.121747
    76  H    0.106793
    77  H    0.151935
    78  H    0.120838
    79  H    0.145733
    80  H    0.137378
    81  H    0.072961
    82  H    0.116992
    83  H    0.101715
    84  H    0.118753
    85  H    0.118478
    86  H    0.113605
    87  H    0.128889
    88  H    0.146717
    89  H    0.123887
    90  H    0.178471
    91  H    0.104821
    92  H    0.135077
    93  H    0.082824
    94  H    0.163178
    95  H    0.100299
    96  H    0.114531
    97  H    0.093999
    98  H    0.092416
    99  H    0.100790
   100  H    0.070779
   101  H    0.086591
   102  H    0.064379
   103  H    0.089782
   104  H    0.083358
   105  H    0.089001
   106  H    0.100360
   107  H    0.066973
   108  H    0.072983
   109  H    0.109933
   110  H    0.099567
   111  H    0.053205
   112  H    0.101045
   113  H    0.056505
   114  H    0.075453
   115  H    0.115055
   116  H    0.096004
   117  H    0.095380
   118  H    0.095585
   119  H    0.072760
   120  H    0.086196
   121  H    0.099025
   122  H    0.064128
   123  H    0.100699
   124  H    0.084582
   125  H    0.108169
   126  H    0.089512
   127  H    0.051304
   128  H    0.103812
   129  H    0.100579
   130  H    0.134486
   131  H    0.137239
   132  H    0.139036
   133  O   -0.414574
   134  H    0.074380
 Sum of Mulliken charges =  -0.00000

 Dipole moment (field-independent basis, Debye):
    X=             -0.0701    Y=             -3.4106    Z=             -1.4483  Tot=              3.7060
 Quadrupole moment (field-independent basis, Debye-Ang):
   XX=           -367.9530   YY=           -435.9429   ZZ=           -397.4021
   XY=             -2.6061   XZ=             18.5309   YZ=            -40.1127

 Normal termination of Gaussian 16 at Wed Oct  9 18:36:59 2019.
