 Gaussian 16, Revision A.03,
 Gaussian 16:  ES64L-G16RevA.03 25-Dec-2016

 ----------------------------------------------------------------------
 # td=(NStates=1) iop(3/107=0140000000,3/108=0140000000) iop(3/107=0140
 000000,3/108=0140000000) CAM-B3LYP/6-31G(d,p)
 ----------------------------------------------------------------------

 --
 TD
 --
 Symbolic Z-matrix:
 Charge =  0 Multiplicity = 1

                         Standard orientation:
 ---------------------------------------------------------------------
 Center     Atomic      Atomic             Coordinates (Angstroms)
 Number     Number       Type             X           Y           Z
 ---------------------------------------------------------------------
      1         12           0       -5.584602    1.241428    0.320132
      2          6           0       -5.022373   -2.219123   -0.298908
      3          6           0       -3.329721    1.159261    2.717776
      4          6           0       -5.968603    4.601387    0.576478
      5          6           0       -7.988879    1.193895   -2.307977
      6          7           0       -4.451090   -0.333640    1.109095
      7          6           0       -4.238797   -1.646349    0.690869
      8          6           0       -3.235849   -2.399237    1.523090
      9          6           0       -2.955078   -1.425153    2.683029
     10          6           0       -3.540532   -0.075570    2.204987
     11          6           0       -3.457417   -1.906838    4.047928
     12          6           0       -1.900237   -2.613303    0.679634
     13          6           0       -0.919704   -3.527436    1.429493
     14          6           0        0.304546   -3.795395    0.612361
     15          8           0        0.552280   -3.500519   -0.578521
     16          8           0        1.078617   -4.802707    1.066812
     17          7           0       -4.845526    2.584668    1.409942
     18          6           0       -3.905949    2.375981    2.381429
     19          6           0       -3.647011    3.608013    3.190277
     20          6           0       -4.358281    4.595733    2.498149
     21          6           0       -5.070964    3.983474    1.439750
     22          6           0       -2.785582    3.680736    4.441118
     23          6           0       -4.568226    6.084391    2.930661
     24          8           0       -3.806719    6.618434    3.742573
     25          7           0       -6.755401    2.701252   -0.746355
     26          6           0       -6.797390    4.035370   -0.318295
     27          6           0       -7.845217    4.707946   -1.204297
     28          6           0       -8.410637    3.693961   -2.048590
     29          6           0       -7.660475    2.472574   -1.749918
     30          6           0       -8.309601    6.029786   -1.144432
     31          6           0       -9.446821    3.855354   -3.161233
     32          6           0       -8.883672    4.240129   -4.662132
     33          7           0       -6.335876   -0.086630   -1.054295
     34          6           0       -7.312580    0.008654   -2.040148
     35          6           0       -7.579998   -1.301176   -2.584767
     36          6           0       -6.680648   -2.207856   -1.956504
     37          6           0       -5.970142   -1.421458   -0.989622
     38          6           0       -8.630801   -1.558144   -3.636732
     39          6           0       -6.231084   -3.548344   -1.969901
     40          8           0       -6.637064   -4.478496   -2.675475
     41          6           0       -5.094594   -3.583744   -0.862917
     42          6           0       -5.338037   -4.680521    0.169784
     43          8           0       -5.804146   -4.559387    1.329224
     44          8           0       -5.090419   -5.816772   -0.332912
     45          6           0       -5.535866   -6.957604    0.496948
     46          6           0        2.404714   -5.093607    0.425123
     47          6           0        3.443346   -4.235474    0.849041
     48          6           0        4.030490   -3.331113    0.010047
     49          6           0        3.683431   -3.111593   -1.467883
     50          6           0        5.210565   -2.391580    0.493316
     51          6           0        6.552663   -2.739705   -0.113308
     52          6           0        7.625367   -1.961377    0.460822
     53          6           0        8.955735   -2.071884   -0.171536
     54          6           0        9.514658   -3.471218   -0.038370
     55          6           0        9.883585   -0.951775    0.335090
     56          6           0       11.305678   -0.867710   -0.377039
     57          6           0       12.210275    0.152924    0.240270
     58          6           0       13.545485    0.397337   -0.505942
     59          6           0       14.485171   -0.737692   -0.296516
     60          6           0       14.124681    1.709498   -0.095526
     61          6           0       15.447627    2.203672   -0.894793
     62          6           0       15.848250    3.623138   -0.545591
     63          6           0       17.148605    4.092036   -1.237892
     64          6           0       17.050087    4.104329   -2.778179
     65          6           0       17.594731    5.330044   -0.709488
     66          1           0       -2.520795    1.119473    3.591931
     67          1           0       -6.166078    5.661971    0.684603
     68          1           0       -8.786053    1.318480   -3.091528
     69          1           0       -3.532620   -3.288077    2.080660
     70          1           0       -1.899975   -1.226451    2.731099
     71          1           0       -3.077611   -2.886505    4.247583
     72          1           0       -3.367055   -1.334808    4.950409
     73          1           0       -4.489382   -1.955106    3.972582
     74          1           0       -2.296357   -3.219075   -0.163530
     75          1           0       -1.424282   -1.636950    0.252526
     76          1           0       -0.587261   -3.231065    2.343456
     77          1           0       -1.379868   -4.472305    1.654509
     78          1           0       -1.708388    3.431891    4.238160
     79          1           0       -2.888237    4.792410    4.646045
     80          1           0       -3.293300    3.229017    5.438978
     81          1           0       -5.412433    6.519488    2.516742
     82          1           0       -9.909387    2.918985   -3.054069
     83          1           0      -10.228679    4.674195   -2.868614
     84          1           0       -9.748393    4.516539   -5.275174
     85          1           0       -8.173255    5.188102   -4.673206
     86          1           0       -8.208275    3.382856   -5.122395
     87          1           0       -8.550469   -0.848586   -4.497818
     88          1           0       -8.597703   -2.536335   -3.887630
     89          1           0       -9.731675   -1.511795   -3.105074
     90          1           0       -4.039863   -3.744133   -1.394919
     91          1           0        2.705222   -6.119828    0.878822
     92          1           0        2.254410   -5.234899   -0.669533
     93          1           0        3.858165   -4.326996    1.850620
     94          1           0        2.697705   -3.250211   -1.804714
     95          1           0        4.031474   -1.985304   -1.740963
     96          1           0        4.260116   -3.927492   -2.167783
     97          1           0        4.939394   -1.291377    0.622010
     98          1           0        5.251386   -2.480578    1.619711
     99          1           0        6.863769   -3.793706   -0.211675
    100          1           0        6.417989   -2.459325   -1.132553
    101          1           0        7.422204   -0.819529    0.708911
    102          1           0        7.643569   -2.302486    1.455204
    103          1           0        8.744760   -1.897419   -1.352725
    104          1           0        8.782078   -4.178646   -0.451241
    105          1           0       10.364364   -3.475675   -0.451585
    106          1           0        9.629698   -3.494555    1.138975
    107          1           0        9.508770    0.042620    0.264830
    108          1           0        9.994829   -1.078647    1.388945
    109          1           0       11.838244   -1.904735   -0.248235
    110          1           0       11.113044   -0.412096   -1.456884
    111          1           0       11.852310    1.205890    0.502026
    112          1           0       12.439666   -0.088218    1.347970
    113          1           0       13.472776    0.354972   -1.734464
    114          1           0       14.467418   -0.871173    0.861256
    115          1           0       14.002775   -1.516074   -0.462543
    116          1           0       15.601064   -0.565784   -0.771053
    117          1           0       13.417559    2.460963   -0.138403
    118          1           0       14.460364    1.748255    1.121404
    119          1           0       16.274755    1.458677   -0.607520
    120          1           0       15.396561    1.845711   -1.950177
    121          1           0       15.025899    4.265260   -0.901585
    122          1           0       16.177080    3.733318    0.658860
    123          1           0       17.973894    3.482872   -1.023733
    124          1           0       16.266669    4.938639   -3.012941
    125          1           0       18.005704    4.344899   -3.149224
    126          1           0       16.864515    3.045658   -3.150487
    127          1           0       17.525146    5.559624    0.362330
    128          1           0       18.440290    5.408393   -1.436514
    129          1           0       17.021227    6.127434   -1.376794
    130          1           0       -4.842645   -7.889531    0.227832
    131          1           0       -6.636026   -7.000497    0.295055
    132          1           0       -5.080590   -6.913619    1.637852
    133          8           0       -7.802743    6.837735   -0.406349
    134          1           0       -9.111684    6.404114   -1.941942
 ---------------------------------------------------------------------

 SCF Done:  E(RCAM-B3LYP) =  -3043.45914172     A.U. after   16 cycles

 Excitation energies and oscillator strengths:

 Excited State   1:      Singlet-A      1.9803 eV  626.10 nm  f=0.1923  <S**2>=0.000
     243 -> 246        0.25772
     244 -> 245        0.64927
 This state for optimization and/or second-order correction.
 Total Energy, E(TD-HF/TD-DFT) =  -3043.38636825
 Copying the excited state density for this state as the 1-particle RhoCI density.

 The electronic state is 1-A.
 Alpha  occ. eigenvalues --  -46.80253 -19.23907 -19.20574 -19.18447 -19.17010
 Alpha  occ. eigenvalues --  -19.16249 -19.15834 -19.15639 -14.38819 -14.37079
 Alpha  occ. eigenvalues --  -14.36830 -14.36488 -10.34916 -10.34576 -10.31436
 Alpha  occ. eigenvalues --  -10.31371 -10.30428 -10.29649 -10.27726 -10.27618
 Alpha  occ. eigenvalues --  -10.27424 -10.26921 -10.26448 -10.26418 -10.26379
 Alpha  occ. eigenvalues --  -10.26209 -10.25970 -10.25898 -10.25536 -10.25134
 Alpha  occ. eigenvalues --  -10.25039 -10.24980 -10.24911 -10.24767 -10.24727
 Alpha  occ. eigenvalues --  -10.24204 -10.24142 -10.23909 -10.23882 -10.23649
 Alpha  occ. eigenvalues --  -10.23519 -10.23447 -10.23389 -10.23107 -10.23095
 Alpha  occ. eigenvalues --  -10.23048 -10.22962 -10.22659 -10.22556 -10.22102
 Alpha  occ. eigenvalues --  -10.22073 -10.22028 -10.22012 -10.21620 -10.21376
 Alpha  occ. eigenvalues --  -10.21176 -10.21171 -10.21097 -10.21029 -10.20686
 Alpha  occ. eigenvalues --  -10.20623 -10.20170 -10.20041 -10.19919 -10.19868
 Alpha  occ. eigenvalues --  -10.19535  -3.09106  -1.84013  -1.83578  -1.83551
 Alpha  occ. eigenvalues --   -1.16104  -1.11423  -1.07025  -1.06724  -1.05830
 Alpha  occ. eigenvalues --   -1.02333  -1.00788  -0.99464  -0.98865  -0.97701
 Alpha  occ. eigenvalues --   -0.96984  -0.89046  -0.86999  -0.86110  -0.85808
 Alpha  occ. eigenvalues --   -0.85262  -0.85050  -0.84479  -0.83719  -0.83029
 Alpha  occ. eigenvalues --   -0.82606  -0.82556  -0.82103  -0.80953  -0.80161
 Alpha  occ. eigenvalues --   -0.78655  -0.78362  -0.77564  -0.76797  -0.76576
 Alpha  occ. eigenvalues --   -0.75781  -0.74775  -0.74718  -0.72753  -0.71781
 Alpha  occ. eigenvalues --   -0.71666  -0.70995  -0.70803  -0.70146  -0.69703
 Alpha  occ. eigenvalues --   -0.69252  -0.68885  -0.67666  -0.66875  -0.66450
 Alpha  occ. eigenvalues --   -0.65921  -0.64596  -0.63884  -0.62754  -0.62328
 Alpha  occ. eigenvalues --   -0.61620  -0.60435  -0.59969  -0.58972  -0.58536
 Alpha  occ. eigenvalues --   -0.58322  -0.58189  -0.57385  -0.57102  -0.56972
 Alpha  occ. eigenvalues --   -0.55978  -0.55734  -0.55540  -0.54908  -0.54318
 Alpha  occ. eigenvalues --   -0.53925  -0.53672  -0.53209  -0.52490  -0.51909
 Alpha  occ. eigenvalues --   -0.51293  -0.50922  -0.50752  -0.50714  -0.50633
 Alpha  occ. eigenvalues --   -0.50260  -0.50163  -0.49695  -0.49456  -0.49236
 Alpha  occ. eigenvalues --   -0.48837  -0.48473  -0.48426  -0.47915  -0.47788
 Alpha  occ. eigenvalues --   -0.47572  -0.47496  -0.47144  -0.46877  -0.46530
 Alpha  occ. eigenvalues --   -0.46365  -0.46227  -0.46100  -0.45946  -0.45722
 Alpha  occ. eigenvalues --   -0.45168  -0.45008  -0.44860  -0.44822  -0.44671
 Alpha  occ. eigenvalues --   -0.44461  -0.44293  -0.43747  -0.43588  -0.43383
 Alpha  occ. eigenvalues --   -0.43336  -0.43224  -0.42892  -0.42701  -0.42533
 Alpha  occ. eigenvalues --   -0.42517  -0.42367  -0.42158  -0.42092  -0.41788
 Alpha  occ. eigenvalues --   -0.41575  -0.41129  -0.41029  -0.40961  -0.40853
 Alpha  occ. eigenvalues --   -0.40714  -0.40560  -0.40408  -0.40290  -0.40115
 Alpha  occ. eigenvalues --   -0.39842  -0.39653  -0.39427  -0.39322  -0.39142
 Alpha  occ. eigenvalues --   -0.38987  -0.38887  -0.38620  -0.38452  -0.38174
 Alpha  occ. eigenvalues --   -0.37970  -0.37481  -0.37383  -0.37187  -0.37122
 Alpha  occ. eigenvalues --   -0.36964  -0.36253  -0.36181  -0.35903  -0.35483
 Alpha  occ. eigenvalues --   -0.35337  -0.35154  -0.34932  -0.34817  -0.34206
 Alpha  occ. eigenvalues --   -0.34004  -0.33344  -0.33216  -0.33003  -0.32581
 Alpha  occ. eigenvalues --   -0.32535  -0.32179  -0.31777  -0.31537  -0.31478
 Alpha  occ. eigenvalues --   -0.31237  -0.30603  -0.30331  -0.29703  -0.28980
 Alpha  occ. eigenvalues --   -0.28651  -0.28539  -0.27985  -0.27676  -0.27457
 Alpha  occ. eigenvalues --   -0.27254  -0.27202  -0.22962  -0.21648
 Alpha virt. eigenvalues --   -0.08830  -0.06552  -0.01922  -0.01322   0.00409
 Alpha virt. eigenvalues --    0.02111   0.02985   0.03139   0.03886   0.04376
 Alpha virt. eigenvalues --    0.05139   0.05787   0.07963   0.08757   0.09477

 Mulliken charges:
               1
     1  Mg   0.839365
     2  C    0.101595
     3  C   -0.212763
     4  C   -0.174928
     5  C   -0.164816
     6  N   -0.641573
     7  C    0.317901
     8  C   -0.166278
     9  C   -0.131574
    10  C    0.322136
    11  C   -0.326656
    12  C   -0.178350
    13  C   -0.262918
    14  C    0.580330
    15  O   -0.490778
    16  O   -0.479621
    17  N   -0.754870
    18  C    0.329126
    19  C    0.044716
    20  C   -0.055864
    21  C    0.311683
    22  C   -0.398163
    23  C    0.277218
    24  O   -0.409377
    25  N   -0.679097
    26  C    0.294393
    27  C   -0.008516
    28  C    0.005423
    29  C    0.299906
    30  C    0.211325
    31  C   -0.236238
    32  C   -0.306499
    33  N   -0.724770
    34  C    0.304908
    35  C    0.008316
    36  C    0.059458
    37  C    0.296229
    38  C   -0.367850
    39  C    0.345852
    40  O   -0.471949
    41  C   -0.353737
    42  C    0.608855
    43  O   -0.516473
    44  O   -0.391375
    45  C   -0.087728
    46  C    0.018710
    47  C   -0.119750
    48  C    0.134818
    49  C   -0.363233
    50  C   -0.253637
    51  C   -0.159988
    52  C   -0.152814
    53  C   -0.060140
    54  C   -0.277995
    55  C   -0.183568
    56  C   -0.172609
    57  C   -0.191444
    58  C   -0.041777
    59  C   -0.258066
    60  C   -0.152187
    61  C   -0.190512
    62  C   -0.141446
    63  C   -0.056753
    64  C   -0.318612
    65  C   -0.283086
    66  H    0.087691
    67  H    0.126652
    68  H    0.096838
    69  H    0.128250
    70  H    0.104604
    71  H    0.111907
    72  H    0.116346
    73  H    0.137138
    74  H    0.115836
    75  H    0.128460
    76  H    0.142860
    77  H    0.152739
    78  H    0.130354
    79  H    0.158961
    80  H    0.113874
    81  H    0.113447
    82  H    0.119699
    83  H    0.107676
    84  H    0.124911
    85  H    0.111625
    86  H    0.106512
    87  H    0.126577
    88  H    0.155098
    89  H    0.107210
    90  H    0.156263
    91  H    0.101368
    92  H    0.128505
    93  H    0.089118
    94  H    0.162705
    95  H    0.096292
    96  H    0.092437
    97  H    0.107764
    98  H    0.079555
    99  H    0.099941
   100  H    0.105459
   101  H    0.065940
   102  H    0.092099
   103  H    0.048942
   104  H    0.102478
   105  H    0.112675
   106  H    0.078378
   107  H    0.101565
   108  H    0.090305
   109  H    0.093504
   110  H    0.092496
   111  H    0.083153
   112  H    0.079430
   113  H    0.053932
   114  H    0.068828
   115  H    0.101692
   116  H    0.084770
   117  H    0.096848
   118  H    0.048848
   119  H    0.080876
   120  H    0.091398
   121  H    0.092623
   122  H    0.061121
   123  H    0.094318
   124  H    0.094985
   125  H    0.108712
   126  H    0.103102
   127  H    0.110599
   128  H    0.090778
   129  H    0.062418
   130  H    0.118135
   131  H    0.158547
   132  H    0.128039
   133  O   -0.422958
   134  H    0.044867
 Sum of Mulliken charges =  -0.00000

 Dipole moment (field-independent basis, Debye):
    X=              1.4083    Y=             -4.4494    Z=              0.2155  Tot=              4.6719
 Quadrupole moment (field-independent basis, Debye-Ang):
   XX=           -375.2435   YY=           -433.9533   ZZ=           -391.2498
   XY=              2.0492   XZ=             13.6202   YZ=            -32.1444

 Normal termination of Gaussian 16 at Fri Oct 11 10:30:16 2019.
