 Gaussian 16, Revision A.03,
 Gaussian 16:  ES64L-G16RevA.03 25-Dec-2016

 ----------------------------------------------------------------------
 # td=(NStates=1) iop(3/107=0140000000,3/108=0140000000) iop(3/107=0140
 000000,3/108=0140000000) CAM-B3LYP/6-31G(d,p)
 ----------------------------------------------------------------------

 --
 TD
 --
 Symbolic Z-matrix:
 Charge =  0 Multiplicity = 1

                         Standard orientation:
 ---------------------------------------------------------------------
 Center     Atomic      Atomic             Coordinates (Angstroms)
 Number     Number       Type             X           Y           Z
 ---------------------------------------------------------------------
      1         12           0       -5.672305    1.226023    0.062134
      2          6           0       -4.957205   -2.142626   -0.419192
      3          6           0       -3.383491    1.205776    2.647222
      4          6           0       -6.341040    4.511147    0.713853
      5          6           0       -7.973779    1.177351   -2.389532
      6          7           0       -4.354359   -0.219952    0.986102
      7          6           0       -4.253014   -1.587244    0.631964
      8          6           0       -3.231067   -2.387389    1.448143
      9          6           0       -2.976432   -1.349915    2.616132
     10          6           0       -3.623063    0.020475    2.084524
     11          6           0       -3.581593   -1.821482    3.910534
     12          6           0       -2.035082   -2.672749    0.618984
     13          6           0       -0.935798   -3.416354    1.546210
     14          6           0        0.347921   -3.748929    0.673426
     15          8           0        0.596358   -3.281344   -0.399268
     16          8           0        1.108423   -4.713793    1.299829
     17          7           0       -4.919980    2.598952    1.443563
     18          6           0       -4.052568    2.406874    2.380850
     19          6           0       -3.783632    3.672851    3.098799
     20          6           0       -4.730024    4.661032    2.569648
     21          6           0       -5.444600    3.932881    1.519490
     22          6           0       -2.844424    3.819631    4.260128
     23          6           0       -4.780239    6.041674    2.963935
     24          8           0       -4.190318    6.526209    3.918115
     25          7           0       -7.007682    2.626563   -0.710053
     26          6           0       -7.155134    3.831934   -0.344784
     27          6           0       -8.039671    4.573423   -1.146925
     28          6           0       -8.575909    3.501606   -2.046596
     29          6           0       -7.857970    2.414768   -1.669072
     30          6           0       -8.461268    5.934031   -1.200039
     31          6           0       -9.565426    3.775881   -3.196189
     32          6           0       -8.884852    3.946483   -4.577333
     33          7           0       -6.478300   -0.227665   -1.087062
     34          6           0       -7.466087   -0.160819   -2.050155
     35          6           0       -7.632015   -1.411180   -2.649322
     36          6           0       -6.769112   -2.271723   -2.016782
     37          6           0       -5.987249   -1.457469   -1.048900
     38          6           0       -8.466449   -1.696520   -3.792911
     39          6           0       -6.283976   -3.597975   -2.057915
     40          8           0       -6.592643   -4.627772   -2.658239
     41          6           0       -5.078472   -3.565685   -0.986792
     42          6           0       -5.274540   -4.618608    0.069892
     43          8           0       -5.909720   -4.488868    1.080175
     44          8           0       -4.888982   -5.907426   -0.401814
     45          6           0       -5.158035   -7.045798    0.607002
     46          6           0        2.396190   -4.904475    0.658887
     47          6           0        3.442368   -3.945672    1.162743
     48          6           0        4.094208   -3.141614    0.272708
     49          6           0        3.758958   -3.170460   -1.160522
     50          6           0        5.194065   -2.280469    0.748556
     51          6           0        6.536317   -2.585859    0.055133
     52          6           0        7.758462   -1.780907    0.683571
     53          6           0        9.149882   -1.976887   -0.062791
     54          6           0        9.709325   -3.414873    0.103319
     55          6           0       10.084984   -0.804942    0.430570
     56          6           0       11.427678   -0.915311   -0.341673
     57          6           0       12.307169    0.191527    0.083674
     58          6           0       13.676827    0.399893   -0.517469
     59          6           0       14.666959   -0.777364   -0.150415
     60          6           0       14.233733    1.751237   -0.327450
     61          6           0       15.573777    2.190848   -1.063907
     62          6           0       16.010673    3.587642   -0.719068
     63          6           0       17.454136    3.909363   -1.417819
     64          6           0       17.236712    4.067676   -2.884374
     65          6           0       18.004588    5.227574   -0.796005
     66          1           0       -2.511849    1.248077    3.428764
     67          1           0       -6.663130    5.484168    1.113327
     68          1           0       -8.708787    1.199339   -3.139841
     69          1           0       -3.758165   -3.393475    1.837682
     70          1           0       -1.829720   -1.240087    2.876306
     71          1           0       -3.154638   -2.838116    4.363560
     72          1           0       -3.487819   -1.103726    4.739180
     73          1           0       -4.765229   -1.951834    3.623346
     74          1           0       -2.173291   -3.395935   -0.148276
     75          1           0       -1.427664   -1.836291    0.223636
     76          1           0       -0.405769   -2.770311    2.331925
     77          1           0       -1.026670   -4.382000    2.067658
     78          1           0       -1.585297    3.655891    4.131396
     79          1           0       -3.150914    4.946773    4.704376
     80          1           0       -3.087538    3.138022    5.046894
     81          1           0       -5.343822    6.742288    2.539946
     82          1           0      -10.240564    2.878253   -3.385893
     83          1           0      -10.186589    4.630550   -2.960662
     84          1           0       -9.595227    3.969267   -5.513820
     85          1           0       -8.558576    5.145841   -4.446510
     86          1           0       -7.992758    3.455902   -4.754966
     87          1           0       -8.054278   -1.304002   -4.791127
     88          1           0       -8.239315   -2.708640   -3.897680
     89          1           0       -9.602171   -1.576330   -3.785174
     90          1           0       -4.154031   -3.898935   -1.585498
     91          1           0        2.898412   -6.102413    1.140426
     92          1           0        2.339847   -4.940136   -0.310261
     93          1           0        3.814787   -4.072928    2.170611
     94          1           0        2.572403   -3.245680   -1.170494
     95          1           0        3.910767   -2.164506   -1.551196
     96          1           0        4.431521   -3.790036   -1.678836
     97          1           0        4.953649   -1.243162    0.466406
     98          1           0        5.367105   -2.301208    1.806586
     99          1           0        6.916431   -3.769376    0.061659
    100          1           0        6.745334   -2.107516   -0.978628
    101          1           0        7.508410   -0.676112    0.621255
    102          1           0        7.730971   -2.128728    1.712993
    103          1           0        8.932701   -1.915307   -1.047782
    104          1           0        8.874530   -4.217611   -0.296330
    105          1           0       10.589160   -3.606781   -0.598387
    106          1           0        9.989226   -3.487885    1.256774
    107          1           0        9.500598    0.214284    0.431362
    108          1           0       10.319356   -0.824818    1.479400
    109          1           0       12.228794   -1.783434   -0.227984
    110          1           0       11.192891   -0.656806   -1.330349
    111          1           0       11.914673    1.262925    0.307173
    112          1           0       12.654520   -0.091939    1.079608
    113          1           0       13.753477    0.279513   -1.678876
    114          1           0       15.085920   -0.552013    1.111271
    115          1           0       14.201363   -1.629806   -0.108839
    116          1           0       15.565818   -0.933263   -0.909091
    117          1           0       13.579954    2.409253   -0.707492
    118          1           0       14.435768    2.273655    0.861165
    119          1           0       16.382209    1.393928   -0.890847
    120          1           0       15.301859    2.211540   -2.121905
    121          1           0       15.190177    4.142088   -1.080419
    122          1           0       16.196692    3.744037    0.410814
    123          1           0       18.178624    3.138539   -1.204053
    124          1           0       16.781352    5.072663   -3.006575
    125          1           0       18.385492    4.019095   -3.392732
    126          1           0       16.605727    3.307536   -3.434058
    127          1           0       18.176015    5.123466    0.279296
    128          1           0       19.112040    5.545546   -1.213370
    129          1           0       17.375618    6.084982   -1.139942
    130          1           0       -4.683817   -7.905171    0.110090
    131          1           0       -6.364732   -7.146015    0.697080
    132          1           0       -4.782900   -6.559229    1.611692
    133          8           0       -7.929793    6.784441   -0.401324
    134          1           0       -9.205935    6.431322   -1.984815
 ---------------------------------------------------------------------

 SCF Done:  E(RCAM-B3LYP) =  -3043.39218731     A.U. after   15 cycles

 Excitation energies and oscillator strengths:

 Excited State   1:      Singlet-A      2.2328 eV  555.28 nm  f=0.1084  <S**2>=0.000
     243 -> 245       -0.27631
     243 -> 246        0.28371
     244 -> 245        0.51360
     244 -> 246        0.25855
 This state for optimization and/or second-order correction.
 Total Energy, E(TD-HF/TD-DFT) =  -3043.31013304
 Copying the excited state density for this state as the 1-particle RhoCI density.

 The electronic state is 1-A.
 Alpha  occ. eigenvalues --  -46.83016 -19.22426 -19.20929 -19.18238 -19.17630
 Alpha  occ. eigenvalues --  -19.17365 -19.17091 -19.15868 -14.39180 -14.37812
 Alpha  occ. eigenvalues --  -14.37261 -14.37196 -10.35398 -10.34806 -10.31703
 Alpha  occ. eigenvalues --  -10.30823 -10.29554 -10.29149 -10.28393 -10.28239
 Alpha  occ. eigenvalues --  -10.27964 -10.27513 -10.27028 -10.26943 -10.26718
 Alpha  occ. eigenvalues --  -10.26544 -10.26486 -10.26239 -10.25758 -10.25600
 Alpha  occ. eigenvalues --  -10.25579 -10.25480 -10.25156 -10.24937 -10.24774
 Alpha  occ. eigenvalues --  -10.24692 -10.24618 -10.24226 -10.24165 -10.24074
 Alpha  occ. eigenvalues --  -10.23992 -10.23912 -10.23757 -10.23141 -10.23113
 Alpha  occ. eigenvalues --  -10.23033 -10.22877 -10.22690 -10.22623 -10.22448
 Alpha  occ. eigenvalues --  -10.22390 -10.22348 -10.22148 -10.21913 -10.21730
 Alpha  occ. eigenvalues --  -10.21727 -10.21699 -10.21635 -10.21496 -10.21373
 Alpha  occ. eigenvalues --  -10.21221 -10.20981 -10.20888 -10.20795 -10.20579
 Alpha  occ. eigenvalues --  -10.20222  -3.11441  -1.86394  -1.85913  -1.85833
 Alpha  occ. eigenvalues --   -1.13449  -1.11107  -1.07187  -1.06287  -1.05697
 Alpha  occ. eigenvalues --   -1.05090  -1.02656  -1.02470  -1.01345  -1.00858
 Alpha  occ. eigenvalues --   -0.99093  -0.88834  -0.86313  -0.86154  -0.85974
 Alpha  occ. eigenvalues --   -0.85790  -0.85430  -0.84726  -0.83975  -0.83214
 Alpha  occ. eigenvalues --   -0.82946  -0.82820  -0.81196  -0.80516  -0.79768
 Alpha  occ. eigenvalues --   -0.78863  -0.78376  -0.77879  -0.76644  -0.76472
 Alpha  occ. eigenvalues --   -0.75480  -0.75207  -0.73875  -0.73067  -0.71465
 Alpha  occ. eigenvalues --   -0.71097  -0.70568  -0.69917  -0.69713  -0.69632
 Alpha  occ. eigenvalues --   -0.69017  -0.68573  -0.67750  -0.67418  -0.66624
 Alpha  occ. eigenvalues --   -0.66144  -0.64940  -0.64360  -0.63026  -0.61471
 Alpha  occ. eigenvalues --   -0.61337  -0.60992  -0.60255  -0.59371  -0.59093
 Alpha  occ. eigenvalues --   -0.58902  -0.58829  -0.58629  -0.57224  -0.56997
 Alpha  occ. eigenvalues --   -0.56607  -0.56151  -0.56010  -0.55564  -0.54370
 Alpha  occ. eigenvalues --   -0.53470  -0.53133  -0.52948  -0.52557  -0.52279
 Alpha  occ. eigenvalues --   -0.52067  -0.50678  -0.50464  -0.50343  -0.50072
 Alpha  occ. eigenvalues --   -0.50042  -0.49879  -0.49787  -0.49237  -0.48996
 Alpha  occ. eigenvalues --   -0.48615  -0.48478  -0.48352  -0.48199  -0.48102
 Alpha  occ. eigenvalues --   -0.47683  -0.47518  -0.47387  -0.47109  -0.46927
 Alpha  occ. eigenvalues --   -0.46771  -0.46410  -0.46361  -0.46036  -0.45866
 Alpha  occ. eigenvalues --   -0.45673  -0.45540  -0.45358  -0.45283  -0.44982
 Alpha  occ. eigenvalues --   -0.44739  -0.44420  -0.44111  -0.43956  -0.43483
 Alpha  occ. eigenvalues --   -0.43432  -0.43239  -0.43177  -0.43016  -0.42772
 Alpha  occ. eigenvalues --   -0.42485  -0.42189  -0.42147  -0.41929  -0.41862
 Alpha  occ. eigenvalues --   -0.41473  -0.41376  -0.41222  -0.40849  -0.40810
 Alpha  occ. eigenvalues --   -0.40629  -0.40581  -0.40375  -0.40027  -0.39993
 Alpha  occ. eigenvalues --   -0.39834  -0.39725  -0.39364  -0.39254  -0.38997
 Alpha  occ. eigenvalues --   -0.38895  -0.38860  -0.38361  -0.38263  -0.38062
 Alpha  occ. eigenvalues --   -0.37704  -0.37670  -0.37438  -0.37389  -0.36794
 Alpha  occ. eigenvalues --   -0.36393  -0.36233  -0.35995  -0.35987  -0.35725
 Alpha  occ. eigenvalues --   -0.35375  -0.35251  -0.35009  -0.34696  -0.34530
 Alpha  occ. eigenvalues --   -0.34455  -0.34253  -0.34240  -0.33698  -0.33222
 Alpha  occ. eigenvalues --   -0.32855  -0.32250  -0.32135  -0.31975  -0.31576
 Alpha  occ. eigenvalues --   -0.31082  -0.30861  -0.30730  -0.30472  -0.30295
 Alpha  occ. eigenvalues --   -0.29249  -0.28297  -0.28192  -0.27767  -0.27714
 Alpha  occ. eigenvalues --   -0.27171  -0.26391  -0.23893  -0.22812
 Alpha virt. eigenvalues --   -0.08828  -0.07873  -0.02514  -0.01781   0.00347
 Alpha virt. eigenvalues --    0.02249   0.02699   0.03698   0.04018   0.04323
 Alpha virt. eigenvalues --    0.04512   0.05008   0.07726   0.08429   0.08811

 Mulliken charges:
               1
     1  Mg   0.838977
     2  C    0.102249
     3  C   -0.217949
     4  C   -0.156657
     5  C   -0.148394
     6  N   -0.646774
     7  C    0.283055
     8  C   -0.143898
     9  C   -0.146061
    10  C    0.392622
    11  C   -0.291193
    12  C   -0.163222
    13  C   -0.286713
    14  C    0.584741
    15  O   -0.450402
    16  O   -0.463649
    17  N   -0.709033
    18  C    0.373197
    19  C    0.045221
    20  C   -0.026668
    21  C    0.308599
    22  C   -0.409753
    23  C    0.250723
    24  O   -0.418494
    25  N   -0.654508
    26  C    0.274051
    27  C    0.003656
    28  C    0.023142
    29  C    0.294045
    30  C    0.179900
    31  C   -0.244041
    32  C   -0.297611
    33  N   -0.745557
    34  C    0.253249
    35  C    0.068346
    36  C    0.023295
    37  C    0.314281
    38  C   -0.411142
    39  C    0.354657
    40  O   -0.464771
    41  C   -0.328348
    42  C    0.613817
    43  O   -0.457645
    44  O   -0.495048
    45  C   -0.082138
    46  C    0.024462
    47  C   -0.132446
    48  C    0.146112
    49  C   -0.397400
    50  C   -0.218639
    51  C   -0.181856
    52  C   -0.190461
    53  C   -0.044526
    54  C   -0.297648
    55  C   -0.182401
    56  C   -0.159843
    57  C   -0.200438
    58  C   -0.042666
    59  C   -0.287450
    60  C   -0.146033
    61  C   -0.189598
    62  C   -0.163997
    63  C   -0.047373
    64  C   -0.283681
    65  C   -0.303404
    66  H    0.090830
    67  H    0.136486
    68  H    0.091226
    69  H    0.126833
    70  H    0.089285
    71  H    0.102733
    72  H    0.114325
    73  H    0.098727
    74  H    0.133983
    75  H    0.140170
    76  H    0.130035
    77  H    0.141489
    78  H    0.098713
    79  H    0.157980
    80  H    0.137585
    81  H    0.090454
    82  H    0.104644
    83  H    0.122487
    84  H    0.106579
    85  H    0.074298
    86  H    0.132279
    87  H    0.126041
    88  H    0.156664
    89  H    0.129296
    90  H    0.148379
    91  H    0.050963
    92  H    0.131675
    93  H    0.083162
    94  H    0.152824
    95  H    0.101349
    96  H    0.133163
    97  H    0.105327
    98  H    0.100263
    99  H    0.071188
   100  H    0.087023
   101  H    0.078839
   102  H    0.089596
   103  H    0.094899
   104  H    0.082343
   105  H    0.103654
   106  H    0.093713
   107  H    0.089261
   108  H    0.101409
   109  H    0.093242
   110  H    0.107462
   111  H    0.077344
   112  H    0.098076
   113  H    0.066144
   114  H    0.044263
   115  H    0.114094
   116  H    0.091693
   117  H    0.102601
   118  H    0.031866
   119  H    0.085218
   120  H    0.090375
   121  H    0.095770
   122  H    0.079157
   123  H    0.095985
   124  H    0.100550
   125  H    0.064596
   126  H    0.101622
   127  H    0.107497
   128  H    0.067515
   129  H    0.102156
   130  H    0.142865
   131  H    0.127969
   132  H    0.131183
   133  O   -0.454435
   134  H    0.080147
 Sum of Mulliken charges =  -0.00000

 Dipole moment (field-independent basis, Debye):
    X=              1.4484    Y=             -3.1322    Z=             -1.4385  Tot=              3.7387
 Quadrupole moment (field-independent basis, Debye-Ang):
   XX=           -394.7553   YY=           -451.8106   ZZ=           -394.9404
   XY=              0.1314   XZ=             19.2528   YZ=            -32.1084

 Normal termination of Gaussian 16 at Fri Oct  4 19:30:48 2019.
