 Gaussian 16, Revision A.03,
 Gaussian 16:  ES64L-G16RevA.03 25-Dec-2016

 ----------------------------------------------------------------------
 # td=(NStates=1) iop(3/107=0140000000,3/108=0140000000) iop(3/107=0140
 000000,3/108=0140000000) CAM-B3LYP/6-31G(d,p)
 ----------------------------------------------------------------------

 --
 TD
 --
 Symbolic Z-matrix:
 Charge =  0 Multiplicity = 1

                         Standard orientation:
 ---------------------------------------------------------------------
 Center     Atomic      Atomic             Coordinates (Angstroms)
 Number     Number       Type             X           Y           Z
 ---------------------------------------------------------------------
      1         12           0       -5.565925    1.157135    0.182288
      2          6           0       -4.975295   -2.143574   -0.426727
      3          6           0       -3.381878    1.116825    2.782909
      4          6           0       -6.152637    4.460366    0.722232
      5          6           0       -7.947466    1.244326   -2.278113
      6          7           0       -4.300470   -0.329594    1.036062
      7          6           0       -4.228108   -1.654195    0.649166
      8          6           0       -3.268151   -2.420243    1.382150
      9          6           0       -2.913258   -1.377329    2.650204
     10          6           0       -3.578073   -0.098423    2.095707
     11          6           0       -3.453752   -1.848972    4.045033
     12          6           0       -2.064021   -2.747700    0.420960
     13          6           0       -1.035784   -3.568889    1.277356
     14          6           0        0.236218   -3.821616    0.504174
     15          8           0        0.485779   -3.382358   -0.575104
     16          8           0        1.015242   -4.673465    1.195710
     17          7           0       -4.939078    2.561030    1.449349
     18          6           0       -3.971921    2.382842    2.502464
     19          6           0       -3.778495    3.496803    3.229621
     20          6           0       -4.537974    4.517625    2.736878
     21          6           0       -5.311365    3.906420    1.633143
     22          6           0       -2.909868    3.673359    4.525075
     23          6           0       -4.814205    5.947490    3.087241
     24          8           0       -4.116146    6.473753    3.923136
     25          7           0       -6.806743    2.629233   -0.669750
     26          6           0       -6.864214    3.923008   -0.359061
     27          6           0       -7.835330    4.600425   -1.155820
     28          6           0       -8.381770    3.680943   -2.037493
     29          6           0       -7.674803    2.452269   -1.737489
     30          6           0       -8.279908    5.966271   -1.159962
     31          6           0       -9.351560    3.804461   -3.151595
     32          6           0       -8.618316    4.409006   -4.446701
     33          7           0       -6.419992   -0.104386   -1.021407
     34          6           0       -7.364699    0.037797   -2.102256
     35          6           0       -7.468585   -1.283908   -2.778517
     36          6           0       -6.619106   -2.151578   -2.103216
     37          6           0       -5.926541   -1.382442   -1.173223
     38          6           0       -8.353729   -1.527748   -3.988564
     39          6           0       -6.180273   -3.542060   -2.071828
     40          8           0       -6.599222   -4.535609   -2.684299
     41          6           0       -5.039556   -3.587162   -0.976029
     42          6           0       -5.261363   -4.679945    0.066994
     43          8           0       -5.680244   -4.492741    1.161839
     44          8           0       -5.007360   -5.915407   -0.479781
     45          6           0       -5.243171   -7.018006    0.364604
     46          6           0        2.290686   -4.929724    0.508038
     47          6           0        3.421587   -4.076319    1.009976
     48          6           0        3.956932   -3.179348    0.288995
     49          6           0        3.753919   -3.100570   -1.146780
     50          6           0        5.224364   -2.325118    0.830124
     51          6           0        6.475732   -2.713249    0.119712
     52          6           0        7.725986   -1.851931    0.703324
     53          6           0        9.065603   -2.059391    0.019892
     54          6           0        9.765724   -3.377883    0.219125
     55          6           0        9.960425   -0.950138    0.385639
     56          6           0       11.405441   -0.856798   -0.217068
     57          6           0       12.165491    0.314457    0.294004
     58          6           0       13.510507    0.494556   -0.448933
     59          6           0       14.428776   -0.725350   -0.059347
     60          6           0       14.239430    1.754279   -0.150083
     61          6           0       15.362696    2.157180   -1.145353
     62          6           0       15.863826    3.605031   -0.701924
     63          6           0       17.091055    4.016479   -1.531368
     64          6           0       16.862243    4.140251   -2.991785
     65          6           0       17.720057    5.313746   -0.949727
     66          1           0       -2.614982    1.064281    3.410069
     67          1           0       -6.449207    5.644355    0.933414
     68          1           0       -8.690612    1.102252   -2.922018
     69          1           0       -3.830197   -3.415137    1.720674
     70          1           0       -1.893361   -1.117406    2.664534
     71          1           0       -3.065434   -2.998726    4.534730
     72          1           0       -3.232287   -1.118895    4.599638
     73          1           0       -4.424524   -2.088740    3.782174
     74          1           0       -2.506206   -3.053773   -0.502360
     75          1           0       -1.405138   -1.870033    0.140822
     76          1           0       -0.662403   -3.342950    2.218154
     77          1           0       -1.452000   -4.715340    1.658982
     78          1           0       -1.930208    3.343501    4.170220
     79          1           0       -2.999851    4.729670    4.925530
     80          1           0       -3.112248    2.905243    5.418455
     81          1           0       -5.457992    6.635175    2.650679
     82          1           0       -9.679156    2.604208   -3.415300
     83          1           0      -10.102393    4.421537   -2.893641
     84          1           0       -9.459659    4.727064   -5.090954
     85          1           0       -8.091749    5.220374   -4.246295
     86          1           0       -8.099914    3.633951   -4.974602
     87          1           0       -8.212541   -0.699420   -4.789937
     88          1           0       -8.254270   -2.567458   -4.225722
     89          1           0       -9.376740   -1.109934   -3.922399
     90          1           0       -3.910813   -3.673717   -1.550522
     91          1           0        2.559342   -5.862157    0.580089
     92          1           0        2.224590   -4.908655   -0.660043
     93          1           0        3.619748   -4.050378    2.077278
     94          1           0        2.752434   -3.490143   -1.226080
     95          1           0        3.421841   -1.970260   -1.373493
     96          1           0        4.358951   -3.524258   -1.845735
     97          1           0        5.092934   -1.230170    0.613783
     98          1           0        5.303335   -2.567409    1.839366
     99          1           0        6.522087   -3.737915    0.289596
    100          1           0        6.376806   -2.546408   -0.948631
    101          1           0        7.221376   -0.902956    0.558835
    102          1           0        7.931878   -2.163421    1.744022
    103          1           0        8.808632   -2.137757   -1.073414
    104          1           0        9.092319   -4.357950   -0.079741
    105          1           0       10.815426   -3.671923   -0.181028
    106          1           0        9.988693   -3.558325    1.306674
    107          1           0        9.463855   -0.065753    0.155493
    108          1           0       10.074501   -0.802354    1.347240
    109          1           0       11.985934   -1.715704   -0.122954
    110          1           0       11.161412   -0.995299   -1.244733
    111          1           0       11.569019    1.149549   -0.061522
    112          1           0       12.420412    0.271451    1.333160
    113          1           0       13.644935    0.420186   -1.416614
    114          1           0       14.772739   -0.464861    1.184451
    115          1           0       13.994809   -1.818251    0.003143
    116          1           0       15.490979   -0.775152   -0.468370
    117          1           0       13.487125    2.653460   -0.011879
    118          1           0       14.711187    1.627603    0.971005
    119          1           0       16.123796    1.536382   -1.284299
    120          1           0       14.919718    2.313361   -2.253963
    121          1           0       15.082123    4.390045   -0.964190
    122          1           0       16.136154    3.710558    0.345314
    123          1           0       17.826246    3.211632   -1.568614
    124          1           0       16.003711    4.692653   -3.216554
    125          1           0       17.806495    4.474636   -3.539304
    126          1           0       16.670923    3.035568   -3.138571
    127          1           0       18.117635    5.165816    0.057462
    128          1           0       18.613911    5.637110   -1.553919
    129          1           0       16.959153    6.008149   -1.124541
    130          1           0       -4.897223   -7.917582   -0.289301
    131          1           0       -6.284972   -7.113183    0.466437
    132          1           0       -4.770801   -6.887256    1.193666
    133          8           0       -7.766700    6.872296   -0.459417
    134          1           0       -9.305121    6.226227   -1.712424
 ---------------------------------------------------------------------

 SCF Done:  E(RCAM-B3LYP) =  -3043.37850446     A.U. after   16 cycles

 Excitation energies and oscillator strengths:

 Excited State   1:      Singlet-A      2.0731 eV  598.05 nm  f=0.1357  <S**2>=0.000
     243 -> 246        0.31404
     244 -> 245        0.62304
 This state for optimization and/or second-order correction.
 Total Energy, E(TD-HF/TD-DFT) =  -3043.30231808
 Copying the excited state density for this state as the 1-particle RhoCI density.

 The electronic state is 1-A.
 Alpha  occ. eigenvalues --  -46.80350 -19.22816 -19.22374 -19.18777 -19.17674
 Alpha  occ. eigenvalues --  -19.17444 -19.16697 -19.16691 -14.38701 -14.36594
 Alpha  occ. eigenvalues --  -14.36482 -14.36306 -10.36141 -10.34684 -10.32376
 Alpha  occ. eigenvalues --  -10.30792 -10.29960 -10.27377 -10.27165 -10.27113
 Alpha  occ. eigenvalues --  -10.26623 -10.26446 -10.26239 -10.26225 -10.26107
 Alpha  occ. eigenvalues --  -10.26054 -10.26053 -10.25810 -10.25403 -10.25114
 Alpha  occ. eigenvalues --  -10.24827 -10.24671 -10.24616 -10.24559 -10.24412
 Alpha  occ. eigenvalues --  -10.24145 -10.23999 -10.23874 -10.23741 -10.23679
 Alpha  occ. eigenvalues --  -10.23071 -10.22874 -10.22855 -10.22719 -10.22643
 Alpha  occ. eigenvalues --  -10.22381 -10.22282 -10.22003 -10.21957 -10.21901
 Alpha  occ. eigenvalues --  -10.21667 -10.21627 -10.21536 -10.21458 -10.21177
 Alpha  occ. eigenvalues --  -10.21012 -10.20666 -10.20546 -10.20393 -10.20314
 Alpha  occ. eigenvalues --  -10.20208 -10.19666 -10.19620 -10.19240 -10.19140
 Alpha  occ. eigenvalues --  -10.18258  -3.09153  -1.84071  -1.83618  -1.83595
 Alpha  occ. eigenvalues --   -1.14580  -1.14116  -1.07412  -1.06989  -1.06125
 Alpha  occ. eigenvalues --   -1.05751  -1.04491  -1.01159  -1.00439  -0.98431
 Alpha  occ. eigenvalues --   -0.97757  -0.88790  -0.87069  -0.86293  -0.86055
 Alpha  occ. eigenvalues --   -0.85296  -0.85044  -0.84497  -0.84053  -0.83886
 Alpha  occ. eigenvalues --   -0.83530  -0.82520  -0.81626  -0.80877  -0.79989
 Alpha  occ. eigenvalues --   -0.79334  -0.78724  -0.78368  -0.77733  -0.76549
 Alpha  occ. eigenvalues --   -0.75373  -0.74724  -0.74398  -0.73366  -0.72290
 Alpha  occ. eigenvalues --   -0.71454  -0.71118  -0.70582  -0.70037  -0.69836
 Alpha  occ. eigenvalues --   -0.69343  -0.68414  -0.68247  -0.67771  -0.67023
 Alpha  occ. eigenvalues --   -0.66144  -0.65263  -0.64428  -0.63053  -0.62704
 Alpha  occ. eigenvalues --   -0.62480  -0.61592  -0.61530  -0.59610  -0.59428
 Alpha  occ. eigenvalues --   -0.59346  -0.59045  -0.58111  -0.57771  -0.57630
 Alpha  occ. eigenvalues --   -0.56774  -0.55727  -0.55613  -0.55108  -0.54761
 Alpha  occ. eigenvalues --   -0.54215  -0.53399  -0.53070  -0.52716  -0.52582
 Alpha  occ. eigenvalues --   -0.52244  -0.52007  -0.51930  -0.51576  -0.51082
 Alpha  occ. eigenvalues --   -0.50819  -0.50657  -0.50605  -0.49863  -0.49553
 Alpha  occ. eigenvalues --   -0.49417  -0.49089  -0.48702  -0.48479  -0.48352
 Alpha  occ. eigenvalues --   -0.48132  -0.47640  -0.47562  -0.47192  -0.47098
 Alpha  occ. eigenvalues --   -0.46968  -0.46728  -0.46700  -0.46430  -0.46030
 Alpha  occ. eigenvalues --   -0.45940  -0.45734  -0.45588  -0.45289  -0.45213
 Alpha  occ. eigenvalues --   -0.44999  -0.44847  -0.44603  -0.44332  -0.43851
 Alpha  occ. eigenvalues --   -0.43732  -0.43386  -0.43232  -0.43035  -0.42887
 Alpha  occ. eigenvalues --   -0.42706  -0.42489  -0.42015  -0.41725  -0.41661
 Alpha  occ. eigenvalues --   -0.41520  -0.41505  -0.41309  -0.40833  -0.40716
 Alpha  occ. eigenvalues --   -0.40537  -0.40207  -0.40046  -0.39990  -0.39856
 Alpha  occ. eigenvalues --   -0.39631  -0.39388  -0.39149  -0.39065  -0.38959
 Alpha  occ. eigenvalues --   -0.38814  -0.38746  -0.38483  -0.38360  -0.38243
 Alpha  occ. eigenvalues --   -0.38029  -0.37850  -0.37816  -0.37424  -0.37384
 Alpha  occ. eigenvalues --   -0.36920  -0.36656  -0.36382  -0.36092  -0.35927
 Alpha  occ. eigenvalues --   -0.35525  -0.35189  -0.35036  -0.34616  -0.34273
 Alpha  occ. eigenvalues --   -0.34021  -0.33894  -0.33815  -0.33703  -0.33374
 Alpha  occ. eigenvalues --   -0.32775  -0.32529  -0.32453  -0.32265  -0.32188
 Alpha  occ. eigenvalues --   -0.31633  -0.31528  -0.31020  -0.30133  -0.29645
 Alpha  occ. eigenvalues --   -0.28861  -0.28669  -0.28443  -0.28012  -0.27734
 Alpha  occ. eigenvalues --   -0.27710  -0.27392  -0.22767  -0.21929
 Alpha virt. eigenvalues --   -0.08469  -0.06719  -0.02166  -0.00757   0.00392
 Alpha virt. eigenvalues --    0.02460   0.03611   0.03927   0.04673   0.04853
 Alpha virt. eigenvalues --    0.05174   0.05621   0.07184   0.07880   0.08922

 Mulliken charges:
               1
     1  Mg   0.813338
     2  C    0.032981
     3  C   -0.168446
     4  C   -0.222912
     5  C   -0.154143
     6  N   -0.628554
     7  C    0.326698
     8  C   -0.189956
     9  C   -0.175960
    10  C    0.332518
    11  C   -0.259142
    12  C   -0.166325
    13  C   -0.260800
    14  C    0.614619
    15  O   -0.460613
    16  O   -0.469685
    17  N   -0.709439
    18  C    0.307972
    19  C    0.045631
    20  C   -0.009279
    21  C    0.305130
    22  C   -0.369799
    23  C    0.246563
    24  O   -0.405645
    25  N   -0.678682
    26  C    0.355239
    27  C   -0.011467
    28  C    0.064806
    29  C    0.295692
    30  C    0.205580
    31  C   -0.239240
    32  C   -0.311942
    33  N   -0.731389
    34  C    0.241276
    35  C    0.028094
    36  C    0.049421
    37  C    0.306235
    38  C   -0.383783
    39  C    0.368172
    40  O   -0.465586
    41  C   -0.316105
    42  C    0.624346
    43  O   -0.447550
    44  O   -0.448733
    45  C   -0.074059
    46  C   -0.009126
    47  C   -0.124853
    48  C    0.131608
    49  C   -0.382293
    50  C   -0.212049
    51  C   -0.194994
    52  C   -0.166638
    53  C   -0.052963
    54  C   -0.310144
    55  C   -0.166604
    56  C   -0.191216
    57  C   -0.160985
    58  C   -0.040949
    59  C   -0.313586
    60  C   -0.156635
    61  C   -0.187682
    62  C   -0.155557
    63  C   -0.081811
    64  C   -0.291044
    65  C   -0.307329
    66  H    0.063960
    67  H    0.122254
    68  H    0.050014
    69  H    0.127755
    70  H    0.109701
    71  H    0.069192
    72  H    0.120256
    73  H    0.138881
    74  H    0.115403
    75  H    0.128651
    76  H    0.155770
    77  H    0.097852
    78  H    0.122856
    79  H    0.161263
    80  H    0.103612
    81  H    0.105777
    82  H    0.080193
    83  H    0.124582
    84  H    0.107499
    85  H    0.133593
    86  H    0.122398
    87  H    0.120555
    88  H    0.154414
    89  H    0.130598
    90  H    0.143255
    91  H    0.116264
    92  H    0.119481
    93  H    0.080094
    94  H    0.141036
    95  H    0.088543
    96  H    0.128888
    97  H    0.085689
    98  H    0.094843
    99  H    0.100796
   100  H    0.097801
   101  H    0.099421
   102  H    0.090954
   103  H    0.076991
   104  H    0.070054
   105  H    0.105601
   106  H    0.089141
   107  H    0.088429
   108  H    0.094934
   109  H    0.091436
   110  H    0.095193
   111  H    0.095807
   112  H    0.104828
   113  H    0.101094
   114  H    0.033991
   115  H    0.100735
   116  H    0.100984
   117  H    0.076905
   118  H    0.059810
   119  H    0.112645
   120  H    0.079947
   121  H    0.083494
   122  H    0.099633
   123  H    0.078301
   124  H    0.100062
   125  H    0.094962
   126  H    0.089865
   127  H    0.098694
   128  H    0.084537
   129  H    0.105694
   130  H    0.117414
   131  H    0.135063
   132  H    0.129997
   133  O   -0.439933
   134  H    0.059371
 Sum of Mulliken charges =  -0.00000

 Dipole moment (field-independent basis, Debye):
    X=              1.0569    Y=             -4.7898    Z=             -1.5030  Tot=              5.1301
 Quadrupole moment (field-independent basis, Debye-Ang):
   XX=           -382.2741   YY=           -435.7122   ZZ=           -393.9467
   XY=              2.8549   XZ=             21.2789   YZ=            -32.3176

 Normal termination of Gaussian 16 at Wed Oct  9 23:42:25 2019.
