 Gaussian 16, Revision A.03,
 Gaussian 16:  ES64L-G16RevA.03 25-Dec-2016

 ----------------------------------------------------------------------
 # td=(NStates=1) iop(3/107=0140000000,3/108=0140000000) iop(3/107=0140
 000000,3/108=0140000000) CAM-B3LYP/6-31G(d,p)
 ----------------------------------------------------------------------

 --
 TD
 --
 Symbolic Z-matrix:
 Charge =  0 Multiplicity = 1

                         Standard orientation:
 ---------------------------------------------------------------------
 Center     Atomic      Atomic             Coordinates (Angstroms)
 Number     Number       Type             X           Y           Z
 ---------------------------------------------------------------------
      1         12           0       -5.593020    1.265741    0.168061
      2          6           0       -5.024506   -2.127580   -0.422916
      3          6           0       -3.376745    1.057467    2.744462
      4          6           0       -6.187986    4.600186    0.710371
      5          6           0       -7.912224    1.232366   -2.315744
      6          7           0       -4.182940   -0.233617    0.937477
      7          6           0       -4.264792   -1.641464    0.551335
      8          6           0       -3.263720   -2.429366    1.483036
      9          6           0       -2.934428   -1.370818    2.697985
     10          6           0       -3.560676   -0.155196    2.156329
     11          6           0       -3.521584   -1.802107    4.035439
     12          6           0       -2.047570   -2.900807    0.625556
     13          6           0       -1.030705   -3.705662    1.505366
     14          6           0        0.223086   -4.058339    0.626420
     15          8           0        0.284924   -3.526318   -0.424004
     16          8           0        1.064265   -4.826614    1.287633
     17          7           0       -4.821269    2.657335    1.534390
     18          6           0       -3.948980    2.342877    2.520527
     19          6           0       -3.668194    3.648973    3.169655
     20          6           0       -4.399436    4.625576    2.593332
     21          6           0       -5.308446    3.926776    1.611153
     22          6           0       -2.657513    3.777488    4.335302
     23          6           0       -4.582470    5.953713    2.861868
     24          8           0       -3.947960    6.575860    3.734499
     25          7           0       -6.850522    2.608929   -0.649946
     26          6           0       -6.964817    3.962533   -0.267467
     27          6           0       -7.842317    4.663288   -1.168073
     28          6           0       -8.377262    3.707668   -2.006455
     29          6           0       -7.711560    2.430643   -1.752843
     30          6           0       -8.238378    6.086467   -1.067498
     31          6           0       -9.380890    3.777725   -3.134050
     32          6           0       -8.797810    4.219246   -4.430440
     33          7           0       -6.330818   -0.098375   -1.077536
     34          6           0       -7.232372    0.053522   -2.178389
     35          6           0       -7.450730   -1.226812   -2.774507
     36          6           0       -6.554115   -2.083497   -2.134196
     37          6           0       -5.878967   -1.376322   -1.160299
     38          6           0       -8.296138   -1.580316   -3.887738
     39          6           0       -6.133377   -3.431184   -2.114066
     40          8           0       -6.508683   -4.461021   -2.688650
     41          6           0       -5.004903   -3.594867   -1.028623
     42          6           0       -5.228921   -4.659369    0.030685
     43          8           0       -5.627869   -4.409529    1.153194
     44          8           0       -5.009637   -5.900783   -0.509583
     45          6           0       -5.442040   -6.968522    0.361804
     46          6           0        2.289902   -5.171973    0.649638
     47          6           0        3.388663   -4.154692    1.050440
     48          6           0        4.022575   -3.313808    0.230991
     49          6           0        3.740829   -3.215154   -1.296409
     50          6           0        5.157747   -2.525193    0.760075
     51          6           0        6.532736   -2.788738    0.169010
     52          6           0        7.609833   -1.799011    0.702678
     53          6           0        8.931058   -1.985481    0.019026
     54          6           0        9.609122   -3.519519    0.200111
     55          6           0        9.879011   -0.898556    0.413163
     56          6           0       11.311840   -0.811760   -0.239450
     57          6           0       12.136171    0.343531    0.212636
     58          6           0       13.388177    0.510166   -0.651287
     59          6           0       14.325160   -0.696458   -0.481485
     60          6           0       14.168189    1.817253   -0.230740
     61          6           0       15.330439    2.200002   -1.037125
     62          6           0       15.958020    3.548315   -0.569774
     63          6           0       17.088111    4.029138   -1.367839
     64          6           0       16.849399    4.205506   -2.902358
     65          6           0       17.743342    5.287383   -0.882355
     66          1           0       -2.720056    1.188826    3.671695
     67          1           0       -6.460844    5.690980    0.985094
     68          1           0       -8.458219    1.272791   -3.273779
     69          1           0       -3.933058   -3.273757    2.020183
     70          1           0       -1.744989   -1.256789    2.845223
     71          1           0       -2.918216   -2.624983    4.683355
     72          1           0       -3.572377   -0.835258    4.722284
     73          1           0       -4.553663   -1.965369    4.014429
     74          1           0       -2.494367   -3.557143   -0.220109
     75          1           0       -1.523488   -2.028221    0.167517
     76          1           0       -0.604802   -3.150229    2.421596
     77          1           0       -1.383465   -4.596037    1.921109
     78          1           0       -1.637138    3.496204    4.205241
     79          1           0       -2.599788    4.962692    4.500545
     80          1           0       -3.043567    3.302718    5.203484
     81          1           0       -5.387136    6.525260    2.158712
     82          1           0       -9.937751    2.944291   -3.302857
     83          1           0      -10.230474    4.526004   -2.743754
     84          1           0       -9.345225    4.201175   -5.391233
     85          1           0       -8.417144    5.092140   -4.454894
     86          1           0       -8.000415    3.493494   -4.679875
     87          1           0       -8.156799   -1.089707   -4.781080
     88          1           0       -8.260903   -2.761982   -4.103556
     89          1           0       -9.233983   -1.210706   -3.569411
     90          1           0       -3.970451   -3.796857   -1.550475
     91          1           0        2.391582   -6.267664    0.836073
     92          1           0        2.110257   -4.871781   -0.467383
     93          1           0        3.842185   -4.069865    1.970134
     94          1           0        2.663531   -3.285974   -1.641446
     95          1           0        4.119006   -2.202846   -1.590201
     96          1           0        4.181925   -3.884502   -1.999988
     97          1           0        5.143770   -1.556630    0.356612
     98          1           0        5.369042   -2.785668    1.823152
     99          1           0        6.803944   -3.883516    0.486989
    100          1           0        6.627415   -2.778963   -0.944145
    101          1           0        7.349863   -0.875313    0.666397
    102          1           0        7.681316   -1.938115    1.751811
    103          1           0        8.861563   -1.969862   -1.046204
    104          1           0        8.949230   -4.139256   -0.488358
    105          1           0       10.439601   -3.475071   -0.135021
    106          1           0        9.292292   -3.931436    1.431176
    107          1           0        9.386630    0.219440    0.286481
    108          1           0       10.046432   -0.839358    1.375887
    109          1           0       11.714423   -1.874640    0.002587
    110          1           0       10.975820   -0.662466   -1.365595
    111          1           0       11.595411    1.432441    0.352661
    112          1           0       12.223349    0.254087    1.347226
    113          1           0       13.103793    0.298088   -1.667348
    114          1           0       14.572141   -0.788921    0.599018
    115          1           0       13.966914   -1.672198   -0.761960
    116          1           0       15.174280   -0.615281   -1.058909
    117          1           0       13.472430    2.756771   -0.254209
    118          1           0       14.458078    1.491515    0.828227
    119          1           0       16.228470    1.689326   -0.809235
    120          1           0       15.064342    2.080655   -2.007204
    121          1           0       15.087310    4.239084   -0.891624
    122          1           0       16.314291    3.403447    0.496584
    123          1           0       17.869348    3.157792   -1.301079
    124          1           0       16.256287    4.881579   -3.189934
    125          1           0       17.802735    4.477031   -3.385482
    126          1           0       16.541670    3.231712   -3.234185
    127          1           0       17.837547    5.275827    0.247929
    128          1           0       18.708946    5.475995   -1.451223
    129          1           0       17.060631    6.124968   -1.148441
    130          1           0       -5.266183   -7.938799   -0.082931
    131          1           0       -6.333125   -6.790185    0.530305
    132          1           0       -4.639106   -6.913200    1.096976
    133          8           0       -7.748861    6.878950   -0.238565
    134          1           0       -8.848422    6.507638   -1.914751
 ---------------------------------------------------------------------

 SCF Done:  E(RCAM-B3LYP) =  -3043.41461739     A.U. after   16 cycles

 Excitation energies and oscillator strengths:

 Excited State   1:      Singlet-A      2.0470 eV  605.69 nm  f=0.1937  <S**2>=0.000
     243 -> 246       -0.25216
     244 -> 245        0.65109
 This state for optimization and/or second-order correction.
 Total Energy, E(TD-HF/TD-DFT) =  -3043.33939125
 Copying the excited state density for this state as the 1-particle RhoCI density.

 The electronic state is 1-A.
 Alpha  occ. eigenvalues --  -46.80825 -19.22867 -19.22286 -19.17831 -19.17769
 Alpha  occ. eigenvalues --  -19.17090 -19.16110 -19.16102 -14.38745 -14.36934
 Alpha  occ. eigenvalues --  -14.36693 -14.36179 -10.35478 -10.34437 -10.31505
 Alpha  occ. eigenvalues --  -10.30697 -10.29538 -10.29012 -10.27370 -10.27139
 Alpha  occ. eigenvalues --  -10.26819 -10.26763 -10.26751 -10.25933 -10.25877
 Alpha  occ. eigenvalues --  -10.25630 -10.25494 -10.25304 -10.25210 -10.25060
 Alpha  occ. eigenvalues --  -10.24977 -10.24891 -10.24533 -10.24001 -10.23970
 Alpha  occ. eigenvalues --  -10.23823 -10.23744 -10.23595 -10.23495 -10.23293
 Alpha  occ. eigenvalues --  -10.23121 -10.22990 -10.22877 -10.22354 -10.22189
 Alpha  occ. eigenvalues --  -10.22183 -10.22131 -10.22120 -10.21850 -10.21747
 Alpha  occ. eigenvalues --  -10.21709 -10.21616 -10.21603 -10.21573 -10.21535
 Alpha  occ. eigenvalues --  -10.21452 -10.21418 -10.21367 -10.21058 -10.20655
 Alpha  occ. eigenvalues --  -10.20623 -10.20207 -10.19512 -10.19007 -10.18979
 Alpha  occ. eigenvalues --  -10.18366  -3.09425  -1.84369  -1.83900  -1.83823
 Alpha  occ. eigenvalues --   -1.15035  -1.12934  -1.07273  -1.05930  -1.05228
 Alpha  occ. eigenvalues --   -1.05210  -1.04521  -0.99921  -0.99553  -0.97995
 Alpha  occ. eigenvalues --   -0.97075  -0.88916  -0.86937  -0.86022  -0.85582
 Alpha  occ. eigenvalues --   -0.84962  -0.84705  -0.84314  -0.83778  -0.83683
 Alpha  occ. eigenvalues --   -0.83285  -0.82899  -0.81240  -0.80651  -0.79766
 Alpha  occ. eigenvalues --   -0.79640  -0.78872  -0.78411  -0.77650  -0.76905
 Alpha  occ. eigenvalues --   -0.75521  -0.75190  -0.73489  -0.73237  -0.72511
 Alpha  occ. eigenvalues --   -0.72322  -0.71805  -0.71204  -0.70562  -0.70178
 Alpha  occ. eigenvalues --   -0.69844  -0.69571  -0.67820  -0.67165  -0.66414
 Alpha  occ. eigenvalues --   -0.65753  -0.65031  -0.64743  -0.62656  -0.62619
 Alpha  occ. eigenvalues --   -0.60904  -0.60658  -0.60261  -0.59336  -0.59098
 Alpha  occ. eigenvalues --   -0.58700  -0.58491  -0.58265  -0.57352  -0.56124
 Alpha  occ. eigenvalues --   -0.56050  -0.55858  -0.55644  -0.54456  -0.54326
 Alpha  occ. eigenvalues --   -0.53851  -0.53641  -0.53491  -0.53214  -0.52499
 Alpha  occ. eigenvalues --   -0.52377  -0.51987  -0.51817  -0.51525  -0.50891
 Alpha  occ. eigenvalues --   -0.50696  -0.50261  -0.49700  -0.49494  -0.49451
 Alpha  occ. eigenvalues --   -0.49086  -0.48707  -0.48539  -0.48127  -0.47978
 Alpha  occ. eigenvalues --   -0.47604  -0.47488  -0.47222  -0.47170  -0.47077
 Alpha  occ. eigenvalues --   -0.46930  -0.46697  -0.46465  -0.46035  -0.45840
 Alpha  occ. eigenvalues --   -0.45656  -0.45531  -0.45168  -0.44955  -0.44692
 Alpha  occ. eigenvalues --   -0.44577  -0.44533  -0.44309  -0.43845  -0.43793
 Alpha  occ. eigenvalues --   -0.43610  -0.43372  -0.43130  -0.42994  -0.42804
 Alpha  occ. eigenvalues --   -0.42574  -0.42199  -0.41966  -0.41934  -0.41888
 Alpha  occ. eigenvalues --   -0.41720  -0.41257  -0.41126  -0.40924  -0.40897
 Alpha  occ. eigenvalues --   -0.40424  -0.40277  -0.40177  -0.39904  -0.39888
 Alpha  occ. eigenvalues --   -0.39740  -0.39644  -0.39377  -0.39200  -0.39015
 Alpha  occ. eigenvalues --   -0.38885  -0.38794  -0.38583  -0.38356  -0.38129
 Alpha  occ. eigenvalues --   -0.38079  -0.37872  -0.37723  -0.37367  -0.37003
 Alpha  occ. eigenvalues --   -0.36778  -0.36460  -0.36389  -0.36333  -0.35770
 Alpha  occ. eigenvalues --   -0.35627  -0.35217  -0.34677  -0.34303  -0.34144
 Alpha  occ. eigenvalues --   -0.34033  -0.33937  -0.33504  -0.33450  -0.33268
 Alpha  occ. eigenvalues --   -0.32782  -0.32336  -0.31594  -0.31509  -0.31402
 Alpha  occ. eigenvalues --   -0.31194  -0.31111  -0.30628  -0.30472  -0.30178
 Alpha  occ. eigenvalues --   -0.28910  -0.28531  -0.28039  -0.27775  -0.27618
 Alpha  occ. eigenvalues --   -0.27094  -0.26803  -0.23196  -0.21960
 Alpha virt. eigenvalues --   -0.08878  -0.06703  -0.01574  -0.01343   0.00160
 Alpha virt. eigenvalues --    0.02527   0.03374   0.03868   0.04377   0.04684
 Alpha virt. eigenvalues --    0.05541   0.05954   0.08068   0.08868   0.09392

 Mulliken charges:
               1
     1  Mg   0.824284
     2  C    0.095529
     3  C   -0.184892
     4  C   -0.170279
     5  C   -0.167382
     6  N   -0.616196
     7  C    0.235025
     8  C   -0.166660
     9  C   -0.130460
    10  C    0.370433
    11  C   -0.310833
    12  C   -0.152219
    13  C   -0.275101
    14  C    0.594095
    15  O   -0.441384
    16  O   -0.433497
    17  N   -0.691437
    18  C    0.334744
    19  C    0.002294
    20  C    0.070005
    21  C    0.266467
    22  C   -0.404234
    23  C    0.197012
    24  O   -0.441296
    25  N   -0.705770
    26  C    0.287849
    27  C   -0.019560
    28  C    0.029336
    29  C    0.303940
    30  C    0.242517
    31  C   -0.244349
    32  C   -0.308606
    33  N   -0.750840
    34  C    0.242125
    35  C    0.054127
    36  C    0.066327
    37  C    0.324385
    38  C   -0.394071
    39  C    0.318921
    40  O   -0.481608
    41  C   -0.306042
    42  C    0.641375
    43  O   -0.468504
    44  O   -0.466557
    45  C   -0.058431
    46  C   -0.030969
    47  C   -0.114216
    48  C    0.167180
    49  C   -0.400242
    50  C   -0.230823
    51  C   -0.204208
    52  C   -0.148535
    53  C   -0.063100
    54  C   -0.280598
    55  C   -0.179273
    56  C   -0.183098
    57  C   -0.150684
    58  C   -0.069134
    59  C   -0.321127
    60  C   -0.155200
    61  C   -0.173019
    62  C   -0.162366
    63  C   -0.049455
    64  C   -0.313809
    65  C   -0.293431
    66  H    0.083314
    67  H    0.152467
    68  H    0.083859
    69  H    0.131860
    70  H    0.102746
    71  H    0.102909
    72  H    0.089081
    73  H    0.137062
    74  H    0.098018
    75  H    0.131770
    76  H    0.117548
    77  H    0.127425
    78  H    0.129844
    79  H    0.148878
    80  H    0.132216
    81  H    0.067832
    82  H    0.123343
    83  H    0.086312
    84  H    0.106065
    85  H    0.128043
    86  H    0.103827
    87  H    0.141387
    88  H    0.142797
    89  H    0.130853
    90  H    0.155953
    91  H    0.124679
    92  H    0.122383
    93  H    0.066486
    94  H    0.141856
    95  H    0.097408
    96  H    0.129925
    97  H    0.110786
    98  H    0.101396
    99  H    0.079196
   100  H    0.092654
   101  H    0.100403
   102  H    0.092544
   103  H    0.088111
   104  H    0.099608
   105  H    0.105782
   106  H    0.060899
   107  H    0.047921
   108  H    0.101065
   109  H    0.097901
   110  H    0.077324
   111  H    0.065596
   112  H    0.082710
   113  H    0.090015
   114  H    0.089957
   115  H    0.100901
   116  H    0.109625
   117  H    0.074995
   118  H    0.083176
   119  H    0.096150
   120  H    0.102554
   121  H    0.072675
   122  H    0.092427
   123  H    0.055157
   124  H    0.113673
   125  H    0.094431
   126  H    0.101082
   127  H    0.086781
   128  H    0.097408
   129  H    0.096726
   130  H    0.125460
   131  H    0.137834
   132  H    0.124301
   133  O   -0.423013
   134  H    0.081164
 Sum of Mulliken charges =  -0.00000

 Dipole moment (field-independent basis, Debye):
    X=              2.3473    Y=             -5.5561    Z=             -2.0962  Tot=              6.3854
 Quadrupole moment (field-independent basis, Debye-Ang):
   XX=           -367.6243   YY=           -436.1896   ZZ=           -390.1556
   XY=              4.2900   XZ=             21.0463   YZ=            -41.1303

 Normal termination of Gaussian 16 at Thu Oct 10 03:12:30 2019.
