 Gaussian 16, Revision A.03,
 Gaussian 16:  ES64L-G16RevA.03 25-Dec-2016

 ----------------------------------------------------------------------
 # td=(NStates=1) iop(3/107=0140000000,3/108=0140000000) iop(3/107=0140
 000000,3/108=0140000000) CAM-B3LYP/6-31G(d,p)
 ----------------------------------------------------------------------

 --
 TD
 --
 Symbolic Z-matrix:
 Charge =  0 Multiplicity = 1

                         Standard orientation:
 ---------------------------------------------------------------------
 Center     Atomic      Atomic             Coordinates (Angstroms)
 Number     Number       Type             X           Y           Z
 ---------------------------------------------------------------------
      1         12           0       -5.676968    1.157571    0.255474
      2          6           0       -4.911209   -2.177700   -0.380931
      3          6           0       -3.428015    1.176797    2.777883
      4          6           0       -6.345851    4.495899    0.827236
      5          6           0       -7.918092    1.130148   -2.407949
      6          7           0       -4.348113   -0.317559    1.046987
      7          6           0       -4.184611   -1.614163    0.667541
      8          6           0       -3.285538   -2.425391    1.471954
      9          6           0       -2.976412   -1.430550    2.684317
     10          6           0       -3.577316   -0.093073    2.207053
     11          6           0       -3.560389   -1.692933    3.957559
     12          6           0       -2.029271   -2.676453    0.627012
     13          6           0       -1.001211   -3.451529    1.470899
     14          6           0        0.209259   -3.763789    0.673354
     15          8           0        0.615976   -3.344906   -0.374206
     16          8           0        1.009303   -4.630386    1.402327
     17          7           0       -4.992451    2.642855    1.487938
     18          6           0       -3.948917    2.493093    2.448944
     19          6           0       -3.758988    3.680316    3.090626
     20          6           0       -4.517263    4.622071    2.550913
     21          6           0       -5.356926    4.016332    1.509379
     22          6           0       -2.851239    3.777273    4.349195
     23          6           0       -4.497863    6.053289    2.743284
     24          8           0       -3.912629    6.582163    3.642899
     25          7           0       -6.977204    2.624321   -0.748251
     26          6           0       -7.001260    3.868638   -0.251178
     27          6           0       -8.080906    4.534912   -1.074638
     28          6           0       -8.549372    3.590484   -2.053468
     29          6           0       -7.828703    2.422452   -1.707043
     30          6           0       -8.374682    5.934792   -1.030038
     31          6           0       -9.478281    3.822367   -3.177818
     32          6           0       -8.724684    3.949159   -4.564314
     33          7           0       -6.328713   -0.116707   -1.141098
     34          6           0       -7.219915    0.032306   -2.217662
     35          6           0       -7.418781   -1.317195   -2.789415
     36          6           0       -6.565745   -2.199008   -2.112767
     37          6           0       -5.931528   -1.364264   -1.134754
     38          6           0       -8.321356   -1.536543   -3.962805
     39          6           0       -6.159613   -3.497577   -1.955234
     40          8           0       -6.495937   -4.442644   -2.625075
     41          6           0       -5.094374   -3.615240   -0.922013
     42          6           0       -5.257161   -4.659716    0.164761
     43          8           0       -5.705231   -4.436834    1.291687
     44          8           0       -5.093053   -5.875083   -0.409811
     45          6           0       -5.466236   -6.956433    0.457247
     46          6           0        2.145389   -4.990689    0.710540
     47          6           0        3.368329   -4.155864    1.001263
     48          6           0        4.030217   -3.316318    0.154132
     49          6           0        3.775860   -3.153992   -1.360653
     50          6           0        5.113374   -2.485229    0.603603
     51          6           0        6.605712   -2.874024    0.092785
     52          6           0        7.663038   -1.828389    0.463207
     53          6           0        9.082283   -2.020420   -0.070622
     54          6           0        9.646239   -3.377359    0.225626
     55          6           0       10.033445   -0.933642    0.488399
     56          6           0       11.383807   -0.810774   -0.290275
     57          6           0       12.192307    0.282517    0.188469
     58          6           0       13.582212    0.421846   -0.621400
     59          6           0       14.501765   -0.695147   -0.366568
     60          6           0       14.190504    1.876997   -0.215874
     61          6           0       15.426505    2.280658   -1.010520
     62          6           0       16.080254    3.516777   -0.642990
     63          6           0       17.393963    3.949505   -1.314551
     64          6           0       17.109254    3.986227   -2.848269
     65          6           0       17.953015    5.163220   -0.708882
     66          1           0       -2.933800    1.243005    3.863688
     67          1           0       -6.652319    5.350191    0.922526
     68          1           0       -8.629119    1.115285   -3.169383
     69          1           0       -3.801110   -3.280190    1.924725
     70          1           0       -1.886740   -1.131991    2.558441
     71          1           0       -3.103727   -2.743258    4.418237
     72          1           0       -3.614747   -0.883336    4.636057
     73          1           0       -4.645972   -1.896561    3.938219
     74          1           0       -2.376271   -3.338682   -0.149244
     75          1           0       -1.677280   -1.635867    0.293812
     76          1           0       -0.878466   -2.726042    2.395011
     77          1           0       -1.441799   -4.373404    1.858080
     78          1           0       -1.753015    3.267591    4.082709
     79          1           0       -2.392752    4.876004    4.556688
     80          1           0       -3.131286    3.176721    5.162156
     81          1           0       -5.168270    6.778344    2.048314
     82          1           0      -10.209035    2.895818   -3.222250
     83          1           0       -9.918209    4.737991   -3.210808
     84          1           0       -9.701427    4.231667   -5.275257
     85          1           0       -8.061481    4.927009   -4.763628
     86          1           0       -8.322954    2.899337   -4.844793
     87          1           0       -7.993781   -1.085067   -4.807384
     88          1           0       -8.182586   -2.514224   -4.341088
     89          1           0       -9.320574   -1.128270   -3.715822
     90          1           0       -4.246075   -3.743449   -1.452693
     91          1           0        2.406134   -6.123316    0.861311
     92          1           0        2.026818   -5.047999   -0.423783
     93          1           0        3.691067   -4.203709    2.117368
     94          1           0        2.694321   -3.551677   -1.803147
     95          1           0        3.526728   -2.102520   -1.549689
     96          1           0        4.486890   -3.557471   -2.182570
     97          1           0        4.949561   -1.461572    0.449780
     98          1           0        5.059559   -2.562631    1.589352
     99          1           0        6.853672   -3.877681    0.476797
    100          1           0        6.563481   -2.998397   -1.123738
    101          1           0        7.170934   -0.877688    0.099910
    102          1           0        7.860481   -1.860579    1.550378
    103          1           0        9.055672   -1.825136   -1.082355
    104          1           0        8.867602   -4.041791   -0.127900
    105          1           0       10.536091   -3.790327   -0.432352
    106          1           0        9.584153   -3.648907    1.177416
    107          1           0        9.520876    0.003605    0.405145
    108          1           0       10.278504   -0.899270    1.618277
    109          1           0       11.778084   -1.828951    0.067011
    110          1           0       11.259662   -0.806469   -1.411175
    111          1           0       11.729975    1.227719    0.193286
    112          1           0       12.356734   -0.014909    1.256586
    113          1           0       13.263774    0.454191   -1.751858
    114          1           0       14.570351   -0.740984    0.815594
    115          1           0       14.203357   -1.653937   -0.630513
    116          1           0       15.595944   -0.359002   -0.745174
    117          1           0       13.257649    2.551205   -0.595955
    118          1           0       14.412078    1.803789    0.809325
    119          1           0       16.219128    1.443098   -1.029514
    120          1           0       15.102465    2.209327   -2.245137
    121          1           0       15.232034    4.517514   -0.859612
    122          1           0       16.141218    3.547927    0.336383
    123          1           0       17.972925    3.012123   -0.998759
    124          1           0       16.319481    4.775775   -3.106077
    125          1           0       18.034785    4.301146   -3.212255
    126          1           0       16.946690    3.027743   -3.181908
    127          1           0       18.056476    5.162496    0.392091
    128          1           0       18.952626    5.477274   -1.161477
    129          1           0       17.270264    5.980286   -1.017851
    130          1           0       -4.990340   -7.674804   -0.197228
    131          1           0       -6.421931   -7.132082    0.787510
    132          1           0       -4.640612   -6.833271    1.397220
    133          8           0       -7.807767    6.800529   -0.342420
    134          1           0       -9.138985    6.229273   -1.992250
 ---------------------------------------------------------------------

 SCF Done:  E(RCAM-B3LYP) =  -3043.39863027     A.U. after   16 cycles

 Excitation energies and oscillator strengths:

 Excited State   1:      Singlet-A      2.0934 eV  592.26 nm  f=0.0977  <S**2>=0.000
     243 -> 245        0.10485
     243 -> 246        0.32876
     244 -> 245        0.60008
 This state for optimization and/or second-order correction.
 Total Energy, E(TD-HF/TD-DFT) =  -3043.32169932
 Copying the excited state density for this state as the 1-particle RhoCI density.

 The electronic state is 1-A.
 Alpha  occ. eigenvalues --  -46.82290 -19.24369 -19.22101 -19.18947 -19.18213
 Alpha  occ. eigenvalues --  -19.16852 -19.16656 -19.16598 -14.38846 -14.37140
 Alpha  occ. eigenvalues --  -14.37049 -14.36714 -10.36542 -10.35513 -10.30680
 Alpha  occ. eigenvalues --  -10.30448 -10.30370 -10.28710 -10.28405 -10.27389
 Alpha  occ. eigenvalues --  -10.27275 -10.27169 -10.26983 -10.26905 -10.26421
 Alpha  occ. eigenvalues --  -10.26029 -10.25992 -10.25480 -10.25281 -10.25235
 Alpha  occ. eigenvalues --  -10.25014 -10.24656 -10.24558 -10.24541 -10.24429
 Alpha  occ. eigenvalues --  -10.24193 -10.24167 -10.24111 -10.24061 -10.23953
 Alpha  occ. eigenvalues --  -10.23934 -10.23274 -10.23045 -10.23033 -10.22710
 Alpha  occ. eigenvalues --  -10.22540 -10.22464 -10.22291 -10.22203 -10.22180
 Alpha  occ. eigenvalues --  -10.22083 -10.22061 -10.21769 -10.21666 -10.21657
 Alpha  occ. eigenvalues --  -10.21263 -10.20770 -10.20739 -10.20512 -10.20485
 Alpha  occ. eigenvalues --  -10.20403 -10.20229 -10.19735 -10.19664 -10.19372
 Alpha  occ. eigenvalues --  -10.19312  -3.10695  -1.85648  -1.85158  -1.85099
 Alpha  occ. eigenvalues --   -1.14744  -1.14601  -1.08081  -1.07828  -1.05934
 Alpha  occ. eigenvalues --   -1.05879  -1.04760  -1.01607  -1.00739  -0.99543
 Alpha  occ. eigenvalues --   -0.98467  -0.89584  -0.87174  -0.86568  -0.85919
 Alpha  occ. eigenvalues --   -0.85286  -0.85064  -0.84776  -0.84709  -0.84283
 Alpha  occ. eigenvalues --   -0.83234  -0.83179  -0.82933  -0.81384  -0.79838
 Alpha  occ. eigenvalues --   -0.79613  -0.78558  -0.77959  -0.77441  -0.76757
 Alpha  occ. eigenvalues --   -0.75933  -0.75282  -0.74270  -0.73880  -0.72696
 Alpha  occ. eigenvalues --   -0.71688  -0.71134  -0.70408  -0.70318  -0.70000
 Alpha  occ. eigenvalues --   -0.69693  -0.69235  -0.67642  -0.66694  -0.65974
 Alpha  occ. eigenvalues --   -0.65582  -0.64490  -0.64245  -0.63008  -0.62452
 Alpha  occ. eigenvalues --   -0.62003  -0.61814  -0.60348  -0.59400  -0.59280
 Alpha  occ. eigenvalues --   -0.58973  -0.57895  -0.57547  -0.57495  -0.57286
 Alpha  occ. eigenvalues --   -0.57054  -0.56589  -0.56285  -0.55674  -0.55149
 Alpha  occ. eigenvalues --   -0.54769  -0.54259  -0.53781  -0.53024  -0.52842
 Alpha  occ. eigenvalues --   -0.52415  -0.51563  -0.51487  -0.51178  -0.51007
 Alpha  occ. eigenvalues --   -0.50469  -0.50389  -0.50088  -0.49949  -0.49643
 Alpha  occ. eigenvalues --   -0.49485  -0.49319  -0.48497  -0.48268  -0.48177
 Alpha  occ. eigenvalues --   -0.47881  -0.47764  -0.47593  -0.47397  -0.47028
 Alpha  occ. eigenvalues --   -0.47006  -0.46914  -0.46749  -0.46572  -0.46360
 Alpha  occ. eigenvalues --   -0.46068  -0.45800  -0.45344  -0.45102  -0.44916
 Alpha  occ. eigenvalues --   -0.44738  -0.44661  -0.44476  -0.44204  -0.44053
 Alpha  occ. eigenvalues --   -0.43793  -0.43629  -0.43492  -0.43399  -0.43161
 Alpha  occ. eigenvalues --   -0.42870  -0.42308  -0.42228  -0.42100  -0.41995
 Alpha  occ. eigenvalues --   -0.41830  -0.41614  -0.41439  -0.41384  -0.40932
 Alpha  occ. eigenvalues --   -0.40816  -0.40573  -0.40408  -0.40253  -0.40024
 Alpha  occ. eigenvalues --   -0.39840  -0.39785  -0.39546  -0.39473  -0.39287
 Alpha  occ. eigenvalues --   -0.39106  -0.38932  -0.38514  -0.38250  -0.37998
 Alpha  occ. eigenvalues --   -0.37863  -0.37548  -0.37293  -0.36997  -0.36508
 Alpha  occ. eigenvalues --   -0.36310  -0.36213  -0.35967  -0.35721  -0.35695
 Alpha  occ. eigenvalues --   -0.35388  -0.35163  -0.34671  -0.34455  -0.34419
 Alpha  occ. eigenvalues --   -0.34287  -0.33978  -0.33755  -0.33705  -0.32855
 Alpha  occ. eigenvalues --   -0.32609  -0.32392  -0.32360  -0.31990  -0.31982
 Alpha  occ. eigenvalues --   -0.31747  -0.31444  -0.30744  -0.30247  -0.29742
 Alpha  occ. eigenvalues --   -0.29358  -0.28396  -0.28217  -0.27548  -0.27354
 Alpha  occ. eigenvalues --   -0.26814  -0.26700  -0.23090  -0.22566
 Alpha virt. eigenvalues --   -0.08783  -0.07331  -0.01583  -0.00510   0.00456
 Alpha virt. eigenvalues --    0.01228   0.02029   0.02756   0.03816   0.04427
 Alpha virt. eigenvalues --    0.05124   0.06116   0.07320   0.08147   0.08863

 Mulliken charges:
               1
     1  Mg   0.823393
     2  C    0.003951
     3  C   -0.213247
     4  C   -0.039928
     5  C   -0.158676
     6  N   -0.635060
     7  C    0.331023
     8  C   -0.172533
     9  C   -0.122932
    10  C    0.289327
    11  C   -0.312720
    12  C   -0.172430
    13  C   -0.273879
    14  C    0.618451
    15  O   -0.447601
    16  O   -0.453955
    17  N   -0.713931
    18  C    0.307050
    19  C    0.072764
    20  C   -0.003428
    21  C    0.316015
    22  C   -0.379469
    23  C    0.214237
    24  O   -0.393971
    25  N   -0.677412
    26  C    0.274549
    27  C   -0.059493
    28  C    0.065742
    29  C    0.291831
    30  C    0.229015
    31  C   -0.243000
    32  C   -0.301200
    33  N   -0.752303
    34  C    0.305498
    35  C   -0.009366
    36  C    0.097075
    37  C    0.333171
    38  C   -0.378161
    39  C    0.306364
    40  O   -0.456412
    41  C   -0.263816
    42  C    0.612764
    43  O   -0.474213
    44  O   -0.429479
    45  C   -0.079287
    46  C    0.001960
    47  C   -0.146656
    48  C    0.156716
    49  C   -0.376535
    50  C   -0.221411
    51  C   -0.180120
    52  C   -0.167963
    53  C   -0.045250
    54  C   -0.320441
    55  C   -0.184230
    56  C   -0.175014
    57  C   -0.155805
    58  C   -0.058505
    59  C   -0.290023
    60  C   -0.163113
    61  C   -0.163204
    62  C   -0.106780
    63  C   -0.062004
    64  C   -0.299003
    65  C   -0.304689
    66  H    0.074784
    67  H    0.057903
    68  H    0.074300
    69  H    0.138419
    70  H    0.114490
    71  H    0.081727
    72  H    0.127408
    73  H    0.133181
    74  H    0.117234
    75  H    0.128552
    76  H    0.140848
    77  H    0.141788
    78  H    0.083962
    79  H    0.148501
    80  H    0.142487
    81  H    0.076813
    82  H    0.103421
    83  H    0.126975
    84  H    0.079534
    85  H    0.122463
    86  H    0.107049
    87  H    0.146122
    88  H    0.148814
    89  H    0.129060
    90  H    0.174355
    91  H    0.089052
    92  H    0.118084
    93  H    0.074132
    94  H    0.101609
    95  H    0.120300
    96  H    0.113456
    97  H    0.104041
    98  H    0.101506
    99  H    0.098748
   100  H    0.068086
   101  H    0.090542
   102  H    0.090829
   103  H    0.090707
   104  H    0.097684
   105  H    0.098809
   106  H    0.112288
   107  H    0.082322
   108  H    0.069507
   109  H    0.091739
   110  H    0.079254
   111  H    0.091212
   112  H    0.078621
   113  H    0.064565
   114  H    0.075204
   115  H    0.118499
   116  H    0.083170
   117  H    0.084714
   118  H    0.099574
   119  H    0.076411
   120  H    0.052071
   121  H    0.010272
   122  H    0.092838
   123  H    0.071817
   124  H    0.098218
   125  H    0.101952
   126  H    0.117898
   127  H    0.104508
   128  H    0.091797
   129  H    0.102041
   130  H    0.137084
   131  H    0.156489
   132  H    0.091238
   133  O   -0.440997
   134  H    0.015674
 Sum of Mulliken charges =  -0.00000

 Dipole moment (field-independent basis, Debye):
    X=             -0.1437    Y=             -6.3654    Z=             -0.8781  Tot=              6.4272
 Quadrupole moment (field-independent basis, Debye-Ang):
   XX=           -383.9069   YY=           -446.5840   ZZ=           -391.0258
   XY=             24.2691   XZ=             23.3430   YZ=            -28.3236

 Normal termination of Gaussian 16 at Fri Oct 11 10:44:10 2019.
