 Gaussian 16, Revision A.03,
 Gaussian 16:  ES64L-G16RevA.03 25-Dec-2016

 ----------------------------------------------------------------------
 # td=(NStates=1) iop(3/107=0140000000,3/108=0140000000) iop(3/107=0140
 000000,3/108=0140000000) CAM-B3LYP/6-31G(d,p)
 ----------------------------------------------------------------------

 --
 TD
 --
 Symbolic Z-matrix:
 Charge =  0 Multiplicity = 1

                         Standard orientation:
 ---------------------------------------------------------------------
 Center     Atomic      Atomic             Coordinates (Angstroms)
 Number     Number       Type             X           Y           Z
 ---------------------------------------------------------------------
      1         12           0       -5.641948    1.229619    0.266920
      2          6           0       -4.994044   -2.160920   -0.334984
      3          6           0       -3.329737    1.073865    2.829350
      4          6           0       -6.153971    4.557369    0.591730
      5          6           0       -7.938901    1.224408   -2.474653
      6          7           0       -4.258106   -0.300396    1.024904
      7          6           0       -4.182924   -1.597175    0.647843
      8          6           0       -3.108668   -2.355389    1.512170
      9          6           0       -2.813646   -1.305625    2.712281
     10          6           0       -3.447109   -0.033488    2.129178
     11          6           0       -3.450048   -1.734514    4.070451
     12          6           0       -1.861882   -2.632025    0.678412
     13          6           0       -0.888262   -3.525831    1.410526
     14          6           0        0.262652   -3.989371    0.600585
     15          8           0        0.360723   -3.707122   -0.543249
     16          8           0        1.082004   -4.779960    1.286394
     17          7           0       -4.783358    2.650381    1.404257
     18          6           0       -3.969784    2.398923    2.430957
     19          6           0       -3.635124    3.629787    3.162317
     20          6           0       -4.462978    4.694029    2.581479
     21          6           0       -5.129054    3.997418    1.479396
     22          6           0       -2.614071    3.743547    4.247995
     23          6           0       -4.556618    6.136491    2.906674
     24          8           0       -3.770651    6.669389    3.693509
     25          7           0       -6.803306    2.642415   -0.790772
     26          6           0       -6.923513    3.943485   -0.323788
     27          6           0       -7.900017    4.635551   -1.154971
     28          6           0       -8.416205    3.691739   -2.062332
     29          6           0       -7.764679    2.436497   -1.762613
     30          6           0       -8.301416    6.070819   -1.009163
     31          6           0       -9.241218    3.956392   -3.211054
     32          6           0       -8.684025    3.890921   -4.652314
     33          7           0       -6.328886   -0.137373   -1.125716
     34          6           0       -7.269037   -0.031907   -2.093037
     35          6           0       -7.553252   -1.283566   -2.684036
     36          6           0       -6.687937   -2.186887   -1.998139
     37          6           0       -5.941197   -1.446536   -1.105092
     38          6           0       -8.586098   -1.591597   -3.704778
     39          6           0       -6.299401   -3.563814   -1.899458
     40          8           0       -6.662912   -4.570404   -2.506867
     41          6           0       -5.080755   -3.480995   -0.875075
     42          6           0       -5.476434   -4.595942    0.146838
     43          8           0       -5.813775   -4.381453    1.285297
     44          8           0       -4.940253   -5.804681   -0.330457
     45          6           0       -5.206779   -6.922397    0.530725
     46          6           0        2.319628   -5.155779    0.522064
     47          6           0        3.300627   -4.242451    0.947494
     48          6           0        4.045944   -3.451129    0.131291
     49          6           0        3.768600   -3.287862   -1.428930
     50          6           0        5.088878   -2.525187    0.615932
     51          6           0        6.450307   -2.747571    0.057259
     52          6           0        7.458701   -1.826189    0.560832
     53          6           0        8.863650   -1.967421   -0.124112
     54          6           0        9.548168   -3.333059    0.097946
     55          6           0        9.905914   -0.930875    0.345252
     56          6           0       11.226473   -0.744767   -0.384696
     57          6           0       12.105463    0.438691    0.073584
     58          6           0       13.463148    0.483283   -0.646065
     59          6           0       14.306590   -0.732807   -0.227741
     60          6           0       14.135105    1.807016   -0.180949
     61          6           0       15.304412    2.119706   -1.042974
     62          6           0       15.895176    3.474910   -0.641318
     63          6           0       17.163320    3.998657   -1.314206
     64          6           0       17.074687    4.092805   -2.857227
     65          6           0       17.719559    5.245649   -0.720452
     66          1           0       -2.988268    1.140654    3.906409
     67          1           0       -6.263200    5.619373    0.509503
     68          1           0       -8.768499    1.348634   -3.338018
     69          1           0       -3.698193   -3.163280    1.799550
     70          1           0       -1.696978   -1.234434    2.866264
     71          1           0       -2.865283   -2.651324    4.454256
     72          1           0       -3.008698   -0.788199    4.710068
     73          1           0       -4.458493   -1.862868    4.030091
     74          1           0       -2.017537   -3.177949   -0.141027
     75          1           0       -1.357731   -1.734848    0.392353
     76          1           0       -0.658118   -3.103236    2.367426
     77          1           0       -1.376589   -4.518658    1.754085
     78          1           0       -1.661917    3.135518    4.036172
     79          1           0       -2.206834    4.931858    4.627779
     80          1           0       -2.943528    3.255217    5.196876
     81          1           0       -5.195084    6.746158    2.132361
     82          1           0       -9.985126    2.951667   -3.342971
     83          1           0      -10.073362    4.910968   -3.002197
     84          1           0       -9.627929    4.036192   -5.325797
     85          1           0       -8.015206    4.697444   -4.630243
     86          1           0       -8.053619    3.025537   -4.798032
     87          1           0       -8.576017   -0.890507   -4.657587
     88          1           0       -8.665259   -2.577515   -3.954144
     89          1           0       -9.598440   -1.367975   -2.974086
     90          1           0       -4.119881   -4.032270   -1.378936
     91          1           0        2.515236   -6.154252    0.869119
     92          1           0        2.014976   -4.922738   -0.578178
     93          1           0        3.432677   -4.253053    1.924953
     94          1           0        2.662623   -3.688937   -1.624776
     95          1           0        3.806772   -2.323870   -1.760922
     96          1           0        4.240555   -4.135224   -1.950213
     97          1           0        4.978631   -1.395266    0.431558
     98          1           0        5.014156   -2.694614    1.735690
     99          1           0        6.797803   -3.778604    0.087905
    100          1           0        6.468167   -2.642886   -0.984450
    101          1           0        7.009183   -0.786727    0.664001
    102          1           0        7.741236   -2.032419    1.672918
    103          1           0        8.589099   -1.792956   -1.300648
    104          1           0        8.801332   -4.154293   -0.186109
    105          1           0       10.598044   -3.430594   -0.392423
    106          1           0        9.443285   -3.675993    1.222155
    107          1           0        9.626199    0.065329    0.271964
    108          1           0       10.184949   -1.214048    1.474156
    109          1           0       11.704230   -1.681903   -0.410108
    110          1           0       11.026057   -0.734021   -1.291383
    111          1           0       11.530759    1.199003   -0.003995
    112          1           0       12.413298    0.394235    1.216348
    113          1           0       13.374502    0.532084   -1.752874
    114          1           0       14.566357   -0.842452    0.894469
    115          1           0       13.907969   -1.738295   -0.372217
    116          1           0       15.247413   -0.730822   -0.912358
    117          1           0       13.321509    2.577422   -0.056635
    118          1           0       14.548383    1.761162    0.949532
    119          1           0       15.958266    1.257773   -0.996916
    120          1           0       15.055296    1.939482   -1.963013
    121          1           0       15.249249    4.266140   -0.612637
    122          1           0       16.103493    3.532701    0.455409
    123          1           0       18.090140    3.292975   -1.080229
    124          1           0       16.304780    4.721167   -3.234873
    125          1           0       18.075889    4.116073   -3.274494
    126          1           0       16.698418    3.150101   -3.270505
    127          1           0       17.983046    5.066071    0.498153
    128          1           0       18.707286    5.447264   -1.269129
    129          1           0       17.070728    6.223603   -0.779080
    130          1           0       -5.098282   -7.776271   -0.004901
    131          1           0       -6.209322   -6.773347    0.775936
    132          1           0       -4.643430   -6.805894    1.423938
    133          8           0       -7.768109    6.943018   -0.311033
    134          1           0       -9.237735    6.076540   -1.764236
 ---------------------------------------------------------------------

 SCF Done:  E(RCAM-B3LYP) =  -3043.42274138     A.U. after   16 cycles

 Excitation energies and oscillator strengths:

 Excited State   1:      Singlet-A      1.9009 eV  652.24 nm  f=0.2375  <S**2>=0.000
     243 -> 246        0.22535
     244 -> 245        0.66384
 This state for optimization and/or second-order correction.
 Total Energy, E(TD-HF/TD-DFT) =  -3043.35288445
 Copying the excited state density for this state as the 1-particle RhoCI density.

 The electronic state is 1-A.
 Alpha  occ. eigenvalues --  -46.82620 -19.21694 -19.21537 -19.19086 -19.18395
 Alpha  occ. eigenvalues --  -19.17129 -19.16892 -19.16695 -14.39146 -14.37909
 Alpha  occ. eigenvalues --  -14.37329 -14.36553 -10.35332 -10.33955 -10.32452
 Alpha  occ. eigenvalues --  -10.31100 -10.31031 -10.27990 -10.27440 -10.27367
 Alpha  occ. eigenvalues --  -10.27092 -10.27012 -10.26865 -10.26858 -10.26704
 Alpha  occ. eigenvalues --  -10.26577 -10.25960 -10.25697 -10.25523 -10.25311
 Alpha  occ. eigenvalues --  -10.25185 -10.25162 -10.25132 -10.24779 -10.24712
 Alpha  occ. eigenvalues --  -10.24057 -10.23931 -10.23786 -10.23752 -10.23743
 Alpha  occ. eigenvalues --  -10.23692 -10.23689 -10.23584 -10.23535 -10.23479
 Alpha  occ. eigenvalues --  -10.23244 -10.22809 -10.22474 -10.22305 -10.22203
 Alpha  occ. eigenvalues --  -10.22112 -10.21983 -10.21875 -10.21799 -10.21540
 Alpha  occ. eigenvalues --  -10.21294 -10.21252 -10.21224 -10.20353 -10.20199
 Alpha  occ. eigenvalues --  -10.20146 -10.20085 -10.19913 -10.19547 -10.19097
 Alpha  occ. eigenvalues --  -10.17866  -3.10984  -1.85930  -1.85442  -1.85392
 Alpha  occ. eigenvalues --   -1.13941  -1.12382  -1.06937  -1.05958  -1.05649
 Alpha  occ. eigenvalues --   -1.05511  -1.05241  -1.01050  -0.99995  -0.99185
 Alpha  occ. eigenvalues --   -0.98614  -0.89739  -0.87008  -0.85956  -0.85925
 Alpha  occ. eigenvalues --   -0.85617  -0.84664  -0.84586  -0.83965  -0.83505
 Alpha  occ. eigenvalues --   -0.83329  -0.81932  -0.81888  -0.80822  -0.79687
 Alpha  occ. eigenvalues --   -0.79097  -0.79020  -0.77873  -0.77124  -0.77055
 Alpha  occ. eigenvalues --   -0.75442  -0.74991  -0.74012  -0.72902  -0.71731
 Alpha  occ. eigenvalues --   -0.71450  -0.71079  -0.70314  -0.70034  -0.69440
 Alpha  occ. eigenvalues --   -0.69371  -0.68962  -0.67011  -0.66651  -0.66284
 Alpha  occ. eigenvalues --   -0.65972  -0.65413  -0.64411  -0.63327  -0.62236
 Alpha  occ. eigenvalues --   -0.61851  -0.61708  -0.60978  -0.59749  -0.58455
 Alpha  occ. eigenvalues --   -0.58316  -0.58099  -0.57433  -0.57056  -0.56995
 Alpha  occ. eigenvalues --   -0.56411  -0.55972  -0.55624  -0.54977  -0.54501
 Alpha  occ. eigenvalues --   -0.53976  -0.53022  -0.52642  -0.52501  -0.51882
 Alpha  occ. eigenvalues --   -0.51680  -0.51319  -0.51308  -0.51063  -0.50852
 Alpha  occ. eigenvalues --   -0.50625  -0.50006  -0.49652  -0.49532  -0.49344
 Alpha  occ. eigenvalues --   -0.49091  -0.48705  -0.48595  -0.48274  -0.48159
 Alpha  occ. eigenvalues --   -0.47641  -0.47341  -0.47235  -0.47130  -0.46870
 Alpha  occ. eigenvalues --   -0.46666  -0.46593  -0.46333  -0.46263  -0.46019
 Alpha  occ. eigenvalues --   -0.45644  -0.45610  -0.45570  -0.45368  -0.45251
 Alpha  occ. eigenvalues --   -0.45139  -0.44776  -0.44543  -0.44182  -0.43936
 Alpha  occ. eigenvalues --   -0.43704  -0.43520  -0.43035  -0.42889  -0.42507
 Alpha  occ. eigenvalues --   -0.42297  -0.42217  -0.42056  -0.41961  -0.41908
 Alpha  occ. eigenvalues --   -0.41768  -0.41685  -0.41313  -0.41249  -0.41011
 Alpha  occ. eigenvalues --   -0.40867  -0.40780  -0.40450  -0.40399  -0.40305
 Alpha  occ. eigenvalues --   -0.40303  -0.39839  -0.39579  -0.39388  -0.39287
 Alpha  occ. eigenvalues --   -0.39065  -0.38842  -0.38500  -0.38365  -0.38052
 Alpha  occ. eigenvalues --   -0.38018  -0.37932  -0.37756  -0.37195  -0.36964
 Alpha  occ. eigenvalues --   -0.36549  -0.36416  -0.36125  -0.35892  -0.35623
 Alpha  occ. eigenvalues --   -0.35047  -0.34932  -0.34902  -0.34621  -0.34502
 Alpha  occ. eigenvalues --   -0.34285  -0.33572  -0.33493  -0.33148  -0.32988
 Alpha  occ. eigenvalues --   -0.32888  -0.32801  -0.32313  -0.31981  -0.31820
 Alpha  occ. eigenvalues --   -0.31553  -0.31025  -0.30895  -0.30444  -0.30083
 Alpha  occ. eigenvalues --   -0.28580  -0.28396  -0.27962  -0.27784  -0.27456
 Alpha  occ. eigenvalues --   -0.27342  -0.27237  -0.23050  -0.22046
 Alpha virt. eigenvalues --   -0.09877  -0.06917  -0.01694  -0.01489   0.00339
 Alpha virt. eigenvalues --    0.02119   0.02425   0.02793   0.04075   0.04538
 Alpha virt. eigenvalues --    0.05384   0.05548   0.06268   0.07784   0.07925

 Mulliken charges:
               1
     1  Mg   0.839131
     2  C    0.169173
     3  C   -0.179963
     4  C   -0.173596
     5  C   -0.172163
     6  N   -0.632526
     7  C    0.295164
     8  C   -0.149196
     9  C   -0.164276
    10  C    0.358648
    11  C   -0.282363
    12  C   -0.147134
    13  C   -0.287514
    14  C    0.625315
    15  O   -0.465179
    16  O   -0.481210
    17  N   -0.697948
    18  C    0.295814
    19  C    0.038195
    20  C   -0.001071
    21  C    0.252589
    22  C   -0.397995
    23  C    0.230840
    24  O   -0.410354
    25  N   -0.688813
    26  C    0.318246
    27  C   -0.036214
    28  C    0.073058
    29  C    0.304775
    30  C    0.290289
    31  C   -0.287699
    32  C   -0.290452
    33  N   -0.734551
    34  C    0.282990
    35  C    0.030224
    36  C    0.049030
    37  C    0.263340
    38  C   -0.358491
    39  C    0.352861
    40  O   -0.472764
    41  C   -0.402826
    42  C    0.608639
    43  O   -0.452945
    44  O   -0.470062
    45  C   -0.076876
    46  C   -0.038791
    47  C   -0.084918
    48  C    0.129525
    49  C   -0.382486
    50  C   -0.231802
    51  C   -0.161055
    52  C   -0.165035
    53  C   -0.050594
    54  C   -0.308788
    55  C   -0.155366
    56  C   -0.187059
    57  C   -0.152411
    58  C   -0.069281
    59  C   -0.302541
    60  C   -0.162945
    61  C   -0.161470
    62  C   -0.164875
    63  C   -0.044518
    64  C   -0.317092
    65  C   -0.283300
    66  H    0.100109
    67  H    0.135273
    68  H    0.098941
    69  H    0.118961
    70  H    0.105753
    71  H    0.107808
    72  H    0.084196
    73  H    0.138480
    74  H    0.126542
    75  H    0.120041
    76  H    0.125387
    77  H    0.121128
    78  H    0.115607
    79  H    0.134298
    80  H    0.125609
    81  H    0.085396
    82  H    0.073666
    83  H    0.093464
    84  H    0.117346
    85  H    0.128201
    86  H    0.121623
    87  H    0.118507
    88  H    0.158226
    89  H    0.104710
    90  H    0.164676
    91  H    0.122579
    92  H    0.135602
    93  H    0.080737
    94  H    0.118536
    95  H    0.128431
    96  H    0.126935
    97  H    0.094449
    98  H    0.088310
    99  H    0.094122
   100  H    0.107678
   101  H    0.083780
   102  H    0.073690
   103  H    0.052149
   104  H    0.088579
   105  H    0.112265
   106  H    0.093762
   107  H    0.084292
   108  H    0.065050
   109  H    0.078353
   110  H    0.099139
   111  H    0.094646
   112  H    0.072346
   113  H    0.084588
   114  H    0.098359
   115  H    0.105460
   116  H    0.084172
   117  H    0.083151
   118  H    0.068148
   119  H    0.094912
   120  H    0.096879
   121  H    0.099466
   122  H    0.080494
   123  H    0.065547
   124  H    0.108262
   125  H    0.104169
   126  H    0.095881
   127  H    0.065849
   128  H    0.095005
   129  H    0.084083
   130  H    0.131574
   131  H    0.131438
   132  H    0.123358
   133  O   -0.436720
   134  H    0.047205
 Sum of Mulliken charges =  -0.00000

 Dipole moment (field-independent basis, Debye):
    X=              0.6467    Y=             -4.7764    Z=             -1.4967  Tot=              5.0471
 Quadrupole moment (field-independent basis, Debye-Ang):
   XX=           -376.9593   YY=           -444.1743   ZZ=           -392.2392
   XY=             -3.3204   XZ=             13.3191   YZ=            -36.0926

 Normal termination of Gaussian 16 at Thu Oct  3 15:58:31 2019.
