 Gaussian 16, Revision A.03,
 Gaussian 16:  ES64L-G16RevA.03 25-Dec-2016

 ----------------------------------------------------------------------
 # td=(NStates=1) iop(3/107=0140000000,3/108=0140000000) iop(3/107=0140
 000000,3/108=0140000000) CAM-B3LYP/6-31G(d,p)
 ----------------------------------------------------------------------

 --
 TD
 --
 Symbolic Z-matrix:
 Charge =  0 Multiplicity = 1

                         Standard orientation:
 ---------------------------------------------------------------------
 Center     Atomic      Atomic             Coordinates (Angstroms)
 Number     Number       Type             X           Y           Z
 ---------------------------------------------------------------------
      1         12           0       -5.646099    1.239924    0.100698
      2          6           0       -4.996163   -2.062138   -0.444954
      3          6           0       -3.369848    1.190186    2.717144
      4          6           0       -6.184958    4.540132    0.654365
      5          6           0       -7.981792    1.224714   -2.359258
      6          7           0       -4.461337   -0.270916    1.094388
      7          6           0       -4.319617   -1.549156    0.631206
      8          6           0       -3.201029   -2.261667    1.432660
      9          6           0       -2.966949   -1.225628    2.566796
     10          6           0       -3.616351   -0.021571    2.135767
     11          6           0       -3.349281   -1.808985    3.940340
     12          6           0       -1.936098   -2.662251    0.623273
     13          6           0       -0.986702   -3.445620    1.526757
     14          6           0        0.347615   -3.888706    0.707760
     15          8           0        0.511414   -3.570572   -0.424091
     16          8           0        1.170334   -4.820763    1.268323
     17          7           0       -4.904359    2.631270    1.462315
     18          6           0       -4.021270    2.492480    2.505160
     19          6           0       -3.686550    3.664232    3.142367
     20          6           0       -4.559124    4.565078    2.650806
     21          6           0       -5.271968    3.945428    1.508438
     22          6           0       -2.803565    3.631258    4.367909
     23          6           0       -4.623626    6.027592    3.009234
     24          8           0       -3.901493    6.582867    3.849274
     25          7           0       -6.916400    2.618823   -0.757740
     26          6           0       -6.896153    3.988747   -0.436628
     27          6           0       -7.934326    4.606403   -1.218707
     28          6           0       -8.476259    3.618762   -2.119381
     29          6           0       -7.832885    2.428311   -1.748401
     30          6           0       -8.237353    5.982585   -1.187391
     31          6           0       -9.450207    3.763926   -3.226432
     32          6           0       -8.738441    4.018370   -4.562269
     33          7           0       -6.401901   -0.181911   -1.180471
     34          6           0       -7.410785   -0.041047   -2.102485
     35          6           0       -7.595449   -1.329260   -2.760617
     36          6           0       -6.662481   -2.177252   -2.007416
     37          6           0       -6.032068   -1.446414   -1.131079
     38          6           0       -8.540111   -1.672213   -3.769086
     39          6           0       -6.210906   -3.535827   -2.024765
     40          8           0       -6.585492   -4.539398   -2.667523
     41          6           0       -5.039667   -3.569858   -0.933206
     42          6           0       -5.376041   -4.513169    0.098345
     43          8           0       -5.713404   -4.293527    1.258378
     44          8           0       -5.066019   -5.846546   -0.331777
     45          6           0       -5.352721   -6.912393    0.506632
     46          6           0        2.338044   -5.103209    0.722469
     47          6           0        3.479340   -4.205494    1.078906
     48          6           0        3.972789   -3.347053    0.221850
     49          6           0        3.470832   -2.997656   -1.165283
     50          6           0        5.143534   -2.396642    0.821132
     51          6           0        6.386635   -2.654038   -0.052723
     52          6           0        7.617382   -1.772023    0.578818
     53          6           0        8.955650   -1.912921   -0.052266
     54          6           0        9.469480   -3.471870   -0.041885
     55          6           0        9.923721   -0.966012    0.584871
     56          6           0       11.288688   -0.843539   -0.287597
     57          6           0       12.261773    0.205300    0.252604
     58          6           0       13.559102    0.494622   -0.593896
     59          6           0       14.473379   -0.707889   -0.611593
     60          6           0       14.310019    1.759588   -0.197148
     61          6           0       15.474028    2.143970   -1.003655
     62          6           0       16.056009    3.489939   -0.649876
     63          6           0       17.386643    3.914379   -1.328975
     64          6           0       17.247714    3.961455   -2.879879
     65          6           0       17.896265    5.187365   -0.808119
     66          1           0       -2.770436    1.198886    3.571228
     67          1           0       -6.418896    5.571053    0.812610
     68          1           0       -8.784586    1.209757   -3.158833
     69          1           0       -3.574840   -3.009972    1.980908
     70          1           0       -1.893191   -0.940498    2.711595
     71          1           0       -2.575231   -2.659526    4.160851
     72          1           0       -2.993057   -1.110005    4.778221
     73          1           0       -4.528003   -2.076709    4.257554
     74          1           0       -2.175781   -3.413358   -0.187667
     75          1           0       -1.563040   -1.621028    0.527083
     76          1           0       -0.562181   -2.717064    2.205556
     77          1           0       -1.171499   -4.411461    2.079135
     78          1           0       -1.706926    3.856582    4.144787
     79          1           0       -3.051525    4.641363    4.961943
     80          1           0       -2.730362    2.721337    5.002168
     81          1           0       -5.465263    6.425488    2.611876
     82          1           0      -10.061847    2.881831   -3.275455
     83          1           0      -10.081085    4.589302   -3.033375
     84          1           0       -9.431155    4.136917   -5.466786
     85          1           0       -7.957054    4.876608   -4.475577
     86          1           0       -7.994585    3.120674   -4.675966
     87          1           0       -8.332564   -1.276973   -4.695168
     88          1           0       -8.426544   -2.722077   -3.916428
     89          1           0       -9.573465   -1.562311   -3.440217
     90          1           0       -4.145580   -3.648103   -1.645735
     91          1           0        2.395621   -6.127549    0.979344
     92          1           0        2.134494   -5.348389   -0.380133
     93          1           0        3.639688   -4.252807    2.092434
     94          1           0        2.409650   -3.236094   -1.398220
     95          1           0        3.545673   -2.021790   -1.347307
     96          1           0        4.236176   -3.511594   -1.966356
     97          1           0        4.773288   -1.418486    0.790345
     98          1           0        5.468294   -2.933920    1.798457
     99          1           0        6.715958   -3.788657   -0.268452
    100          1           0        6.410162   -2.196544   -1.092659
    101          1           0        7.425156   -0.609764    0.706979
    102          1           0        7.609983   -2.124484    1.772935
    103          1           0        8.894008   -1.509635   -1.155597
    104          1           0        8.651458   -3.989645   -0.472747
    105          1           0       10.529789   -3.572471   -0.593338
    106          1           0        9.693813   -3.944499    1.027545
    107          1           0        9.508849    0.004558    0.495104
    108          1           0       10.272515   -1.203457    1.551738
    109          1           0       11.823567   -1.864726   -0.128753
    110          1           0       11.181835   -0.564580   -1.537332
    111          1           0       11.686567    1.269901    0.177174
    112          1           0       12.473974    0.144482    1.416332
    113          1           0       13.131952    0.680617   -1.510890
    114          1           0       14.898887   -1.002717    0.574459
    115          1           0       14.065357   -1.746125   -0.573845
    116          1           0       15.414308   -0.700790   -1.168551
    117          1           0       13.680379    2.727765   -0.094696
    118          1           0       14.619023    1.700220    1.005102
    119          1           0       16.201193    1.383706   -1.014813
    120          1           0       15.378095    2.262834   -2.072113
    121          1           0       15.455989    4.310951   -0.845914
    122          1           0       16.571404    3.625184    0.497384
    123          1           0       18.045870    3.027942   -1.251417
    124          1           0       16.539475    4.977652   -3.128448
    125          1           0       18.180670    4.280046   -3.655561
    126          1           0       16.892251    3.036972   -3.317801
    127          1           0       18.206946    5.134346    0.298887
    128          1           0       18.683499    5.460524   -1.402565
    129          1           0       16.990821    5.904352   -0.930544
    130          1           0       -5.439896   -7.881471   -0.236907
    131          1           0       -6.383142   -6.521733    0.743193
    132          1           0       -4.686444   -7.113521    1.478590
    133          8           0       -7.761584    6.788336   -0.337399
    134          1           0       -9.034724    6.269674   -1.838527
 ---------------------------------------------------------------------

 SCF Done:  E(RCAM-B3LYP) =  -3043.42256289     A.U. after   15 cycles

 Excitation energies and oscillator strengths:

 Excited State   1:      Singlet-A      2.0669 eV  599.84 nm  f=0.1351  <S**2>=0.000
     243 -> 245       -0.32162
     243 -> 246       -0.27701
     244 -> 245        0.51555
     244 -> 246       -0.20938
 This state for optimization and/or second-order correction.
 Total Energy, E(TD-HF/TD-DFT) =  -3043.34660422
 Copying the excited state density for this state as the 1-particle RhoCI density.

 The electronic state is 1-A.
 Alpha  occ. eigenvalues --  -46.82106 -19.21469 -19.20897 -19.18331 -19.17918
 Alpha  occ. eigenvalues --  -19.17327 -19.17115 -19.16837 -14.38683 -14.37268
 Alpha  occ. eigenvalues --  -14.37163 -14.35862 -10.35826 -10.34896 -10.31725
 Alpha  occ. eigenvalues --  -10.30221 -10.29825 -10.28161 -10.27562 -10.27205
 Alpha  occ. eigenvalues --  -10.27011 -10.26996 -10.26821 -10.26572 -10.26036
 Alpha  occ. eigenvalues --  -10.25935 -10.25918 -10.25545 -10.25514 -10.25501
 Alpha  occ. eigenvalues --  -10.25064 -10.25015 -10.24667 -10.24475 -10.24431
 Alpha  occ. eigenvalues --  -10.24292 -10.24190 -10.23904 -10.23835 -10.23800
 Alpha  occ. eigenvalues --  -10.23788 -10.23737 -10.23509 -10.23472 -10.23343
 Alpha  occ. eigenvalues --  -10.23036 -10.22982 -10.22914 -10.22713 -10.22708
 Alpha  occ. eigenvalues --  -10.22701 -10.22598 -10.22525 -10.22182 -10.22135
 Alpha  occ. eigenvalues --  -10.21876 -10.21817 -10.21798 -10.21475 -10.21469
 Alpha  occ. eigenvalues --  -10.21297 -10.20682 -10.20574 -10.20357 -10.20038
 Alpha  occ. eigenvalues --  -10.19964  -3.10508  -1.85470  -1.84978  -1.84896
 Alpha  occ. eigenvalues --   -1.15408  -1.11797  -1.06629  -1.05983  -1.05397
 Alpha  occ. eigenvalues --   -1.04611  -1.04430  -1.01709  -1.00914  -1.00084
 Alpha  occ. eigenvalues --   -0.99436  -0.89560  -0.86512  -0.86239  -0.85767
 Alpha  occ. eigenvalues --   -0.85230  -0.85058  -0.84677  -0.84411  -0.84212
 Alpha  occ. eigenvalues --   -0.83856  -0.83295  -0.81826  -0.80366  -0.79867
 Alpha  occ. eigenvalues --   -0.79407  -0.78636  -0.78385  -0.77489  -0.76533
 Alpha  occ. eigenvalues --   -0.75784  -0.74532  -0.73791  -0.73280  -0.71669
 Alpha  occ. eigenvalues --   -0.71221  -0.70330  -0.70310  -0.70136  -0.69921
 Alpha  occ. eigenvalues --   -0.69279  -0.68848  -0.68427  -0.67686  -0.66869
 Alpha  occ. eigenvalues --   -0.66159  -0.65147  -0.64978  -0.62876  -0.62578
 Alpha  occ. eigenvalues --   -0.62254  -0.61072  -0.59797  -0.59335  -0.58310
 Alpha  occ. eigenvalues --   -0.58192  -0.58009  -0.57893  -0.57613  -0.57425
 Alpha  occ. eigenvalues --   -0.57106  -0.56796  -0.56318  -0.55689  -0.55177
 Alpha  occ. eigenvalues --   -0.54555  -0.54022  -0.53815  -0.53251  -0.52632
 Alpha  occ. eigenvalues --   -0.52337  -0.52146  -0.51329  -0.50485  -0.50188
 Alpha  occ. eigenvalues --   -0.50109  -0.49839  -0.49586  -0.49512  -0.49446
 Alpha  occ. eigenvalues --   -0.49352  -0.48882  -0.48854  -0.48433  -0.47841
 Alpha  occ. eigenvalues --   -0.47758  -0.47348  -0.47222  -0.47111  -0.47034
 Alpha  occ. eigenvalues --   -0.46805  -0.46549  -0.46346  -0.46202  -0.45877
 Alpha  occ. eigenvalues --   -0.45729  -0.45539  -0.45377  -0.45190  -0.44812
 Alpha  occ. eigenvalues --   -0.44504  -0.44466  -0.44268  -0.44111  -0.44018
 Alpha  occ. eigenvalues --   -0.43429  -0.43135  -0.43096  -0.42891  -0.42586
 Alpha  occ. eigenvalues --   -0.42548  -0.42268  -0.42090  -0.42023  -0.41776
 Alpha  occ. eigenvalues --   -0.41553  -0.41187  -0.41117  -0.41025  -0.40809
 Alpha  occ. eigenvalues --   -0.40759  -0.40420  -0.40405  -0.40337  -0.40063
 Alpha  occ. eigenvalues --   -0.39991  -0.39896  -0.39696  -0.39410  -0.39223
 Alpha  occ. eigenvalues --   -0.39068  -0.38714  -0.38595  -0.38230  -0.37964
 Alpha  occ. eigenvalues --   -0.37876  -0.37746  -0.37526  -0.37386  -0.36737
 Alpha  occ. eigenvalues --   -0.36507  -0.36096  -0.35984  -0.35958  -0.35794
 Alpha  occ. eigenvalues --   -0.35468  -0.35457  -0.35097  -0.34530  -0.34075
 Alpha  occ. eigenvalues --   -0.33900  -0.33140  -0.32920  -0.32411  -0.32264
 Alpha  occ. eigenvalues --   -0.32127  -0.32041  -0.31877  -0.31683  -0.31570
 Alpha  occ. eigenvalues --   -0.31319  -0.31109  -0.30683  -0.30137  -0.29970
 Alpha  occ. eigenvalues --   -0.29190  -0.28367  -0.28164  -0.28072  -0.27930
 Alpha  occ. eigenvalues --   -0.27799  -0.27690  -0.23227  -0.22841
 Alpha virt. eigenvalues --   -0.09569  -0.07693  -0.01915  -0.01734   0.00171
 Alpha virt. eigenvalues --    0.01527   0.02844   0.04149   0.04288   0.04892
 Alpha virt. eigenvalues --    0.05010   0.05439   0.07423   0.08125   0.08978

 Mulliken charges:
               1
     1  Mg   0.820772
     2  C   -0.008682
     3  C   -0.179939
     4  C   -0.174473
     5  C   -0.178902
     6  N   -0.649847
     7  C    0.307302
     8  C   -0.142463
     9  C   -0.190859
    10  C    0.407958
    11  C   -0.311176
    12  C   -0.147256
    13  C   -0.270977
    14  C    0.549974
    15  O   -0.426053
    16  O   -0.425827
    17  N   -0.696290
    18  C    0.279197
    19  C    0.108245
    20  C   -0.088493
    21  C    0.345030
    22  C   -0.406225
    23  C    0.282509
    24  O   -0.427993
    25  N   -0.715648
    26  C    0.290450
    27  C   -0.032587
    28  C    0.040271
    29  C    0.352326
    30  C    0.228937
    31  C   -0.240349
    32  C   -0.307031
    33  N   -0.743771
    34  C    0.272924
    35  C    0.039387
    36  C    0.033196
    37  C    0.389195
    38  C   -0.409308
    39  C    0.305047
    40  O   -0.471767
    41  C   -0.307038
    42  C    0.640927
    43  O   -0.463115
    44  O   -0.462471
    45  C   -0.061567
    46  C   -0.008357
    47  C   -0.134047
    48  C    0.123637
    49  C   -0.364032
    50  C   -0.213537
    51  C   -0.184881
    52  C   -0.156061
    53  C   -0.038274
    54  C   -0.310855
    55  C   -0.159402
    56  C   -0.170194
    57  C   -0.175665
    58  C   -0.023617
    59  C   -0.310083
    60  C   -0.156381
    61  C   -0.174299
    62  C   -0.144052
    63  C   -0.065726
    64  C   -0.294647
    65  C   -0.288370
    66  H    0.063736
    67  H    0.135040
    68  H    0.087704
    69  H    0.135597
    70  H    0.103643
    71  H    0.107200
    72  H    0.099831
    73  H    0.117299
    74  H    0.128941
    75  H    0.122378
    76  H    0.130871
    77  H    0.139192
    78  H    0.128981
    79  H    0.145616
    80  H    0.128746
    81  H    0.094667
    82  H    0.119867
    83  H    0.121024
    84  H    0.114793
    85  H    0.111992
    86  H    0.099872
    87  H    0.139717
    88  H    0.155987
    89  H    0.136777
    90  H    0.182052
    91  H    0.098617
    92  H    0.087898
    93  H    0.084433
    94  H    0.159464
    95  H    0.120371
    96  H    0.088456
    97  H    0.116562
    98  H    0.103697
    99  H    0.094232
   100  H    0.095325
   101  H    0.074279
   102  H    0.049915
   103  H    0.075195
   104  H    0.109198
   105  H    0.092684
   106  H    0.087988
   107  H    0.097325
   108  H    0.105101
   109  H    0.087054
   110  H    0.056488
   111  H    0.059437
   112  H    0.075941
   113  H    0.100274
   114  H    0.043534
   115  H    0.109720
   116  H    0.111955
   117  H    0.078582
   118  H    0.063603
   119  H    0.101812
   120  H    0.098307
   121  H    0.096973
   122  H    0.051529
   123  H    0.087211
   124  H    0.054814
   125  H    0.068871
   126  H    0.109983
   127  H    0.094601
   128  H    0.116395
   129  H    0.089004
   130  H    0.108546
   131  H    0.120167
   132  H    0.102474
   133  O   -0.456317
   134  H    0.072083
 Sum of Mulliken charges =  -0.00000

 Dipole moment (field-independent basis, Debye):
    X=             -0.0531    Y=             -2.3997    Z=             -1.4333  Tot=              2.7957
 Quadrupole moment (field-independent basis, Debye-Ang):
   XX=           -379.5139   YY=           -455.3878   ZZ=           -391.3400
   XY=             -5.2219   XZ=             24.7475   YZ=            -35.5909

 Normal termination of Gaussian 16 at Thu Oct  3 14:58:35 2019.
