 Gaussian 16, Revision A.03,
 Gaussian 16:  ES64L-G16RevA.03 25-Dec-2016

 ----------------------------------------------------------------------
 # td=(NStates=1) iop(3/107=0140000000,3/108=0140000000) iop(3/107=0140
 000000,3/108=0140000000) CAM-B3LYP/6-31G(d,p)
 ----------------------------------------------------------------------

 --
 TD
 --
 Symbolic Z-matrix:
 Charge =  0 Multiplicity = 1

                         Standard orientation:
 ---------------------------------------------------------------------
 Center     Atomic      Atomic             Coordinates (Angstroms)
 Number     Number       Type             X           Y           Z
 ---------------------------------------------------------------------
      1         12           0       -5.605074    1.196455    0.197425
      2          6           0       -5.101013   -2.095770   -0.252493
      3          6           0       -3.383519    1.078282    2.779802
      4          6           0       -6.099538    4.512832    0.668782
      5          6           0       -7.975554    1.254735   -2.344506
      6          7           0       -4.345240   -0.310515    1.079874
      7          6           0       -4.335855   -1.566292    0.704973
      8          6           0       -3.325150   -2.396233    1.450664
      9          6           0       -3.086880   -1.478243    2.734034
     10          6           0       -3.654418   -0.159046    2.202584
     11          6           0       -3.622443   -1.875142    3.989112
     12          6           0       -1.982064   -2.735398    0.654248
     13          6           0       -1.043775   -3.657171    1.390248
     14          6           0        0.207431   -3.814223    0.629801
     15          8           0        0.481396   -3.346893   -0.470047
     16          8           0        0.967565   -4.800567    1.208361
     17          7           0       -4.863753    2.576972    1.535194
     18          6           0       -3.950899    2.357667    2.483377
     19          6           0       -3.683409    3.571158    3.291691
     20          6           0       -4.468269    4.537987    2.639680
     21          6           0       -5.179146    3.932581    1.494893
     22          6           0       -2.719247    3.750353    4.350227
     23          6           0       -4.367271    5.985602    2.902946
     24          8           0       -3.687543    6.530828    3.772982
     25          7           0       -6.786437    2.653200   -0.715496
     26          6           0       -6.792780    3.972879   -0.377166
     27          6           0       -7.757405    4.721178   -1.259783
     28          6           0       -8.259733    3.730248   -2.060812
     29          6           0       -7.655703    2.453925   -1.781045
     30          6           0       -8.113649    6.110165   -1.190613
     31          6           0       -9.293938    3.969817   -3.159301
     32          6           0       -8.606218    4.255427   -4.479992
     33          7           0       -6.343758   -0.128371   -1.088051
     34          6           0       -7.324424    0.090620   -2.117421
     35          6           0       -7.618537   -1.217624   -2.729346
     36          6           0       -6.710779   -2.113881   -2.081157
     37          6           0       -5.944772   -1.422515   -1.135416
     38          6           0       -8.531412   -1.519014   -3.854707
     39          6           0       -6.317159   -3.585507   -2.035184
     40          8           0       -6.669450   -4.533184   -2.549398
     41          6           0       -5.187609   -3.501899   -0.886618
     42          6           0       -5.594093   -4.580095    0.127667
     43          8           0       -6.147870   -4.342506    1.258562
     44          8           0       -5.208342   -5.842686   -0.368852
     45          6           0       -5.606519   -6.866397    0.588335
     46          6           0        2.259104   -5.039719    0.435394
     47          6           0        3.367418   -4.060676    0.911244
     48          6           0        3.997992   -3.172557    0.067609
     49          6           0        3.591326   -3.025663   -1.362436
     50          6           0        5.116627   -2.281882    0.604580
     51          6           0        6.455395   -2.736976    0.162423
     52          6           0        7.562849   -1.787261    0.479758
     53          6           0        8.921096   -1.896499   -0.207616
     54          6           0        9.378978   -3.396978    0.104642
     55          6           0        9.970148   -0.900127    0.393173
     56          6           0       11.195355   -0.827584   -0.399247
     57          6           0       12.029248    0.359471    0.086296
     58          6           0       13.518122    0.457576   -0.739458
     59          6           0       14.429751   -0.745200   -0.380472
     60          6           0       14.310982    1.664828   -0.204388
     61          6           0       15.577296    1.913121   -0.952546
     62          6           0       16.167516    3.271025   -0.556793
     63          6           0       17.489879    3.669455   -1.219248
     64          6           0       17.308020    3.986751   -2.713543
     65          6           0       18.081252    4.959222   -0.543334
     66          1           0       -2.682750    1.276938    3.682249
     67          1           0       -6.133671    5.637428    0.877756
     68          1           0       -8.584729    1.233873   -3.114453
     69          1           0       -3.787767   -3.330618    1.602002
     70          1           0       -1.982609   -1.432059    2.730564
     71          1           0       -2.846225   -2.639576    4.385051
     72          1           0       -3.636403   -1.165342    4.897491
     73          1           0       -4.693482   -2.561594    4.078258
     74          1           0       -2.076033   -3.103715   -0.594949
     75          1           0       -1.558724   -1.647866    0.412022
     76          1           0       -0.856769   -3.375843    2.610456
     77          1           0       -1.408760   -4.824165    1.361037
     78          1           0       -1.666515    3.491802    4.038584
     79          1           0       -2.755816    4.836385    4.646451
     80          1           0       -2.672267    3.226070    5.266957
     81          1           0       -4.979011    6.663129    2.167102
     82          1           0       -9.802188    2.956380   -3.214663
     83          1           0       -9.928054    4.810611   -3.010605
     84          1           0       -9.334376    4.519068   -5.326760
     85          1           0       -8.021213    5.254860   -4.412107
     86          1           0       -7.895575    3.521314   -4.873360
     87          1           0       -7.992533   -1.122205   -4.865148
     88          1           0       -8.625669   -2.579860   -4.307057
     89          1           0       -9.614097   -1.254392   -3.664680
     90          1           0       -4.273634   -3.789655   -1.314701
     91          1           0        2.736354   -6.164231    0.833908
     92          1           0        1.965521   -5.139604   -0.640414
     93          1           0        3.801693   -4.129556    1.909963
     94          1           0        2.360244   -2.980726   -1.494334
     95          1           0        3.708366   -1.927858   -1.582777
     96          1           0        4.231521   -3.419281   -1.976376
     97          1           0        4.921618   -1.348958    0.303360
     98          1           0        5.031706   -2.289483    1.706535
     99          1           0        6.985959   -3.835979    0.514170
    100          1           0        6.539559   -2.855732   -0.944113
    101          1           0        7.256175   -0.781611    0.473386
    102          1           0        7.672827   -1.952437    1.653241
    103          1           0        8.916242   -1.962158   -1.263978
    104          1           0        8.774952   -4.267199   -0.419287
    105          1           0       10.370578   -3.525662   -0.229524
    106          1           0        9.426311   -3.589416    1.301028
    107          1           0        9.555328    0.136615    0.418020
    108          1           0       10.199515   -1.114687    1.323699
    109          1           0       11.973034   -1.739072   -0.504617
    110          1           0       11.189187   -0.588705   -1.682539
    111          1           0       11.486665    1.318843   -0.227058
    112          1           0       12.113005    0.504901    1.343345
    113          1           0       13.300021    0.442015   -1.812194
    114          1           0       14.385341   -0.881820    0.774127
    115          1           0       13.854152   -1.610077   -0.806636
    116          1           0       15.415457   -0.540783   -0.972047
    117          1           0       13.642278    2.402775   -0.274376
    118          1           0       14.649107    1.469699    0.878577
    119          1           0       16.568271    1.105692   -0.769936
    120          1           0       15.512068    2.065833   -2.193625
    121          1           0       15.374349    3.921021   -0.708139
    122          1           0       16.325594    3.360888    0.555165
    123          1           0       18.262781    2.930567   -1.126021
    124          1           0       16.403836    4.773194   -2.607248
    125          1           0       18.288520    4.347447   -3.209822
    126          1           0       16.833469    3.012606   -3.233830
    127          1           0       18.168284    4.737532    0.533172
    128          1           0       19.114298    5.114664   -0.976166
    129          1           0       17.436540    5.873553   -0.675285
    130          1           0       -5.336525   -7.772717   -0.065441
    131          1           0       -6.610743   -6.801717    0.757814
    132          1           0       -4.987840   -6.610704    1.542915
    133          8           0       -7.655484    6.930997   -0.398500
    134          1           0       -8.869350    6.378993   -1.979968
 ---------------------------------------------------------------------

 SCF Done:  E(RCAM-B3LYP) =  -3043.41905340     A.U. after   15 cycles

 Excitation energies and oscillator strengths:

 Excited State   1:      Singlet-A      2.1321 eV  581.52 nm  f=0.1686  <S**2>=0.000
     243 -> 246        0.29595
     244 -> 245        0.63299
 This state for optimization and/or second-order correction.
 Total Energy, E(TD-HF/TD-DFT) =  -3043.34070148
 Copying the excited state density for this state as the 1-particle RhoCI density.

 The electronic state is 1-A.
 Alpha  occ. eigenvalues --  -46.81267 -19.22791 -19.21914 -19.18792 -19.17902
 Alpha  occ. eigenvalues --  -19.17714 -19.17209 -19.17096 -14.38600 -14.37151
 Alpha  occ. eigenvalues --  -14.36751 -14.36106 -10.35705 -10.35349 -10.32102
 Alpha  occ. eigenvalues --  -10.30764 -10.30402 -10.29846 -10.27563 -10.27452
 Alpha  occ. eigenvalues --  -10.27203 -10.26781 -10.26456 -10.26453 -10.26452
 Alpha  occ. eigenvalues --  -10.26419 -10.26238 -10.25888 -10.25881 -10.25227
 Alpha  occ. eigenvalues --  -10.25168 -10.24980 -10.24647 -10.24473 -10.24334
 Alpha  occ. eigenvalues --  -10.24274 -10.23972 -10.23771 -10.23599 -10.23589
 Alpha  occ. eigenvalues --  -10.23572 -10.23460 -10.23368 -10.23158 -10.23098
 Alpha  occ. eigenvalues --  -10.23014 -10.22862 -10.22804 -10.22604 -10.22456
 Alpha  occ. eigenvalues --  -10.22439 -10.22277 -10.22158 -10.22149 -10.21797
 Alpha  occ. eigenvalues --  -10.21590 -10.21579 -10.21319 -10.21117 -10.21045
 Alpha  occ. eigenvalues --  -10.20787 -10.20692 -10.20649 -10.20435 -10.20237
 Alpha  occ. eigenvalues --  -10.20045  -3.09855  -1.84801  -1.84334  -1.84248
 Alpha  occ. eigenvalues --   -1.13062  -1.12066  -1.10713  -1.06057  -1.05978
 Alpha  occ. eigenvalues --   -1.03597  -1.02635  -1.02401  -0.99887  -0.99202
 Alpha  occ. eigenvalues --   -0.98168  -0.88572  -0.86353  -0.85976  -0.85799
 Alpha  occ. eigenvalues --   -0.85228  -0.84557  -0.84449  -0.84332  -0.83605
 Alpha  occ. eigenvalues --   -0.83117  -0.82565  -0.82243  -0.80831  -0.80300
 Alpha  occ. eigenvalues --   -0.78922  -0.77996  -0.77632  -0.76977  -0.76047
 Alpha  occ. eigenvalues --   -0.75318  -0.75181  -0.73851  -0.72912  -0.71903
 Alpha  occ. eigenvalues --   -0.71235  -0.69861  -0.69606  -0.69449  -0.69407
 Alpha  occ. eigenvalues --   -0.69162  -0.68452  -0.67485  -0.66295  -0.65913
 Alpha  occ. eigenvalues --   -0.65120  -0.63719  -0.63683  -0.62566  -0.61994
 Alpha  occ. eigenvalues --   -0.61761  -0.61318  -0.59537  -0.58846  -0.58778
 Alpha  occ. eigenvalues --   -0.58222  -0.57732  -0.57371  -0.57107  -0.56797
 Alpha  occ. eigenvalues --   -0.56567  -0.55742  -0.55318  -0.55209  -0.54889
 Alpha  occ. eigenvalues --   -0.54012  -0.53583  -0.52955  -0.52388  -0.52131
 Alpha  occ. eigenvalues --   -0.52047  -0.51562  -0.51052  -0.50601  -0.50537
 Alpha  occ. eigenvalues --   -0.50009  -0.49720  -0.49647  -0.49206  -0.48986
 Alpha  occ. eigenvalues --   -0.48816  -0.48677  -0.48507  -0.48105  -0.48000
 Alpha  occ. eigenvalues --   -0.47548  -0.47414  -0.47193  -0.47038  -0.46778
 Alpha  occ. eigenvalues --   -0.46678  -0.46521  -0.46232  -0.46132  -0.45939
 Alpha  occ. eigenvalues --   -0.45750  -0.45349  -0.45266  -0.45144  -0.44819
 Alpha  occ. eigenvalues --   -0.44423  -0.44412  -0.44156  -0.44048  -0.43600
 Alpha  occ. eigenvalues --   -0.43465  -0.43253  -0.43124  -0.43034  -0.42817
 Alpha  occ. eigenvalues --   -0.42625  -0.42430  -0.42337  -0.42232  -0.41860
 Alpha  occ. eigenvalues --   -0.41620  -0.41426  -0.41378  -0.41082  -0.41060
 Alpha  occ. eigenvalues --   -0.40688  -0.40646  -0.40500  -0.40343  -0.40005
 Alpha  occ. eigenvalues --   -0.39744  -0.39614  -0.39461  -0.39308  -0.39240
 Alpha  occ. eigenvalues --   -0.38931  -0.38617  -0.38577  -0.38128  -0.37574
 Alpha  occ. eigenvalues --   -0.37457  -0.37248  -0.36997  -0.36601  -0.36491
 Alpha  occ. eigenvalues --   -0.36231  -0.36134  -0.35954  -0.35934  -0.35619
 Alpha  occ. eigenvalues --   -0.35380  -0.34973  -0.34915  -0.34374  -0.34301
 Alpha  occ. eigenvalues --   -0.34097  -0.33985  -0.33814  -0.33105  -0.32635
 Alpha  occ. eigenvalues --   -0.32417  -0.32050  -0.31887  -0.31827  -0.31686
 Alpha  occ. eigenvalues --   -0.31121  -0.30864  -0.30826  -0.30337  -0.30304
 Alpha  occ. eigenvalues --   -0.28788  -0.28238  -0.28045  -0.27866  -0.27576
 Alpha  occ. eigenvalues --   -0.27412  -0.26726  -0.23024  -0.22031
 Alpha virt. eigenvalues --   -0.08485  -0.06428  -0.01355  -0.00985   0.00822
 Alpha virt. eigenvalues --    0.01952   0.02478   0.03816   0.03946   0.04087
 Alpha virt. eigenvalues --    0.05071   0.06367   0.07799   0.07923   0.08910

 Mulliken charges:
               1
     1  Mg   0.822153
     2  C    0.116775
     3  C   -0.194217
     4  C   -0.172011
     5  C   -0.114100
     6  N   -0.619223
     7  C    0.338520
     8  C   -0.156909
     9  C   -0.125314
    10  C    0.330361
    11  C   -0.304132
    12  C   -0.170995
    13  C   -0.251169
    14  C    0.637931
    15  O   -0.476973
    16  O   -0.486717
    17  N   -0.708953
    18  C    0.309936
    19  C    0.095313
    20  C   -0.056895
    21  C    0.317407
    22  C   -0.437570
    23  C    0.244770
    24  O   -0.423955
    25  N   -0.704878
    26  C    0.295392
    27  C    0.027208
    28  C   -0.011727
    29  C    0.318888
    30  C    0.242023
    31  C   -0.231340
    32  C   -0.312319
    33  N   -0.743578
    34  C    0.255965
    35  C    0.041229
    36  C   -0.028349
    37  C    0.277781
    38  C   -0.402297
    39  C    0.385808
    40  O   -0.374145
    41  C   -0.347946
    42  C    0.613156
    43  O   -0.499776
    44  O   -0.461613
    45  C   -0.078166
    46  C    0.005066
    47  C   -0.130585
    48  C    0.124071
    49  C   -0.388573
    50  C   -0.216195
    51  C   -0.162273
    52  C   -0.153849
    53  C   -0.061774
    54  C   -0.321431
    55  C   -0.154910
    56  C   -0.153211
    57  C   -0.180582
    58  C   -0.080301
    59  C   -0.293773
    60  C   -0.136618
    61  C   -0.161174
    62  C   -0.160427
    63  C   -0.060267
    64  C   -0.278273
    65  C   -0.306185
    66  H    0.077536
    67  H    0.132127
    68  H    0.077041
    69  H    0.116686
    70  H    0.116241
    71  H    0.094213
    72  H    0.118827
    73  H    0.110230
    74  H    0.099806
    75  H    0.108963
    76  H    0.123621
    77  H    0.142893
    78  H    0.124352
    79  H    0.169283
    80  H    0.135890
    81  H    0.073752
    82  H    0.102810
    83  H    0.120921
    84  H    0.101301
    85  H    0.101025
    86  H    0.117657
    87  H    0.119380
    88  H    0.142774
    89  H    0.129112
    90  H    0.152041
    91  H    0.084278
    92  H    0.145564
    93  H    0.085675
    94  H    0.152360
    95  H    0.091881
    96  H    0.130309
    97  H    0.114950
    98  H    0.097613
    99  H    0.074082
   100  H    0.085730
   101  H    0.083487
   102  H    0.063617
   103  H    0.098506
   104  H    0.092521
   105  H    0.106377
   106  H    0.077518
   107  H    0.094725
   108  H    0.116440
   109  H    0.087472
   110  H    0.048192
   111  H    0.086592
   112  H    0.053666
   113  H    0.089988
   114  H    0.097640
   115  H    0.084019
   116  H    0.105501
   117  H    0.096814
   118  H    0.093769
   119  H    0.060827
   120  H    0.061406
   121  H    0.095731
   122  H    0.075600
   123  H    0.089701
   124  H    0.082705
   125  H    0.097369
   126  H    0.080997
   127  H    0.097944
   128  H    0.092132
   129  H    0.097543
   130  H    0.121585
   131  H    0.150754
   132  H    0.120783
   133  O   -0.433158
   134  H    0.056221
 Sum of Mulliken charges =  -0.00000

 Dipole moment (field-independent basis, Debye):
    X=              1.7444    Y=             -4.5631    Z=             -1.7537  Tot=              5.1904
 Quadrupole moment (field-independent basis, Debye-Ang):
   XX=           -383.8663   YY=           -447.4896   ZZ=           -389.6473
   XY=             16.2786   XZ=             29.2188   YZ=            -27.4409

 Normal termination of Gaussian 16 at Tue Oct  8 22:19:28 2019.
