 Gaussian 16, Revision A.03,
 Gaussian 16:  ES64L-G16RevA.03 25-Dec-2016

 ----------------------------------------------------------------------
 # td=(NStates=1) iop(3/107=0140000000,3/108=0140000000) iop(3/107=0140
 000000,3/108=0140000000) CAM-B3LYP/6-31G(d,p)
 ----------------------------------------------------------------------

 --
 TD
 --
 Symbolic Z-matrix:
 Charge =  0 Multiplicity = 1

                         Standard orientation:
 ---------------------------------------------------------------------
 Center     Atomic      Atomic             Coordinates (Angstroms)
 Number     Number       Type             X           Y           Z
 ---------------------------------------------------------------------
      1         12           0       -5.619986    1.234225    0.287301
      2          6           0       -5.039797   -2.260858   -0.372811
      3          6           0       -3.416369    1.176324    2.687933
      4          6           0       -6.389975    4.496685    0.650640
      5          6           0       -8.056208    1.070537   -2.392878
      6          7           0       -4.458289   -0.431571    1.078831
      7          6           0       -4.314319   -1.722605    0.707021
      8          6           0       -3.147432   -2.322729    1.511353
      9          6           0       -2.953495   -1.367688    2.582143
     10          6           0       -3.677398   -0.101779    2.125928
     11          6           0       -3.607004   -1.761526    4.014441
     12          6           0       -1.956120   -2.626301    0.716625
     13          6           0       -0.937126   -3.502292    1.452254
     14          6           0        0.301441   -3.785601    0.628162
     15          8           0        0.479387   -3.218214   -0.359267
     16          8           0        1.082589   -4.755198    1.245595
     17          7           0       -5.052651    2.588025    1.517911
     18          6           0       -4.127194    2.379600    2.513685
     19          6           0       -3.887395    3.618514    3.125634
     20          6           0       -4.773314    4.565567    2.623994
     21          6           0       -5.497247    3.859995    1.572311
     22          6           0       -2.889328    3.915958    4.245818
     23          6           0       -4.985903    5.977611    3.001155
     24          8           0       -4.333617    6.474644    3.917965
     25          7           0       -6.850969    2.508111   -0.694856
     26          6           0       -7.037071    3.861147   -0.413110
     27          6           0       -8.077026    4.535043   -1.268101
     28          6           0       -8.477876    3.487800   -2.135712
     29          6           0       -7.789240    2.326965   -1.774707
     30          6           0       -8.365532    5.965983   -1.374294
     31          6           0       -9.373800    3.755228   -3.272298
     32          6           0       -8.691642    4.270672   -4.538086
     33          7           0       -6.299388   -0.133372   -1.147520
     34          6           0       -7.299399   -0.067217   -2.170144
     35          6           0       -7.430424   -1.413106   -2.762007
     36          6           0       -6.559043   -2.244742   -2.119941
     37          6           0       -5.942266   -1.398853   -1.113951
     38          6           0       -8.434405   -1.618956   -3.853445
     39          6           0       -6.103865   -3.577233   -1.998731
     40          8           0       -6.462107   -4.585823   -2.608882
     41          6           0       -5.042369   -3.572204   -0.824256
     42          6           0       -5.300383   -4.690953    0.179916
     43          8           0       -5.607551   -4.433419    1.308052
     44          8           0       -4.919637   -5.832674   -0.223706
     45          6           0       -5.051199   -7.021240    0.531520
     46          6           0        2.354308   -4.977933    0.624820
     47          6           0        3.388431   -4.058621    0.959280
     48          6           0        3.988781   -3.151032    0.129290
     49          6           0        3.864003   -3.031853   -1.363444
     50          6           0        5.120310   -2.304070    0.569924
     51          6           0        6.468800   -2.584153   -0.008610
     52          6           0        7.645809   -1.779852    0.668140
     53          6           0        9.046725   -1.879615   -0.154114
     54          6           0        9.613562   -3.330229    0.008144
     55          6           0        9.995702   -0.815751    0.442557
     56          6           0       11.417324   -0.805407   -0.323027
     57          6           0       12.284235    0.370833    0.167253
     58          6           0       13.696451    0.364607   -0.587321
     59          6           0       14.543835   -0.868996   -0.374188
     60          6           0       14.317023    1.656225   -0.189743
     61          6           0       15.514036    2.044586   -0.907968
     62          6           0       16.046609    3.526040   -0.645157
     63          6           0       17.415996    3.948951   -1.275026
     64          6           0       17.289425    4.243009   -2.800149
     65          6           0       17.898271    5.273009   -0.486028
     66          1           0       -2.766646    1.249054    3.584369
     67          1           0       -6.553654    5.613547    0.788654
     68          1           0       -8.595173    1.033719   -3.255010
     69          1           0       -3.617264   -3.238521    1.930545
     70          1           0       -1.948041   -1.008945    2.841364
     71          1           0       -3.271178   -2.731240    4.490688
     72          1           0       -3.745726   -0.835868    4.672606
     73          1           0       -4.629852   -1.919523    3.775428
     74          1           0       -2.183284   -3.362012   -0.339739
     75          1           0       -1.264329   -1.827144    0.358828
     76          1           0       -0.698506   -3.145339    2.408927
     77          1           0       -1.242570   -4.583302    1.662980
     78          1           0       -1.995316    3.426465    3.925083
     79          1           0       -2.802825    4.949402    4.563960
     80          1           0       -3.156306    3.527610    5.386214
     81          1           0       -5.629126    6.675462    2.279415
     82          1           0       -9.775819    2.787010   -3.605097
     83          1           0      -10.241739    4.333139   -3.052079
     84          1           0       -9.482121    4.317868   -5.330141
     85          1           0       -8.074891    5.232939   -4.273074
     86          1           0       -7.795608    3.461243   -4.875822
     87          1           0       -8.300519   -0.808660   -4.738208
     88          1           0       -8.436763   -2.667252   -4.356396
     89          1           0       -9.504419   -1.362912   -3.659925
     90          1           0       -4.107756   -3.919035   -1.332016
     91          1           0        2.537542   -5.945585    0.910579
     92          1           0        2.328303   -5.083669   -0.443869
     93          1           0        3.786776   -3.886256    1.835857
     94          1           0        2.962069   -3.629478   -1.764378
     95          1           0        3.863142   -2.002322   -1.554807
     96          1           0        4.885199   -3.403324   -1.829166
     97          1           0        4.753299   -1.262975    0.419820
     98          1           0        4.926042   -2.187939    1.780241
     99          1           0        6.818200   -3.497504    0.213232
    100          1           0        6.383624   -2.426053   -1.065987
    101          1           0        7.396429   -0.663564    0.551490
    102          1           0        7.724520   -2.069281    1.768122
    103          1           0        8.801423   -1.436419   -1.235921
    104          1           0        8.739756   -3.957280   -0.528960
    105          1           0       10.607310   -3.675779   -0.668957
    106          1           0        9.624686   -3.542809    1.037396
    107          1           0        9.686031    0.240827    0.273034
    108          1           0       10.183368   -1.006524    1.597583
    109          1           0       11.854580   -1.684059   -0.212620
    110          1           0       11.144636   -0.767440   -1.305303
    111          1           0       11.872242    1.270703    0.062958
    112          1           0       12.545236    0.202070    1.250566
    113          1           0       13.448632    0.298990   -1.740873
    114          1           0       14.739954   -0.800996    0.606318
    115          1           0       13.933615   -1.713877   -0.641171
    116          1           0       15.441969   -1.066278   -1.184377
    117          1           0       13.695975    2.489302   -0.250795
    118          1           0       14.730567    1.605856    0.999949
    119          1           0       16.212249    1.366114   -0.887087
    120          1           0       15.359035    2.007062   -2.004188
    121          1           0       15.457837    4.131958   -1.223404
    122          1           0       16.022710    3.769780    0.400434
    123          1           0       18.070374    3.290162   -1.156981
    124          1           0       16.552046    4.905613   -3.164907
    125          1           0       18.287036    4.566388   -3.198871
    126          1           0       16.978076    3.298070   -3.013666
    127          1           0       17.869478    4.974998    0.608644
    128          1           0       18.895489    5.508928   -0.808632
    129          1           0       17.242369    6.175766   -0.654515
    130          1           0       -4.357620   -7.816057    0.144585
    131          1           0       -6.200561   -7.342470    0.356715
    132          1           0       -4.892039   -6.796182    1.622655
    133          8           0       -7.902373    6.765969   -0.522142
    134          1           0       -9.196267    6.227532   -2.185543
 ---------------------------------------------------------------------

 SCF Done:  E(RCAM-B3LYP) =  -3043.47354928     A.U. after   15 cycles

 Excitation energies and oscillator strengths:

 Excited State   1:      Singlet-A      1.9865 eV  624.15 nm  f=0.1527  <S**2>=0.000
     243 -> 246       -0.28430
     244 -> 245        0.63817
 This state for optimization and/or second-order correction.
 Total Energy, E(TD-HF/TD-DFT) =  -3043.40054839
 Copying the excited state density for this state as the 1-particle RhoCI density.

 The electronic state is 1-A.
 Alpha  occ. eigenvalues --  -46.81045 -19.23575 -19.21745 -19.17904 -19.17279
 Alpha  occ. eigenvalues --  -19.17009 -19.16776 -19.16260 -14.38798 -14.37460
 Alpha  occ. eigenvalues --  -14.36952 -14.36410 -10.34862 -10.34345 -10.31527
 Alpha  occ. eigenvalues --  -10.31045 -10.30974 -10.29918 -10.27891 -10.27523
 Alpha  occ. eigenvalues --  -10.26559 -10.26461 -10.26439 -10.26282 -10.26279
 Alpha  occ. eigenvalues --  -10.26185 -10.25924 -10.25857 -10.24556 -10.24527
 Alpha  occ. eigenvalues --  -10.24509 -10.24143 -10.23996 -10.23962 -10.23943
 Alpha  occ. eigenvalues --  -10.23931 -10.23792 -10.23647 -10.23646 -10.23520
 Alpha  occ. eigenvalues --  -10.23493 -10.23348 -10.23181 -10.23070 -10.22910
 Alpha  occ. eigenvalues --  -10.22809 -10.22790 -10.22727 -10.22637 -10.22610
 Alpha  occ. eigenvalues --  -10.22136 -10.21958 -10.21855 -10.21720 -10.21699
 Alpha  occ. eigenvalues --  -10.20977 -10.20572 -10.20307 -10.20219 -10.20148
 Alpha  occ. eigenvalues --  -10.20115 -10.19645 -10.19358 -10.18862 -10.18822
 Alpha  occ. eigenvalues --  -10.18540  -3.09803  -1.84720  -1.84281  -1.84227
 Alpha  occ. eigenvalues --   -1.17082  -1.14250  -1.07023  -1.06057  -1.05974
 Alpha  occ. eigenvalues --   -1.05920  -1.04808  -1.01238  -1.00179  -0.99699
 Alpha  occ. eigenvalues --   -0.97408  -0.89669  -0.86985  -0.86502  -0.85932
 Alpha  occ. eigenvalues --   -0.85758  -0.84424  -0.83768  -0.83558  -0.83167
 Alpha  occ. eigenvalues --   -0.82909  -0.82420  -0.81742  -0.80783  -0.80026
 Alpha  occ. eigenvalues --   -0.79075  -0.78487  -0.78274  -0.77558  -0.76875
 Alpha  occ. eigenvalues --   -0.75335  -0.74526  -0.73957  -0.73404  -0.71955
 Alpha  occ. eigenvalues --   -0.71367  -0.71169  -0.70696  -0.69671  -0.69547
 Alpha  occ. eigenvalues --   -0.69333  -0.69071  -0.67351  -0.66539  -0.65811
 Alpha  occ. eigenvalues --   -0.65691  -0.65445  -0.64007  -0.63089  -0.62099
 Alpha  occ. eigenvalues --   -0.61820  -0.61476  -0.61253  -0.60523  -0.59498
 Alpha  occ. eigenvalues --   -0.58962  -0.58317  -0.57368  -0.57213  -0.57103
 Alpha  occ. eigenvalues --   -0.56541  -0.56230  -0.55606  -0.55430  -0.54707
 Alpha  occ. eigenvalues --   -0.54358  -0.54046  -0.53305  -0.52724  -0.52221
 Alpha  occ. eigenvalues --   -0.51934  -0.51552  -0.51534  -0.51326  -0.51117
 Alpha  occ. eigenvalues --   -0.50706  -0.50220  -0.50106  -0.49390  -0.49173
 Alpha  occ. eigenvalues --   -0.48931  -0.48714  -0.48628  -0.48381  -0.47652
 Alpha  occ. eigenvalues --   -0.47557  -0.47483  -0.47067  -0.46882  -0.46866
 Alpha  occ. eigenvalues --   -0.46473  -0.46226  -0.46022  -0.45816  -0.45773
 Alpha  occ. eigenvalues --   -0.45613  -0.45540  -0.45253  -0.45155  -0.44953
 Alpha  occ. eigenvalues --   -0.44789  -0.44395  -0.44245  -0.44093  -0.43997
 Alpha  occ. eigenvalues --   -0.43937  -0.43660  -0.43366  -0.43031  -0.42921
 Alpha  occ. eigenvalues --   -0.42489  -0.42195  -0.41732  -0.41566  -0.41512
 Alpha  occ. eigenvalues --   -0.41429  -0.41254  -0.41126  -0.41020  -0.41015
 Alpha  occ. eigenvalues --   -0.40822  -0.40696  -0.40613  -0.40492  -0.40204
 Alpha  occ. eigenvalues --   -0.39995  -0.39801  -0.39501  -0.39477  -0.39189
 Alpha  occ. eigenvalues --   -0.39064  -0.39023  -0.38492  -0.38329  -0.38242
 Alpha  occ. eigenvalues --   -0.37904  -0.37763  -0.37588  -0.37508  -0.37303
 Alpha  occ. eigenvalues --   -0.37136  -0.36495  -0.36051  -0.35800  -0.35628
 Alpha  occ. eigenvalues --   -0.35504  -0.35258  -0.35132  -0.34576  -0.34549
 Alpha  occ. eigenvalues --   -0.34546  -0.34316  -0.33928  -0.33657  -0.33419
 Alpha  occ. eigenvalues --   -0.33108  -0.32861  -0.32424  -0.32123  -0.31311
 Alpha  occ. eigenvalues --   -0.31283  -0.30861  -0.30679  -0.29451  -0.29375
 Alpha  occ. eigenvalues --   -0.28951  -0.28192  -0.27986  -0.27672  -0.27526
 Alpha  occ. eigenvalues --   -0.27481  -0.27088  -0.22821  -0.21573
 Alpha virt. eigenvalues --   -0.08657  -0.06945  -0.01769  -0.01093   0.00556
 Alpha virt. eigenvalues --    0.03189   0.03788   0.03827   0.04382   0.04930
 Alpha virt. eigenvalues --    0.05421   0.05447   0.07629   0.08386   0.09166

 Mulliken charges:
               1
     1  Mg   0.838113
     2  C    0.112414
     3  C   -0.193455
     4  C   -0.177166
     5  C   -0.143623
     6  N   -0.625676
     7  C    0.302285
     8  C   -0.129843
     9  C   -0.156778
    10  C    0.340329
    11  C   -0.331624
    12  C   -0.155166
    13  C   -0.277883
    14  C    0.601981
    15  O   -0.413969
    16  O   -0.488937
    17  N   -0.759790
    18  C    0.329419
    19  C    0.022667
    20  C   -0.016581
    21  C    0.316314
    22  C   -0.374774
    23  C    0.230771
    24  O   -0.413295
    25  N   -0.674569
    26  C    0.282356
    27  C    0.000383
    28  C    0.049833
    29  C    0.272355
    30  C    0.230858
    31  C   -0.265227
    32  C   -0.284944
    33  N   -0.714577
    34  C    0.239411
    35  C    0.038271
    36  C    0.092768
    37  C    0.333375
    38  C   -0.405350
    39  C    0.324226
    40  O   -0.471645
    41  C   -0.375520
    42  C    0.609250
    43  O   -0.476407
    44  O   -0.391983
    45  C   -0.098376
    46  C    0.006456
    47  C   -0.075042
    48  C    0.112758
    49  C   -0.358503
    50  C   -0.240340
    51  C   -0.157124
    52  C   -0.193228
    53  C   -0.057940
    54  C   -0.294138
    55  C   -0.171252
    56  C   -0.184286
    57  C   -0.166121
    58  C   -0.066830
    59  C   -0.295805
    60  C   -0.139401
    61  C   -0.185863
    62  C   -0.185724
    63  C   -0.056814
    64  C   -0.322241
    65  C   -0.319181
    66  H    0.092676
    67  H    0.139906
    68  H    0.081728
    69  H    0.136938
    70  H    0.110081
    71  H    0.114261
    72  H    0.109266
    73  H    0.134169
    74  H    0.066837
    75  H    0.133107
    76  H    0.137485
    77  H    0.117880
    78  H    0.115001
    79  H    0.165993
    80  H    0.093366
    81  H    0.087692
    82  H    0.103518
    83  H    0.124851
    84  H    0.116876
    85  H    0.106839
    86  H    0.083300
    87  H    0.105969
    88  H    0.139850
    89  H    0.136313
    90  H    0.160601
    91  H    0.112710
    92  H    0.110231
    93  H    0.055286
    94  H    0.116579
    95  H    0.124376
    96  H    0.105557
    97  H    0.105728
    98  H    0.061362
    99  H    0.118162
   100  H    0.102516
   101  H    0.084250
   102  H    0.092732
   103  H    0.072145
   104  H    0.086729
   105  H    0.086305
   106  H    0.122950
   107  H    0.087118
   108  H    0.066250
   109  H    0.103456
   110  H    0.093947
   111  H    0.100357
   112  H    0.083148
   113  H    0.060453
   114  H    0.112105
   115  H    0.106746
   116  H    0.082653
   117  H    0.096303
   118  H    0.043424
   119  H    0.098925
   120  H    0.071756
   121  H    0.106760
   122  H    0.086546
   123  H    0.095481
   124  H    0.105771
   125  H    0.093679
   126  H    0.112310
   127  H    0.088657
   128  H    0.098552
   129  H    0.097075
   130  H    0.137227
   131  H    0.124457
   132  H    0.139910
   133  O   -0.436148
   134  H    0.071364
 Sum of Mulliken charges =  -0.00000

 Dipole moment (field-independent basis, Debye):
    X=              2.2780    Y=             -5.8123    Z=             -2.0149  Tot=              6.5599
 Quadrupole moment (field-independent basis, Debye-Ang):
   XX=           -380.9735   YY=           -431.5008   ZZ=           -396.2746
   XY=              3.0961   XZ=             21.1763   YZ=            -32.6516

 Normal termination of Gaussian 16 at Fri Oct  4 19:30:46 2019.
