 Gaussian 16, Revision A.03,
 Gaussian 16:  ES64L-G16RevA.03 25-Dec-2016

 ----------------------------------------------------------------------
 # td=(NStates=1) iop(3/107=0140000000,3/108=0140000000) iop(3/107=0140
 000000,3/108=0140000000) CAM-B3LYP/6-31G(d,p)
 ----------------------------------------------------------------------

 --
 TD
 --
 Symbolic Z-matrix:
 Charge =  0 Multiplicity = 1

                         Standard orientation:
 ---------------------------------------------------------------------
 Center     Atomic      Atomic             Coordinates (Angstroms)
 Number     Number       Type             X           Y           Z
 ---------------------------------------------------------------------
      1         12           0       -5.547243    1.304868    0.114387
      2          6           0       -4.987300   -2.096705   -0.349268
      3          6           0       -3.560520    1.238612    2.869404
      4          6           0       -6.077271    4.577624    0.546606
      5          6           0       -7.982456    1.182291   -2.344199
      6          7           0       -4.392924   -0.288682    1.166758
      7          6           0       -4.322940   -1.625888    0.771838
      8          6           0       -3.262002   -2.425682    1.572696
      9          6           0       -2.948445   -1.391028    2.780764
     10          6           0       -3.597911   -0.065685    2.232916
     11          6           0       -3.541682   -1.827612    4.114177
     12          6           0       -2.039273   -2.716907    0.826661
     13          6           0       -1.002078   -3.641018    1.573264
     14          6           0        0.155345   -3.987863    0.638272
     15          8           0        0.303239   -3.651947   -0.558075
     16          8           0        0.957110   -4.764451    1.374824
     17          7           0       -4.875858    2.694582    1.535457
     18          6           0       -4.001831    2.435104    2.518892
     19          6           0       -3.635096    3.682806    3.159245
     20          6           0       -4.326900    4.721279    2.417355
     21          6           0       -5.139112    4.014385    1.482073
     22          6           0       -2.787501    3.858786    4.400326
     23          6           0       -4.501401    6.143753    2.915013
     24          8           0       -4.007816    6.639271    3.896771
     25          7           0       -6.864363    2.621479   -0.727982
     26          6           0       -6.913073    3.921494   -0.416486
     27          6           0       -7.892861    4.553393   -1.226644
     28          6           0       -8.418273    3.715009   -1.987051
     29          6           0       -7.685637    2.347099   -1.715369
     30          6           0       -8.272768    6.059664   -1.287700
     31          6           0       -9.387856    3.954606   -3.206308
     32          6           0       -8.635867    4.049771   -4.510587
     33          7           0       -6.287424   -0.074181   -1.080616
     34          6           0       -7.263343   -0.080411   -2.088494
     35          6           0       -7.511001   -1.289443   -2.694743
     36          6           0       -6.638456   -2.149211   -2.086481
     37          6           0       -5.886353   -1.350655   -1.092401
     38          6           0       -8.409694   -1.606109   -3.901260
     39          6           0       -6.092327   -3.506324   -2.102323
     40          8           0       -6.486300   -4.502561   -2.686079
     41          6           0       -5.000696   -3.542873   -0.858091
     42          6           0       -5.335038   -4.567141    0.052135
     43          8           0       -5.854256   -4.269796    1.191110
     44          8           0       -5.091215   -5.777074   -0.306123
     45          6           0       -5.467406   -6.903838    0.622343
     46          6           0        2.228315   -5.223713    0.716392
     47          6           0        3.376393   -4.211914    0.951711
     48          6           0        3.970684   -3.327748    0.047380
     49          6           0        3.769663   -3.333628   -1.455258
     50          6           0        5.189198   -2.543814    0.520426
     51          6           0        6.541704   -2.818711   -0.112224
     52          6           0        7.586748   -1.895605    0.604514
     53          6           0        8.938536   -2.060340   -0.093172
     54          6           0        9.489726   -3.526454    0.225114
     55          6           0        9.891481   -0.917802    0.344217
     56          6           0       11.314524   -0.909871   -0.400122
     57          6           0       12.231875    0.341050    0.034118
     58          6           0       13.510194    0.643290   -0.634170
     59          6           0       14.359031   -0.724271   -0.544542
     60          6           0       14.281610    1.806992   -0.278569
     61          6           0       15.518934    2.171129   -0.969948
     62          6           0       15.994379    3.630900   -0.615993
     63          6           0       17.384673    3.947836   -1.160080
     64          6           0       17.169101    3.946012   -2.647485
     65          6           0       17.862832    5.217441   -0.531367
     66          1           0       -2.584965    1.016474    3.717732
     67          1           0       -6.418050    5.636751    0.668228
     68          1           0       -8.845684    1.165200   -3.065766
     69          1           0       -3.698440   -3.375417    1.934420
     70          1           0       -1.927813   -1.042441    2.812105
     71          1           0       -3.025613   -2.591188    4.618824
     72          1           0       -4.000603   -0.913800    4.662558
     73          1           0       -4.517050   -2.360623    3.578999
     74          1           0       -2.138304   -3.081928   -0.272476
     75          1           0       -1.419882   -1.792569    0.595619
     76          1           0       -0.672511   -3.429557    2.562527
     77          1           0       -1.492044   -4.680493    1.653951
     78          1           0       -1.667706    3.424663    4.177952
     79          1           0       -2.821535    5.002290    4.604632
     80          1           0       -3.216406    3.290807    5.119985
     81          1           0       -5.123136    6.577752    2.345073
     82          1           0      -10.068983    3.081291   -3.477834
     83          1           0       -9.916410    4.910091   -3.121943
     84          1           0       -9.483419    4.135872   -5.259306
     85          1           0       -8.097699    5.021102   -4.446900
     86          1           0       -8.153078    3.175892   -4.923236
     87          1           0       -8.135163   -1.046609   -4.794647
     88          1           0       -8.459005   -2.687177   -3.990491
     89          1           0       -9.408064   -1.357871   -3.565709
     90          1           0       -4.367427   -4.054731   -1.428384
     91          1           0        2.505521   -6.151663    1.401100
     92          1           0        2.069425   -5.297216   -0.346761
     93          1           0        3.708091   -4.350465    1.891224
     94          1           0        2.696876   -3.680402   -1.447864
     95          1           0        3.751128   -2.289357   -1.913297
     96          1           0        4.167535   -4.168061   -2.215577
     97          1           0        5.007379   -1.437700    0.314704
     98          1           0        5.224034   -2.472991    1.441755
     99          1           0        6.799324   -3.840776    0.031975
    100          1           0        6.526319   -2.514972   -1.211836
    101          1           0        7.320272   -0.892293    0.436533
    102          1           0        7.464059   -1.836811    1.688133
    103          1           0        8.569931   -2.200472   -1.256526
    104          1           0        8.757576   -4.230593    0.074259
    105          1           0       10.317934   -3.643444   -0.489952
    106          1           0        9.771294   -3.624645    1.293466
    107          1           0        9.435932    0.164632    0.157528
    108          1           0        9.842896   -0.768523    1.426780
    109          1           0       11.744082   -1.950024   -0.480360
    110          1           0       11.079539   -0.778627   -1.530731
    111          1           0       11.658456    1.373561    0.032239
    112          1           0       12.244723    0.234473    1.332598
    113          1           0       13.262371    0.861462   -1.690351
    114          1           0       14.584755   -0.979369    0.585384
    115          1           0       13.733638   -1.548201   -0.959415
    116          1           0       15.448205   -0.803927   -1.227904
    117          1           0       13.650058    2.658431   -0.316119
    118          1           0       14.461448    1.878288    0.852836
    119          1           0       16.314787    1.444863   -0.606160
    120          1           0       15.538420    2.155778   -2.238427
    121          1           0       15.029153    4.311052   -0.901459
    122          1           0       16.109451    3.648390    0.404820
    123          1           0       18.136935    3.016675   -0.772220
    124          1           0       16.333412    4.496364   -3.010694
    125          1           0       18.065186    4.451683   -3.202692
    126          1           0       17.017066    2.904171   -2.949105
    127          1           0       17.974078    5.278086    0.503575
    128          1           0       18.748552    5.534882   -1.006508
    129          1           0       17.214806    6.081148   -0.915012
    130          1           0       -5.121426   -7.911557    0.280734
    131          1           0       -6.623113   -6.923617    0.609960
    132          1           0       -5.034924   -6.780249    1.518825
    133          8           0       -7.650388    6.925335   -0.625234
    134          1           0       -9.141752    6.084862   -1.985978
 ---------------------------------------------------------------------

 SCF Done:  E(RCAM-B3LYP) =  -3043.38554471     A.U. after   16 cycles

 Excitation energies and oscillator strengths:

 Excited State   1:      Singlet-A      2.0271 eV  611.62 nm  f=0.2477  <S**2>=0.000
     243 -> 246       -0.21831
     243 -> 247        0.10397
     244 -> 245        0.66402
 This state for optimization and/or second-order correction.
 Total Energy, E(TD-HF/TD-DFT) =  -3043.31104868
 Copying the excited state density for this state as the 1-particle RhoCI density.

 The electronic state is 1-A.
 Alpha  occ. eigenvalues --  -46.82028 -19.23364 -19.22692 -19.19654 -19.17296
 Alpha  occ. eigenvalues --  -19.17233 -19.17214 -19.13899 -14.39191 -14.36796
 Alpha  occ. eigenvalues --  -14.36772 -14.36109 -10.35158 -10.33540 -10.33024
 Alpha  occ. eigenvalues --  -10.31620 -10.29086 -10.28969 -10.28539 -10.27931
 Alpha  occ. eigenvalues --  -10.26987 -10.26552 -10.26385 -10.26040 -10.25777
 Alpha  occ. eigenvalues --  -10.25568 -10.25292 -10.24846 -10.24575 -10.24572
 Alpha  occ. eigenvalues --  -10.24525 -10.24455 -10.24217 -10.24141 -10.24124
 Alpha  occ. eigenvalues --  -10.23996 -10.23902 -10.23828 -10.23648 -10.23462
 Alpha  occ. eigenvalues --  -10.23423 -10.23314 -10.23114 -10.23103 -10.23085
 Alpha  occ. eigenvalues --  -10.22815 -10.22753 -10.22540 -10.22536 -10.22487
 Alpha  occ. eigenvalues --  -10.22486 -10.22345 -10.22044 -10.22011 -10.21980
 Alpha  occ. eigenvalues --  -10.21933 -10.21863 -10.21829 -10.21522 -10.20713
 Alpha  occ. eigenvalues --  -10.20276 -10.20219 -10.19980 -10.19903 -10.19853
 Alpha  occ. eigenvalues --  -10.19436  -3.10541  -1.85476  -1.85015  -1.84944
 Alpha  occ. eigenvalues --   -1.13839  -1.12309  -1.07344  -1.06753  -1.06563
 Alpha  occ. eigenvalues --   -1.03205  -1.02005  -1.00383  -1.00225  -0.99788
 Alpha  occ. eigenvalues --   -0.98500  -0.87926  -0.86261  -0.86150  -0.85839
 Alpha  occ. eigenvalues --   -0.85170  -0.84567  -0.84159  -0.83779  -0.83481
 Alpha  occ. eigenvalues --   -0.83040  -0.81897  -0.81318  -0.80621  -0.80245
 Alpha  occ. eigenvalues --   -0.79452  -0.78478  -0.77678  -0.77130  -0.76087
 Alpha  occ. eigenvalues --   -0.74611  -0.74544  -0.74092  -0.73709  -0.72132
 Alpha  occ. eigenvalues --   -0.72019  -0.71462  -0.70129  -0.69495  -0.69009
 Alpha  occ. eigenvalues --   -0.68803  -0.68140  -0.68080  -0.67593  -0.66002
 Alpha  occ. eigenvalues --   -0.65826  -0.64892  -0.64389  -0.63015  -0.62029
 Alpha  occ. eigenvalues --   -0.61592  -0.60936  -0.60745  -0.59183  -0.59166
 Alpha  occ. eigenvalues --   -0.58440  -0.57952  -0.57733  -0.57512  -0.57078
 Alpha  occ. eigenvalues --   -0.56789  -0.55895  -0.55577  -0.55136  -0.54461
 Alpha  occ. eigenvalues --   -0.53650  -0.53425  -0.52353  -0.52239  -0.51985
 Alpha  occ. eigenvalues --   -0.51442  -0.51127  -0.50750  -0.50454  -0.50219
 Alpha  occ. eigenvalues --   -0.50162  -0.49987  -0.49233  -0.49116  -0.48936
 Alpha  occ. eigenvalues --   -0.48741  -0.48475  -0.48339  -0.48183  -0.47979
 Alpha  occ. eigenvalues --   -0.47640  -0.47361  -0.47092  -0.46912  -0.46853
 Alpha  occ. eigenvalues --   -0.46638  -0.46324  -0.46255  -0.45789  -0.45732
 Alpha  occ. eigenvalues --   -0.45621  -0.45259  -0.45167  -0.44619  -0.44542
 Alpha  occ. eigenvalues --   -0.44469  -0.44049  -0.43750  -0.43639  -0.43470
 Alpha  occ. eigenvalues --   -0.43066  -0.42952  -0.42883  -0.42738  -0.42656
 Alpha  occ. eigenvalues --   -0.42562  -0.42187  -0.41952  -0.41893  -0.41825
 Alpha  occ. eigenvalues --   -0.41626  -0.41398  -0.40993  -0.40909  -0.40706
 Alpha  occ. eigenvalues --   -0.40387  -0.40285  -0.40149  -0.40013  -0.39978
 Alpha  occ. eigenvalues --   -0.39880  -0.39644  -0.39380  -0.39257  -0.39077
 Alpha  occ. eigenvalues --   -0.38995  -0.38774  -0.38189  -0.38170  -0.38089
 Alpha  occ. eigenvalues --   -0.37858  -0.37675  -0.37634  -0.37266  -0.36884
 Alpha  occ. eigenvalues --   -0.36793  -0.36157  -0.35788  -0.35378  -0.35341
 Alpha  occ. eigenvalues --   -0.34877  -0.34726  -0.34628  -0.34337  -0.34320
 Alpha  occ. eigenvalues --   -0.34073  -0.33757  -0.33464  -0.32982  -0.32385
 Alpha  occ. eigenvalues --   -0.32245  -0.32082  -0.32014  -0.31900  -0.31736
 Alpha  occ. eigenvalues --   -0.31549  -0.30925  -0.30547  -0.30336  -0.29779
 Alpha  occ. eigenvalues --   -0.29170  -0.28640  -0.27903  -0.27834  -0.27115
 Alpha  occ. eigenvalues --   -0.26990  -0.26822  -0.22462  -0.21000
 Alpha virt. eigenvalues --   -0.08343  -0.05041  -0.02164  -0.01328   0.00722
 Alpha virt. eigenvalues --    0.01269   0.02643   0.03537   0.03762   0.04788
 Alpha virt. eigenvalues --    0.05234   0.05805   0.07790   0.08311   0.09358

 Mulliken charges:
               1
     1  Mg   0.847240
     2  C    0.115376
     3  C   -0.195647
     4  C   -0.202762
     5  C   -0.181892
     6  N   -0.587413
     7  C    0.293480
     8  C   -0.150319
     9  C   -0.128471
    10  C    0.276627
    11  C   -0.306867
    12  C   -0.176528
    13  C   -0.263634
    14  C    0.615227
    15  O   -0.495077
    16  O   -0.460764
    17  N   -0.708956
    18  C    0.376720
    19  C    0.020278
    20  C   -0.098349
    21  C    0.322827
    22  C   -0.374147
    23  C    0.308833
    24  O   -0.418972
    25  N   -0.710136
    26  C    0.296129
    27  C    0.005286
    28  C   -0.002276
    29  C    0.315560
    30  C    0.293922
    31  C   -0.262256
    32  C   -0.299369
    33  N   -0.742293
    34  C    0.232397
    35  C    0.036332
    36  C    0.026295
    37  C    0.295585
    38  C   -0.370078
    39  C    0.314252
    40  O   -0.447813
    41  C   -0.311879
    42  C    0.637641
    43  O   -0.552009
    44  O   -0.440298
    45  C   -0.085288
    46  C   -0.011051
    47  C   -0.119784
    48  C    0.119592
    49  C   -0.389515
    50  C   -0.204777
    51  C   -0.177973
    52  C   -0.185820
    53  C   -0.049321
    54  C   -0.309209
    55  C   -0.178833
    56  C   -0.183026
    57  C   -0.149152
    58  C   -0.035438
    59  C   -0.299146
    60  C   -0.162016
    61  C   -0.162795
    62  C   -0.148377
    63  C   -0.036606
    64  C   -0.308575
    65  C   -0.310564
    66  H    0.060559
    67  H    0.125514
    68  H    0.088294
    69  H    0.126442
    70  H    0.105916
    71  H    0.126015
    72  H    0.118622
    73  H    0.111667
    74  H    0.120816
    75  H    0.106425
    76  H    0.140204
    77  H    0.126615
    78  H    0.098539
    79  H    0.159892
    80  H    0.139598
    81  H    0.080420
    82  H    0.108713
    83  H    0.116173
    84  H    0.099273
    85  H    0.110294
    86  H    0.125602
    87  H    0.133435
    88  H    0.148647
    89  H    0.125437
    90  H    0.146901
    91  H    0.112323
    92  H    0.136310
    93  H    0.086241
    94  H    0.137891
    95  H    0.114328
    96  H    0.116114
    97  H    0.081650
    98  H    0.092770
    99  H    0.108433
   100  H    0.099097
   101  H    0.096977
   102  H    0.089281
   103  H    0.062595
   104  H    0.108577
   105  H    0.099221
   106  H    0.099254
   107  H    0.074555
   108  H    0.102289
   109  H    0.105481
   110  H    0.087045
   111  H    0.076636
   112  H    0.041059
   113  H    0.091005
   114  H    0.093666
   115  H    0.103410
   116  H    0.061245
   117  H    0.085247
   118  H    0.076668
   119  H    0.091485
   120  H    0.053671
   121  H    0.071259
   122  H    0.091972
   123  H    0.058108
   124  H    0.113167
   125  H    0.072989
   126  H    0.117147
   127  H    0.112891
   128  H    0.102899
   129  H    0.087434
   130  H    0.128991
   131  H    0.143768
   132  H    0.150943
   133  O   -0.427624
   134  H    0.087395
 Sum of Mulliken charges =  -0.00000

 Dipole moment (field-independent basis, Debye):
    X=              1.3151    Y=             -3.9614    Z=             -1.4857  Tot=              4.4305
 Quadrupole moment (field-independent basis, Debye-Ang):
   XX=           -380.7101   YY=           -419.4081   ZZ=           -395.9120
   XY=              1.4681   XZ=             31.6728   YZ=            -39.4142

 Normal termination of Gaussian 16 at Thu Oct  3 16:18:35 2019.
