 Gaussian 16, Revision A.03,
 Gaussian 16:  ES64L-G16RevA.03 25-Dec-2016

 ----------------------------------------------------------------------
 # td=(NStates=1) iop(3/107=0140000000,3/108=0140000000) iop(3/107=0140
 000000,3/108=0140000000) CAM-B3LYP/6-31G(d,p)
 ----------------------------------------------------------------------

 --
 TD
 --
 Symbolic Z-matrix:
 Charge =  0 Multiplicity = 1

                         Standard orientation:
 ---------------------------------------------------------------------
 Center     Atomic      Atomic             Coordinates (Angstroms)
 Number     Number       Type             X           Y           Z
 ---------------------------------------------------------------------
      1         12           0       -5.525128    1.209416    0.212051
      2          6           0       -5.003931   -2.158156   -0.348800
      3          6           0       -3.403644    1.102442    2.926559
      4          6           0       -6.076699    4.557739    0.655450
      5          6           0       -7.904455    1.328107   -2.402570
      6          7           0       -4.378887   -0.299157    1.109061
      7          6           0       -4.220780   -1.659672    0.629438
      8          6           0       -3.298005   -2.300703    1.531866
      9          6           0       -2.931066   -1.333336    2.666263
     10          6           0       -3.648632   -0.042152    2.151441
     11          6           0       -3.382789   -1.809725    3.946991
     12          6           0       -2.027851   -2.777431    0.659164
     13          6           0       -1.022052   -3.638137    1.419494
     14          6           0        0.195865   -3.994772    0.601173
     15          8           0        0.443691   -3.498184   -0.544396
     16          8           0        1.093290   -4.725469    1.349449
     17          7           0       -4.897712    2.684089    1.612945
     18          6           0       -3.958559    2.367748    2.557413
     19          6           0       -3.685517    3.640030    3.184190
     20          6           0       -4.412453    4.586215    2.603985
     21          6           0       -5.212259    3.933612    1.587725
     22          6           0       -2.755119    3.811794    4.450450
     23          6           0       -4.591616    6.070153    2.956488
     24          8           0       -4.135225    6.659758    3.941441
     25          7           0       -6.781936    2.649485   -0.650797
     26          6           0       -6.854963    3.982786   -0.378189
     27          6           0       -7.816247    4.665180   -1.329540
     28          6           0       -8.340253    3.697167   -2.106542
     29          6           0       -7.671831    2.491069   -1.732514
     30          6           0       -8.152080    6.072629   -1.295312
     31          6           0       -9.268679    3.910031   -3.148501
     32          6           0       -8.620389    4.167141   -4.487611
     33          7           0       -6.340054   -0.036227   -1.154811
     34          6           0       -7.258039    0.053106   -2.105732
     35          6           0       -7.513979   -1.312984   -2.762939
     36          6           0       -6.567714   -2.128295   -2.124454
     37          6           0       -5.853922   -1.319027   -1.203943
     38          6           0       -8.522920   -1.631646   -3.916499
     39          6           0       -6.252952   -3.552320   -2.003825
     40          8           0       -6.581014   -4.530835   -2.613096
     41          6           0       -5.055851   -3.669283   -0.899063
     42          6           0       -5.491926   -4.638973    0.112231
     43          8           0       -5.868111   -4.442146    1.220822
     44          8           0       -5.069962   -5.814830   -0.293721
     45          6           0       -5.612584   -6.993367    0.488692
     46          6           0        2.292189   -5.125080    0.663769
     47          6           0        3.364267   -4.144625    1.073583
     48          6           0        3.925041   -3.275412    0.178600
     49          6           0        3.618545   -3.182105   -1.314150
     50          6           0        5.123233   -2.447976    0.616135
     51          6           0        6.458937   -2.750146   -0.036102
     52          6           0        7.582132   -1.838277    0.455568
     53          6           0        8.961605   -2.003798   -0.092041
     54          6           0        9.606111   -3.471425    0.086939
     55          6           0        9.962317   -0.936118    0.316518
     56          6           0       11.265471   -0.882971   -0.300349
     57          6           0       12.199403    0.256826    0.151122
     58          6           0       13.578101    0.439155   -0.603013
     59          6           0       14.377165   -0.924698   -0.455431
     60          6           0       14.248978    1.714804   -0.098078
     61          6           0       15.367528    2.139835   -1.106998
     62          6           0       15.978400    3.530969   -0.574425
     63          6           0       17.283431    3.925320   -1.298470
     64          6           0       16.989153    4.204268   -2.796916
     65          6           0       17.950758    5.194878   -0.610645
     66          1           0       -2.749120    1.147012    3.760383
     67          1           0       -6.259117    5.631133    0.623681
     68          1           0       -8.753369    1.146903   -3.278554
     69          1           0       -3.584812   -3.313859    1.981818
     70          1           0       -1.882778   -1.143024    2.786112
     71          1           0       -2.961827   -2.923049    4.508043
     72          1           0       -3.214125   -1.012617    4.775830
     73          1           0       -4.510373   -1.864423    4.110459
     74          1           0       -2.380924   -3.485398   -0.163870
     75          1           0       -1.519234   -2.090604    0.332217
     76          1           0       -0.638977   -3.066235    2.182559
     77          1           0       -1.326157   -4.645558    1.605449
     78          1           0       -1.643949    4.042229    3.796709
     79          1           0       -2.999754    4.629303    5.080157
     80          1           0       -2.809024    2.734494    5.052296
     81          1           0       -4.934817    6.742737    2.071838
     82          1           0       -9.723580    2.925901   -3.487118
     83          1           0      -10.067802    4.915201   -2.939126
     84          1           0       -9.304968    4.058170   -5.308511
     85          1           0       -8.128297    5.115747   -4.462277
     86          1           0       -7.855514    3.291948   -4.649624
     87          1           0       -8.194931   -1.000014   -4.834916
     88          1           0       -8.661858   -2.696338   -4.112383
     89          1           0       -9.490008   -1.342425   -3.554512
     90          1           0       -4.216948   -3.995488   -1.570362
     91          1           0        2.426305   -6.177513    1.099348
     92          1           0        2.159652   -5.031246   -0.301236
     93          1           0        3.713809   -4.450883    2.027269
     94          1           0        2.607966   -3.187476   -1.579235
     95          1           0        3.887622   -2.179834   -1.803005
     96          1           0        4.111725   -4.033834   -1.887432
     97          1           0        4.914577   -1.377232    0.353013
     98          1           0        5.350221   -2.568251    1.771640
     99          1           0        6.682462   -3.810740   -0.047381
    100          1           0        6.283138   -2.458745   -1.046710
    101          1           0        7.200023   -0.752578    0.480444
    102          1           0        7.698411   -2.160669    1.631178
    103          1           0        8.705774   -1.882884   -1.148741
    104          1           0        8.805535   -4.249341   -0.009049
    105          1           0       10.499427   -3.575474   -0.786529
    106          1           0       10.063765   -3.675123    1.218962
    107          1           0        9.433391   -0.028357    0.021390
    108          1           0        9.853161   -0.905211    1.466691
    109          1           0       11.872032   -1.868642    0.075943
    110          1           0       11.029144   -0.655415   -1.460772
    111          1           0       11.612383    1.316116   -0.090496
    112          1           0       12.609076    0.234199    1.230484
    113          1           0       13.134956    0.378066   -1.706980
    114          1           0       14.568668   -0.926442    0.700676
    115          1           0       14.057499   -1.866057   -0.731388
    116          1           0       15.475362   -0.516393   -1.129929
    117          1           0       13.646971    2.510062   -0.047913
    118          1           0       14.699723    1.588865    0.819062
    119          1           0       16.253749    1.454431   -1.189177
    120          1           0       15.066303    2.308658   -2.173450
    121          1           0       15.355975    4.375414   -0.759636
    122          1           0       15.977444    3.493961    0.514044
    123          1           0       18.021089    2.949908   -1.236719
    124          1           0       16.061782    4.882099   -2.915247
    125          1           0       17.830784    4.639473   -3.224811
    126          1           0       16.432150    3.374234   -3.286463
    127          1           0       17.942817    5.073486    0.633536
    128          1           0       18.815265    5.693079   -0.883594
    129          1           0       17.249593    6.080273   -1.029966
    130          1           0       -5.589640   -7.866424   -0.208095
    131          1           0       -6.642341   -6.920231    0.780718
    132          1           0       -4.953409   -6.950906    1.420947
    133          8           0       -7.720630    6.933222   -0.524989
    134          1           0       -8.949981    6.367036   -1.942733
 ---------------------------------------------------------------------

 SCF Done:  E(RCAM-B3LYP) =  -3043.38965327     A.U. after   15 cycles

 Excitation energies and oscillator strengths:

 Excited State   1:      Singlet-A      2.0324 eV  610.04 nm  f=0.2279  <S**2>=0.000
     243 -> 246       -0.21655
     244 -> 245        0.66637
 This state for optimization and/or second-order correction.
 Total Energy, E(TD-HF/TD-DFT) =  -3043.31496384
 Copying the excited state density for this state as the 1-particle RhoCI density.

 The electronic state is 1-A.
 Alpha  occ. eigenvalues --  -46.82532 -19.22317 -19.21909 -19.17674 -19.17475
 Alpha  occ. eigenvalues --  -19.17228 -19.17087 -19.16309 -14.39380 -14.37629
 Alpha  occ. eigenvalues --  -14.37531 -14.36479 -10.35251 -10.33994 -10.31773
 Alpha  occ. eigenvalues --  -10.31159 -10.30094 -10.28271 -10.28188 -10.27167
 Alpha  occ. eigenvalues --  -10.27050 -10.26991 -10.26745 -10.26377 -10.26335
 Alpha  occ. eigenvalues --  -10.26333 -10.26322 -10.26079 -10.25832 -10.25294
 Alpha  occ. eigenvalues --  -10.25267 -10.25056 -10.24961 -10.24494 -10.24161
 Alpha  occ. eigenvalues --  -10.24080 -10.24015 -10.23757 -10.23755 -10.23630
 Alpha  occ. eigenvalues --  -10.23610 -10.23573 -10.23569 -10.23247 -10.23169
 Alpha  occ. eigenvalues --  -10.23091 -10.22893 -10.22748 -10.22592 -10.22577
 Alpha  occ. eigenvalues --  -10.22556 -10.22512 -10.22414 -10.22369 -10.22279
 Alpha  occ. eigenvalues --  -10.22226 -10.21948 -10.21666 -10.21566 -10.21469
 Alpha  occ. eigenvalues --  -10.21354 -10.20832 -10.20642 -10.20573 -10.20319
 Alpha  occ. eigenvalues --  -10.20307  -3.10951  -1.85905  -1.85403  -1.85366
 Alpha  occ. eigenvalues --   -1.14145  -1.11844  -1.08408  -1.06124  -1.05646
 Alpha  occ. eigenvalues --   -1.04675  -1.02526  -1.02007  -1.00827  -1.00171
 Alpha  occ. eigenvalues --   -0.99229  -0.87906  -0.87659  -0.86323  -0.86019
 Alpha  occ. eigenvalues --   -0.85000  -0.84569  -0.84163  -0.83610  -0.82755
 Alpha  occ. eigenvalues --   -0.82679  -0.82197  -0.82003  -0.80731  -0.80129
 Alpha  occ. eigenvalues --   -0.79657  -0.78399  -0.77793  -0.77424  -0.76299
 Alpha  occ. eigenvalues --   -0.74672  -0.74122  -0.73637  -0.73055  -0.71843
 Alpha  occ. eigenvalues --   -0.70794  -0.70447  -0.70161  -0.69767  -0.69481
 Alpha  occ. eigenvalues --   -0.68882  -0.68632  -0.66817  -0.66747  -0.66407
 Alpha  occ. eigenvalues --   -0.65253  -0.64795  -0.64457  -0.62749  -0.61864
 Alpha  occ. eigenvalues --   -0.61713  -0.61115  -0.60340  -0.59533  -0.58667
 Alpha  occ. eigenvalues --   -0.58209  -0.57661  -0.57539  -0.57238  -0.56511
 Alpha  occ. eigenvalues --   -0.56453  -0.56264  -0.55707  -0.55580  -0.54749
 Alpha  occ. eigenvalues --   -0.54114  -0.53795  -0.53379  -0.52566  -0.52370
 Alpha  occ. eigenvalues --   -0.51793  -0.51291  -0.51199  -0.51086  -0.50870
 Alpha  occ. eigenvalues --   -0.50473  -0.50016  -0.49809  -0.49667  -0.49173
 Alpha  occ. eigenvalues --   -0.48985  -0.48796  -0.48462  -0.47913  -0.47741
 Alpha  occ. eigenvalues --   -0.47686  -0.47452  -0.47390  -0.47285  -0.47015
 Alpha  occ. eigenvalues --   -0.46339  -0.46237  -0.46062  -0.45843  -0.45769
 Alpha  occ. eigenvalues --   -0.45722  -0.45194  -0.44999  -0.44798  -0.44537
 Alpha  occ. eigenvalues --   -0.44497  -0.44344  -0.44100  -0.44035  -0.43554
 Alpha  occ. eigenvalues --   -0.43343  -0.43093  -0.43082  -0.42857  -0.42630
 Alpha  occ. eigenvalues --   -0.42467  -0.42276  -0.42065  -0.41906  -0.41687
 Alpha  occ. eigenvalues --   -0.41537  -0.41341  -0.41207  -0.40851  -0.40721
 Alpha  occ. eigenvalues --   -0.40393  -0.40283  -0.40212  -0.40052  -0.39927
 Alpha  occ. eigenvalues --   -0.39748  -0.39691  -0.39400  -0.39054  -0.39023
 Alpha  occ. eigenvalues --   -0.38778  -0.38609  -0.38468  -0.38036  -0.37964
 Alpha  occ. eigenvalues --   -0.37910  -0.37778  -0.37582  -0.37568  -0.37452
 Alpha  occ. eigenvalues --   -0.36831  -0.36803  -0.36323  -0.36033  -0.35575
 Alpha  occ. eigenvalues --   -0.35555  -0.35004  -0.34921  -0.34488  -0.34351
 Alpha  occ. eigenvalues --   -0.34000  -0.33972  -0.33513  -0.33156  -0.32205
 Alpha  occ. eigenvalues --   -0.32140  -0.32037  -0.31748  -0.31695  -0.31285
 Alpha  occ. eigenvalues --   -0.31216  -0.30684  -0.30507  -0.29978  -0.29907
 Alpha  occ. eigenvalues --   -0.29003  -0.28559  -0.28442  -0.28162  -0.27656
 Alpha  occ. eigenvalues --   -0.27575  -0.27215  -0.23166  -0.21487
 Alpha virt. eigenvalues --   -0.08641  -0.06295  -0.01691  -0.00690   0.00270
 Alpha virt. eigenvalues --    0.02233   0.03080   0.03374   0.03477   0.04161
 Alpha virt. eigenvalues --    0.05182   0.05347   0.06796   0.08006   0.08340

 Mulliken charges:
               1
     1  Mg   0.832567
     2  C    0.038518
     3  C   -0.148118
     4  C   -0.187690
     5  C   -0.185792
     6  N   -0.671268
     7  C    0.328138
     8  C   -0.196803
     9  C   -0.121432
    10  C    0.366556
    11  C   -0.301485
    12  C   -0.150219
    13  C   -0.255782
    14  C    0.568092
    15  O   -0.491494
    16  O   -0.459723
    17  N   -0.722169
    18  C    0.318465
    19  C   -0.015798
    20  C   -0.026987
    21  C    0.350659
    22  C   -0.326577
    23  C    0.246550
    24  O   -0.411695
    25  N   -0.675297
    26  C    0.296813
    27  C   -0.021423
    28  C    0.139104
    29  C    0.298303
    30  C    0.245013
    31  C   -0.279940
    32  C   -0.302046
    33  N   -0.684438
    34  C    0.240980
    35  C   -0.005587
    36  C    0.021658
    37  C    0.270556
    38  C   -0.375419
    39  C    0.348900
    40  O   -0.441657
    41  C   -0.319829
    42  C    0.640405
    43  O   -0.468117
    44  O   -0.451336
    45  C   -0.101737
    46  C    0.004864
    47  C   -0.117325
    48  C    0.132648
    49  C   -0.392744
    50  C   -0.222799
    51  C   -0.170413
    52  C   -0.161802
    53  C   -0.039834
    54  C   -0.301492
    55  C   -0.145778
    56  C   -0.154966
    57  C   -0.157189
    58  C   -0.061293
    59  C   -0.278629
    60  C   -0.160620
    61  C   -0.194303
    62  C   -0.175904
    63  C   -0.038185
    64  C   -0.312689
    65  C   -0.301539
    66  H    0.094074
    67  H    0.121306
    68  H    0.094708
    69  H    0.126363
    70  H    0.114412
    71  H    0.080486
    72  H    0.091326
    73  H    0.123517
    74  H    0.102516
    75  H    0.114839
    76  H    0.144032
    77  H    0.134986
    78  H    0.096996
    79  H    0.164278
    80  H    0.091162
    81  H    0.086039
    82  H    0.105424
    83  H    0.091320
    84  H    0.120122
    85  H    0.119589
    86  H    0.096653
    87  H    0.124348
    88  H    0.149266
    89  H    0.132674
    90  H    0.173420
    91  H    0.106936
    92  H    0.124624
    93  H    0.091731
    94  H    0.163670
    95  H    0.099379
    96  H    0.119317
    97  H    0.093873
    98  H    0.080661
    99  H    0.099470
   100  H    0.099502
   101  H    0.084732
   102  H    0.049836
   103  H    0.079577
   104  H    0.101516
   105  H    0.089109
   106  H    0.078085
   107  H    0.083517
   108  H    0.080268
   109  H    0.079403
   110  H    0.079619
   111  H    0.049578
   112  H    0.073963
   113  H    0.065054
   114  H    0.080639
   115  H    0.127052
   116  H    0.049792
   117  H    0.116173
   118  H    0.108844
   119  H    0.097986
   120  H    0.092991
   121  H    0.094918
   122  H    0.084512
   123  H    0.058891
   124  H    0.085172
   125  H    0.115574
   126  H    0.105171
   127  H    0.077506
   128  H    0.117387
   129  H    0.072722
   130  H    0.134935
   131  H    0.147495
   132  H    0.133967
   133  O   -0.430976
   134  H    0.060543
 Sum of Mulliken charges =  -0.00000

 Dipole moment (field-independent basis, Debye):
    X=              0.7127    Y=             -4.9587    Z=             -2.4534  Tot=              5.5781
 Quadrupole moment (field-independent basis, Debye-Ang):
   XX=           -390.6039   YY=           -432.2846   ZZ=           -396.0516
   XY=             20.1171   XZ=             26.7477   YZ=            -37.2535

 Normal termination of Gaussian 16 at Thu Oct  3 23:15:11 2019.
