 Gaussian 16, Revision A.03,
 Gaussian 16:  ES64L-G16RevA.03 25-Dec-2016

 ----------------------------------------------------------------------
 # td=(NStates=1) iop(3/107=0140000000,3/108=0140000000) iop(3/107=0140
 000000,3/108=0140000000) CAM-B3LYP/6-31G(d,p)
 ----------------------------------------------------------------------

 --
 TD
 --
 Symbolic Z-matrix:
 Charge =  0 Multiplicity = 1

                         Standard orientation:
 ---------------------------------------------------------------------
 Center     Atomic      Atomic             Coordinates (Angstroms)
 Number     Number       Type             X           Y           Z
 ---------------------------------------------------------------------
      1         12           0       -5.551296    1.220710    0.102610
      2          6           0       -5.016022   -2.147611   -0.418257
      3          6           0       -3.496855    1.130415    2.805951
      4          6           0       -6.103343    4.544354    0.695979
      5          6           0       -8.025838    1.160916   -2.350660
      6          7           0       -4.382676   -0.337193    0.987300
      7          6           0       -4.249109   -1.585169    0.532792
      8          6           0       -3.234334   -2.324268    1.419772
      9          6           0       -2.939858   -1.427939    2.583519
     10          6           0       -3.598358   -0.026669    2.070048
     11          6           0       -3.365323   -1.861604    4.046946
     12          6           0       -1.915764   -2.677455    0.602630
     13          6           0       -1.023399   -3.512246    1.458300
     14          6           0        0.283467   -3.917463    0.711641
     15          8           0        0.530062   -3.361957   -0.441867
     16          8           0        1.061874   -4.664088    1.401960
     17          7           0       -4.847864    2.594577    1.432195
     18          6           0       -4.102830    2.392562    2.434943
     19          6           0       -3.747327    3.556900    3.179656
     20          6           0       -4.504287    4.575923    2.616363
     21          6           0       -5.224752    3.924908    1.532864
     22          6           0       -2.909305    3.638711    4.429199
     23          6           0       -4.615707    5.965865    2.945088
     24          8           0       -3.816099    6.430498    3.820056
     25          7           0       -6.888281    2.578921   -0.666777
     26          6           0       -6.870574    3.930016   -0.300508
     27          6           0       -7.913222    4.654201   -1.208693
     28          6           0       -8.523546    3.595810   -1.983893
     29          6           0       -7.844322    2.401962   -1.642824
     30          6           0       -8.307181    5.966431   -1.222763
     31          6           0       -9.440305    3.765480   -3.184499
     32          6           0       -8.737712    4.254722   -4.427686
     33          7           0       -6.294575   -0.193078   -1.125668
     34          6           0       -7.359301    0.020389   -2.117365
     35          6           0       -7.560594   -1.268889   -2.699657
     36          6           0       -6.692114   -2.191587   -2.134471
     37          6           0       -5.901069   -1.437688   -1.178449
     38          6           0       -8.571675   -1.698349   -3.808812
     39          6           0       -6.269695   -3.517234   -2.092382
     40          8           0       -6.601538   -4.543774   -2.731121
     41          6           0       -5.020161   -3.515599   -1.012025
     42          6           0       -5.291269   -4.643776    0.060867
     43          8           0       -5.796242   -4.529588    1.110081
     44          8           0       -4.839703   -5.842372   -0.411509
     45          6           0       -5.014025   -6.970391    0.441035
     46          6           0        2.380826   -5.080038    0.648567
     47          6           0        3.441216   -4.122819    1.073005
     48          6           0        4.061253   -3.328750    0.214575
     49          6           0        3.744221   -3.175106   -1.279432
     50          6           0        5.073951   -2.322177    0.704360
     51          6           0        6.479732   -2.611684    0.227557
     52          6           0        7.594592   -1.634366    0.707053
     53          6           0        8.925483   -1.813448   -0.038799
     54          6           0        9.523059   -3.158556    0.264712
     55          6           0        9.974731   -0.680704    0.467082
     56          6           0       11.244019   -0.796419   -0.267164
     57          6           0       12.144922    0.377167    0.166395
     58          6           0       13.458642    0.478696   -0.614725
     59          6           0       14.290656   -0.857726   -0.513830
     60          6           0       14.266846    1.677415   -0.216504
     61          6           0       15.447409    2.061168   -1.048137
     62          6           0       16.069956    3.410431   -0.688801
     63          6           0       17.336112    3.940682   -1.328573
     64          6           0       17.313725    3.810570   -2.923219
     65          6           0       17.747402    5.324074   -0.939729
     66          1           0       -2.927438    1.149377    3.779798
     67          1           0       -6.190482    5.577678    0.810706
     68          1           0       -8.736613    1.227610   -3.129623
     69          1           0       -3.624599   -3.338929    1.770307
     70          1           0       -1.777038   -1.298747    2.468273
     71          1           0       -2.728470   -2.636211    4.165812
     72          1           0       -3.069013   -1.305496    4.994302
     73          1           0       -4.479241   -2.195738    4.047872
     74          1           0       -2.141484   -3.092353   -0.308235
     75          1           0       -1.416434   -1.703473    0.509068
     76          1           0       -0.892470   -2.872414    2.313324
     77          1           0       -1.582950   -4.286999    1.873825
     78          1           0       -1.693472    3.547378    4.490893
     79          1           0       -2.791734    4.659746    4.886784
     80          1           0       -3.324184    3.059262    5.272935
     81          1           0       -5.353235    6.694323    2.452363
     82          1           0       -9.946455    2.763086   -3.385476
     83          1           0      -10.181098    4.678586   -2.910080
     84          1           0       -9.474916    4.381030   -5.366175
     85          1           0       -8.277770    5.278327   -4.244333
     86          1           0       -7.967719    3.616098   -4.939128
     87          1           0       -8.116038   -1.234436   -4.766471
     88          1           0       -8.626258   -2.715323   -3.941319
     89          1           0       -9.605498   -1.417771   -3.654427
     90          1           0       -4.112506   -3.922649   -1.589408
     91          1           0        2.403454   -6.165038    0.959112
     92          1           0        2.173714   -4.931516   -0.414955
     93          1           0        3.745961   -4.007654    2.047065
     94          1           0        2.630148   -3.255599   -1.568330
     95          1           0        3.612559   -2.208378   -1.710961
     96          1           0        4.373060   -3.924170   -1.867095
     97          1           0        4.680092   -1.140168    0.447002
     98          1           0        5.136963   -2.276606    1.741344
     99          1           0        6.969860   -3.701131    0.303290
    100          1           0        6.466347   -2.506064   -0.809265
    101          1           0        7.125179   -0.637462    0.773275
    102          1           0        7.574998   -1.718127    1.662763
    103          1           0        8.806565   -1.703039   -1.045729
    104          1           0        8.765017   -4.000724   -0.009196
    105          1           0       10.427872   -3.348601   -0.283512
    106          1           0        9.650255   -3.294135    1.502960
    107          1           0        9.468210    0.276525    0.501561
    108          1           0       10.153354   -0.856217    1.645693
    109          1           0       11.672687   -1.753766    0.060652
    110          1           0       10.964697   -0.663014   -1.324331
    111          1           0       11.710888    1.346975   -0.021206
    112          1           0       12.299496    0.218476    1.360304
    113          1           0       13.217532    0.707137   -1.713300
    114          1           0       14.563777   -0.902614    0.683570
    115          1           0       13.729810   -1.692682   -0.832660
    116          1           0       15.051471   -0.614155   -1.203049
    117          1           0       13.549701    2.679089   -0.180992
    118          1           0       14.297671    1.443782    0.893296
    119          1           0       16.168227    1.178972   -1.117126
    120          1           0       15.034305    2.100489   -2.209473
    121          1           0       15.231894    4.122842   -0.725683
    122          1           0       16.283469    3.326922    0.433201
    123          1           0       18.170060    3.227127   -1.019561
    124          1           0       16.560057    4.281711   -3.471995
    125          1           0       18.289067    4.024861   -3.349459
    126          1           0       17.255470    2.559505   -3.071044
    127          1           0       17.790536    5.438094    0.215147
    128          1           0       18.687600    5.452725   -1.264385
    129          1           0       17.176040    6.094820   -1.171550
    130          1           0       -4.606812   -7.743553   -0.146877
    131          1           0       -6.163254   -6.936698    0.616453
    132          1           0       -4.501208   -6.658007    1.429206
    133          8           0       -7.990322    6.822221   -0.287749
    134          1           0       -8.912859    6.384267   -2.039474
 ---------------------------------------------------------------------

 SCF Done:  E(RCAM-B3LYP) =  -3043.50420834     A.U. after   15 cycles

 Excitation energies and oscillator strengths:

 Excited State   1:      Singlet-A      2.1011 eV  590.08 nm  f=0.1455  <S**2>=0.000
     243 -> 246        0.29891
     243 -> 248       -0.10142
     244 -> 245        0.62506
 This state for optimization and/or second-order correction.
 Total Energy, E(TD-HF/TD-DFT) =  -3043.42699289
 Copying the excited state density for this state as the 1-particle RhoCI density.

 The electronic state is 1-A.
 Alpha  occ. eigenvalues --  -46.81659 -19.23638 -19.20880 -19.17325 -19.16989
 Alpha  occ. eigenvalues --  -19.16711 -19.15674 -19.15374 -14.38559 -14.38146
 Alpha  occ. eigenvalues --  -14.37577 -14.36631 -10.35225 -10.34247 -10.31208
 Alpha  occ. eigenvalues --  -10.31039 -10.29113 -10.29083 -10.27892 -10.27792
 Alpha  occ. eigenvalues --  -10.27401 -10.27345 -10.26874 -10.26750 -10.26652
 Alpha  occ. eigenvalues --  -10.26447 -10.26407 -10.25810 -10.25643 -10.25230
 Alpha  occ. eigenvalues --  -10.25178 -10.25104 -10.25088 -10.25000 -10.23951
 Alpha  occ. eigenvalues --  -10.23811 -10.23767 -10.23757 -10.23690 -10.23547
 Alpha  occ. eigenvalues --  -10.23131 -10.23066 -10.23006 -10.22912 -10.22863
 Alpha  occ. eigenvalues --  -10.22656 -10.22633 -10.22454 -10.22420 -10.22243
 Alpha  occ. eigenvalues --  -10.22130 -10.21666 -10.21560 -10.21534 -10.21508
 Alpha  occ. eigenvalues --  -10.21498 -10.21411 -10.21291 -10.21201 -10.21193
 Alpha  occ. eigenvalues --  -10.21129 -10.21067 -10.20782 -10.20694 -10.19430
 Alpha  occ. eigenvalues --  -10.18544  -3.10291  -1.85233  -1.84741  -1.84719
 Alpha  occ. eigenvalues --   -1.13904  -1.13326  -1.05688  -1.04505  -1.04199
 Alpha  occ. eigenvalues --   -1.03087  -1.01105  -1.00624  -1.00251  -0.99314
 Alpha  occ. eigenvalues --   -0.98315  -0.88822  -0.86810  -0.86058  -0.86005
 Alpha  occ. eigenvalues --   -0.85763  -0.84733  -0.84667  -0.84327  -0.83992
 Alpha  occ. eigenvalues --   -0.83578  -0.83310  -0.81309  -0.80784  -0.79859
 Alpha  occ. eigenvalues --   -0.78929  -0.78690  -0.77813  -0.76962  -0.76852
 Alpha  occ. eigenvalues --   -0.75449  -0.75292  -0.74027  -0.73451  -0.72050
 Alpha  occ. eigenvalues --   -0.71881  -0.71332  -0.70294  -0.70199  -0.69919
 Alpha  occ. eigenvalues --   -0.69838  -0.69329  -0.68006  -0.67730  -0.66260
 Alpha  occ. eigenvalues --   -0.65628  -0.64992  -0.64371  -0.62888  -0.62653
 Alpha  occ. eigenvalues --   -0.61307  -0.61245  -0.60799  -0.59597  -0.59267
 Alpha  occ. eigenvalues --   -0.58302  -0.58191  -0.57503  -0.57272  -0.57199
 Alpha  occ. eigenvalues --   -0.56790  -0.56483  -0.56309  -0.55203  -0.55052
 Alpha  occ. eigenvalues --   -0.54142  -0.53438  -0.52961  -0.52286  -0.51858
 Alpha  occ. eigenvalues --   -0.51723  -0.51256  -0.51164  -0.50928  -0.50410
 Alpha  occ. eigenvalues --   -0.50273  -0.50075  -0.49575  -0.49499  -0.49298
 Alpha  occ. eigenvalues --   -0.48866  -0.48712  -0.48656  -0.48540  -0.48131
 Alpha  occ. eigenvalues --   -0.47940  -0.47826  -0.47268  -0.47195  -0.46971
 Alpha  occ. eigenvalues --   -0.46678  -0.46578  -0.46324  -0.46070  -0.45843
 Alpha  occ. eigenvalues --   -0.45613  -0.45336  -0.45269  -0.44950  -0.44718
 Alpha  occ. eigenvalues --   -0.44496  -0.44198  -0.44016  -0.43796  -0.43663
 Alpha  occ. eigenvalues --   -0.43506  -0.43369  -0.43291  -0.43149  -0.43049
 Alpha  occ. eigenvalues --   -0.42913  -0.42555  -0.42441  -0.42124  -0.41919
 Alpha  occ. eigenvalues --   -0.41868  -0.41717  -0.41456  -0.41235  -0.40724
 Alpha  occ. eigenvalues --   -0.40596  -0.40401  -0.40267  -0.40112  -0.39889
 Alpha  occ. eigenvalues --   -0.39462  -0.39382  -0.38986  -0.38969  -0.38890
 Alpha  occ. eigenvalues --   -0.38700  -0.38657  -0.38395  -0.38241  -0.37943
 Alpha  occ. eigenvalues --   -0.37664  -0.37163  -0.36904  -0.36825  -0.36777
 Alpha  occ. eigenvalues --   -0.36684  -0.36459  -0.36304  -0.36060  -0.35687
 Alpha  occ. eigenvalues --   -0.35382  -0.35154  -0.34875  -0.34581  -0.34560
 Alpha  occ. eigenvalues --   -0.34450  -0.33942  -0.33900  -0.33604  -0.33076
 Alpha  occ. eigenvalues --   -0.32391  -0.32325  -0.32181  -0.32045  -0.31565
 Alpha  occ. eigenvalues --   -0.31219  -0.30952  -0.30203  -0.30084  -0.29154
 Alpha  occ. eigenvalues --   -0.29061  -0.28585  -0.28444  -0.27752  -0.27574
 Alpha  occ. eigenvalues --   -0.27511  -0.26870  -0.23387  -0.22571
 Alpha virt. eigenvalues --   -0.09064  -0.07452  -0.02303  -0.01786   0.00636
 Alpha virt. eigenvalues --    0.02049   0.02974   0.03383   0.04187   0.04675
 Alpha virt. eigenvalues --    0.05345   0.05765   0.07971   0.08574   0.09407

 Mulliken charges:
               1
     1  Mg   0.828881
     2  C    0.165473
     3  C   -0.180755
     4  C   -0.145012
     5  C   -0.147610
     6  N   -0.650375
     7  C    0.343476
     8  C   -0.186566
     9  C   -0.142456
    10  C    0.321793
    11  C   -0.313693
    12  C   -0.165049
    13  C   -0.263974
    14  C    0.607313
    15  O   -0.526559
    16  O   -0.440083
    17  N   -0.694497
    18  C    0.336501
    19  C    0.069521
    20  C    0.026671
    21  C    0.281991
    22  C   -0.419577
    23  C    0.202429
    24  O   -0.430315
    25  N   -0.701986
    26  C    0.286052
    27  C    0.025637
    28  C    0.028240
    29  C    0.299323
    30  C    0.165100
    31  C   -0.235000
    32  C   -0.296074
    33  N   -0.762736
    34  C    0.299299
    35  C   -0.017219
    36  C    0.121448
    37  C    0.278602
    38  C   -0.369747
    39  C    0.319079
    40  O   -0.484824
    41  C   -0.361863
    42  C    0.605901
    43  O   -0.443631
    44  O   -0.460771
    45  C   -0.074306
    46  C   -0.035455
    47  C   -0.095236
    48  C    0.154493
    49  C   -0.398585
    50  C   -0.229543
    51  C   -0.184752
    52  C   -0.168820
    53  C   -0.050576
    54  C   -0.294825
    55  C   -0.171716
    56  C   -0.168671
    57  C   -0.157903
    58  C   -0.079790
    59  C   -0.292077
    60  C   -0.138671
    61  C   -0.170248
    62  C   -0.155470
    63  C   -0.054508
    64  C   -0.310191
    65  C   -0.298358
    66  H    0.098736
    67  H    0.120528
    68  H    0.092455
    69  H    0.111880
    70  H    0.094874
    71  H    0.124883
    72  H    0.111304
    73  H    0.125026
    74  H    0.121802
    75  H    0.113319
    76  H    0.125787
    77  H    0.122303
    78  H    0.105813
    79  H    0.163921
    80  H    0.127606
    81  H    0.113150
    82  H    0.105506
    83  H    0.107848
    84  H    0.092598
    85  H    0.113542
    86  H    0.113357
    87  H    0.122352
    88  H    0.158584
    89  H    0.125853
    90  H    0.151175
    91  H    0.127586
    92  H    0.159336
    93  H    0.084846
    94  H    0.142312
    95  H    0.124366
    96  H    0.116993
    97  H    0.075642
    98  H    0.100657
    99  H    0.077020
   100  H    0.109988
   101  H    0.073697
   102  H    0.101687
   103  H    0.095064
   104  H    0.084041
   105  H    0.110707
   106  H    0.075843
   107  H    0.091981
   108  H    0.058722
   109  H    0.110254
   110  H    0.093746
   111  H    0.093540
   112  H    0.060497
   113  H    0.065050
   114  H    0.075809
   115  H    0.111626
   116  H    0.109607
   117  H    0.051911
   118  H    0.081499
   119  H    0.089823
   120  H    0.066287
   121  H    0.089751
   122  H    0.084961
   123  H    0.081877
   124  H    0.114710
   125  H    0.103422
   126  H    0.063968
   127  H    0.075560
   128  H    0.111877
   129  H    0.115348
   130  H    0.135701
   131  H    0.126898
   132  H    0.112990
   133  O   -0.475472
   134  H    0.076918
 Sum of Mulliken charges =  -0.00000

 Dipole moment (field-independent basis, Debye):
    X=              3.4032    Y=             -4.2375    Z=             -1.2800  Tot=              5.5836
 Quadrupole moment (field-independent basis, Debye-Ang):
   XX=           -386.3258   YY=           -441.6037   ZZ=           -388.2954
   XY=              9.6184   XZ=             19.9448   YZ=            -34.9760

 Normal termination of Gaussian 16 at Thu Oct 10 22:54:43 2019.
