 Gaussian 16, Revision A.03,
 Gaussian 16:  ES64L-G16RevA.03 25-Dec-2016

 ----------------------------------------------------------------------
 # td=(NStates=1) iop(3/107=0140000000,3/108=0140000000) iop(3/107=0140
 000000,3/108=0140000000) CAM-B3LYP/6-31G(d,p)
 ----------------------------------------------------------------------

 --
 TD
 --
 Symbolic Z-matrix:
 Charge =  0 Multiplicity = 1

                         Standard orientation:
 ---------------------------------------------------------------------
 Center     Atomic      Atomic             Coordinates (Angstroms)
 Number     Number       Type             X           Y           Z
 ---------------------------------------------------------------------
      1         12           0       -5.635115    1.244683    0.221081
      2          6           0       -5.079184   -2.203228   -0.255935
      3          6           0       -3.457305    1.128267    2.802029
      4          6           0       -6.322277    4.534121    0.649015
      5          6           0       -7.964526    1.135366   -2.385584
      6          7           0       -4.370056   -0.295366    1.038375
      7          6           0       -4.286266   -1.586714    0.696534
      8          6           0       -3.168883   -2.267588    1.502741
      9          6           0       -2.929954   -1.328378    2.617077
     10          6           0       -3.652264   -0.072037    2.154169
     11          6           0       -3.419958   -1.756818    4.018401
     12          6           0       -1.948414   -2.643762    0.693808
     13          6           0       -1.026128   -3.526041    1.401317
     14          6           0        0.327718   -3.809706    0.531582
     15          8           0        0.540477   -3.347679   -0.488731
     16          8           0        1.136057   -4.673623    1.220623
     17          7           0       -5.009509    2.663837    1.550276
     18          6           0       -4.105547    2.302727    2.556218
     19          6           0       -3.712637    3.633565    3.115505
     20          6           0       -4.567480    4.657030    2.654331
     21          6           0       -5.343744    3.897080    1.550021
     22          6           0       -2.759424    3.864187    4.225699
     23          6           0       -4.656420    6.048076    2.857203
     24          8           0       -3.938664    6.605673    3.676747
     25          7           0       -6.902974    2.543923   -0.662824
     26          6           0       -6.984017    3.864429   -0.360426
     27          6           0       -7.919536    4.526482   -1.172421
     28          6           0       -8.488886    3.573451   -2.060011
     29          6           0       -7.765190    2.387548   -1.729264
     30          6           0       -8.419266    5.864562   -1.088013
     31          6           0       -9.603461    3.660349   -3.265809
     32          6           0       -8.912267    3.959346   -4.563686
     33          7           0       -6.377306   -0.114468   -1.043310
     34          6           0       -7.274743   -0.066403   -2.193928
     35          6           0       -7.509767   -1.347073   -2.830076
     36          6           0       -6.690463   -2.182493   -2.013906
     37          6           0       -5.986007   -1.441332   -1.056389
     38          6           0       -8.387328   -1.839303   -3.937181
     39          6           0       -6.204470   -3.563765   -1.994510
     40          8           0       -6.500109   -4.566459   -2.632383
     41          6           0       -5.066031   -3.555198   -0.877820
     42          6           0       -5.303998   -4.694794    0.123994
     43          8           0       -5.681349   -4.471814    1.290332
     44          8           0       -5.007216   -5.848141   -0.479357
     45          6           0       -5.162079   -6.976111    0.444614
     46          6           0        2.403145   -4.909000    0.582396
     47          6           0        3.437376   -3.976959    1.069190
     48          6           0        4.037504   -3.110116    0.185866
     49          6           0        3.744973   -2.908458   -1.263776
     50          6           0        5.248255   -2.275033    0.768315
     51          6           0        6.575362   -2.636690    0.165504
     52          6           0        7.705466   -1.847202    0.799587
     53          6           0        9.054065   -1.954924    0.057012
     54          6           0        9.546848   -3.476399    0.176644
     55          6           0       10.050160   -0.946742    0.621430
     56          6           0       11.360391   -0.908261   -0.146741
     57          6           0       12.225323    0.318331    0.248171
     58          6           0       13.464655    0.440765   -0.629401
     59          6           0       14.497311   -0.705027   -0.385798
     60          6           0       14.155319    1.766587   -0.264646
     61          6           0       15.484495    2.086205   -1.058014
     62          6           0       15.932891    3.542509   -0.678512
     63          6           0       17.333875    3.834219   -1.447379
     64          6           0       17.176694    4.105494   -2.999473
     65          6           0       17.901120    5.103798   -0.942743
     66          1           0       -2.983739    1.108178    3.869035
     67          1           0       -6.347150    5.630937    0.798355
     68          1           0       -8.580239    1.182248   -3.286905
     69          1           0       -3.596760   -3.227982    1.992258
     70          1           0       -1.800720   -1.059666    2.622241
     71          1           0       -2.847590   -2.498702    4.793052
     72          1           0       -3.523721   -0.781904    4.585524
     73          1           0       -4.445559   -2.144047    3.831614
     74          1           0       -2.424093   -3.034135   -0.350905
     75          1           0       -1.314031   -1.654955    0.428303
     76          1           0       -0.601347   -3.046380    2.284441
     77          1           0       -1.369888   -4.503005    1.709336
     78          1           0       -1.836219    3.172978    3.888391
     79          1           0       -2.587228    5.079584    4.339903
     80          1           0       -3.138851    3.723344    5.263195
     81          1           0       -5.449247    6.737363    2.388387
     82          1           0      -10.022018    2.516539   -3.342176
     83          1           0      -10.367241    4.339736   -2.901721
     84          1           0       -9.641898    4.026831   -5.399030
     85          1           0       -8.639837    5.145732   -4.627566
     86          1           0       -8.030169    3.192020   -4.693625
     87          1           0       -7.957696   -1.579740   -4.886427
     88          1           0       -8.344163   -2.893005   -3.968918
     89          1           0       -9.284612   -1.345929   -3.889180
     90          1           0       -4.073022   -3.647263   -1.435443
     91          1           0        2.617219   -5.902299    0.952677
     92          1           0        2.259652   -4.868803   -0.574677
     93          1           0        3.708347   -3.723244    2.246958
     94          1           0        2.612322   -3.025372   -1.661714
     95          1           0        3.993294   -1.882672   -1.471235
     96          1           0        4.264671   -3.588982   -2.071526
     97          1           0        4.888059   -1.396161    0.245072
     98          1           0        5.210763   -2.466842    1.931478
     99          1           0        6.675572   -3.797174    0.127164
    100          1           0        6.553532   -2.364885   -0.972100
    101          1           0        7.448959   -0.835585    0.771875
    102          1           0        7.802791   -2.079922    1.904779
    103          1           0        8.924975   -1.829800   -0.852401
    104          1           0        8.928890   -4.211956   -0.387743
    105          1           0       10.361103   -3.757025   -0.627505
    106          1           0        9.757340   -3.511056    1.255162
    107          1           0        9.388063   -0.075653    0.358691
    108          1           0       10.292628   -1.121806    1.707596
    109          1           0       12.000127   -1.887333   -0.060086
    110          1           0       11.064539   -0.902619   -1.097054
    111          1           0       11.517304    1.209113    0.042235
    112          1           0       12.268539    0.313587    1.250978
    113          1           0       13.084385    0.540223   -1.675946
    114          1           0       14.863664   -0.435904    0.715041
    115          1           0       14.103454   -1.656672   -0.676359
    116          1           0       15.317440   -0.506709   -1.073381
    117          1           0       13.489936    2.648420   -0.427763
    118          1           0       14.222487    1.915922    0.756367
    119          1           0       16.249681    1.344868   -0.657041
    120          1           0       15.276151    2.081545   -2.084287
    121          1           0       15.403865    4.260920   -0.713037
    122          1           0       16.272264    3.637414    0.396691
    123          1           0       18.025839    3.034002   -1.348101
    124          1           0       16.660548    5.215768   -3.319543
    125          1           0       18.283465    4.168183   -3.419036
    126          1           0       16.626213    3.192396   -3.389674
    127          1           0       18.248459    5.040954    0.140149
    128          1           0       18.657943    5.572344   -1.550415
    129          1           0       17.083753    5.932847   -0.628403
    130          1           0       -4.972415   -7.805540   -0.226938
    131          1           0       -6.197679   -7.077644    1.098171
    132          1           0       -4.307425   -6.943663    1.205725
    133          8           0       -7.998500    6.814962   -0.501945
    134          1           0       -9.399115    6.169386   -1.667448
 ---------------------------------------------------------------------

 SCF Done:  E(RCAM-B3LYP) =  -3043.44408828     A.U. after   16 cycles

 Excitation energies and oscillator strengths:

 Excited State   1:      Singlet-A      2.0014 eV  619.48 nm  f=0.1947  <S**2>=0.000
     243 -> 246        0.24359
     244 -> 245        0.65812
 This state for optimization and/or second-order correction.
 Total Energy, E(TD-HF/TD-DFT) =  -3043.37053729
 Copying the excited state density for this state as the 1-particle RhoCI density.

 The electronic state is 1-A.
 Alpha  occ. eigenvalues --  -46.81389 -19.24553 -19.21500 -19.18234 -19.17791
 Alpha  occ. eigenvalues --  -19.17407 -19.16293 -19.16112 -14.39549 -14.37279
 Alpha  occ. eigenvalues --  -14.36800 -14.36734 -10.35812 -10.34660 -10.31598
 Alpha  occ. eigenvalues --  -10.29824 -10.29745 -10.29395 -10.27844 -10.27448
 Alpha  occ. eigenvalues --  -10.27406 -10.27388 -10.26873 -10.26832 -10.26183
 Alpha  occ. eigenvalues --  -10.26057 -10.25941 -10.25937 -10.25820 -10.25186
 Alpha  occ. eigenvalues --  -10.25135 -10.25078 -10.24704 -10.24689 -10.24387
 Alpha  occ. eigenvalues --  -10.24260 -10.23925 -10.23868 -10.23786 -10.23770
 Alpha  occ. eigenvalues --  -10.23550 -10.23534 -10.23499 -10.23028 -10.22920
 Alpha  occ. eigenvalues --  -10.22798 -10.22664 -10.22657 -10.22540 -10.22420
 Alpha  occ. eigenvalues --  -10.22403 -10.22246 -10.22123 -10.21505 -10.21335
 Alpha  occ. eigenvalues --  -10.21256 -10.20955 -10.20914 -10.20849 -10.20591
 Alpha  occ. eigenvalues --  -10.20431 -10.19864 -10.19752 -10.19664 -10.19628
 Alpha  occ. eigenvalues --  -10.19464  -3.10066  -1.84997  -1.84537  -1.84482
 Alpha  occ. eigenvalues --   -1.15270  -1.14064  -1.07594  -1.07119  -1.06665
 Alpha  occ. eigenvalues --   -1.06054  -1.04544  -1.02012  -1.00749  -0.99871
 Alpha  occ. eigenvalues --   -0.97897  -0.88569  -0.86644  -0.86141  -0.85481
 Alpha  occ. eigenvalues --   -0.85051  -0.84162  -0.84124  -0.83869  -0.83347
 Alpha  occ. eigenvalues --   -0.82851  -0.82636  -0.81528  -0.80239  -0.79538
 Alpha  occ. eigenvalues --   -0.79194  -0.78265  -0.77878  -0.77324  -0.76366
 Alpha  occ. eigenvalues --   -0.75376  -0.74839  -0.73750  -0.72523  -0.72315
 Alpha  occ. eigenvalues --   -0.70711  -0.70426  -0.69992  -0.69870  -0.68977
 Alpha  occ. eigenvalues --   -0.68913  -0.68679  -0.66868  -0.65899  -0.65434
 Alpha  occ. eigenvalues --   -0.65063  -0.64817  -0.63717  -0.62693  -0.62074
 Alpha  occ. eigenvalues --   -0.61385  -0.60827  -0.60392  -0.60225  -0.59250
 Alpha  occ. eigenvalues --   -0.58910  -0.58528  -0.57807  -0.57578  -0.57178
 Alpha  occ. eigenvalues --   -0.56331  -0.55716  -0.55060  -0.54902  -0.54340
 Alpha  occ. eigenvalues --   -0.53954  -0.53013  -0.52781  -0.52348  -0.51957
 Alpha  occ. eigenvalues --   -0.51727  -0.51534  -0.51431  -0.51261  -0.50866
 Alpha  occ. eigenvalues --   -0.50515  -0.50084  -0.49928  -0.49820  -0.48828
 Alpha  occ. eigenvalues --   -0.48770  -0.48446  -0.48136  -0.47914  -0.47872
 Alpha  occ. eigenvalues --   -0.47739  -0.47470  -0.47163  -0.46909  -0.46774
 Alpha  occ. eigenvalues --   -0.46678  -0.46456  -0.46244  -0.46062  -0.45875
 Alpha  occ. eigenvalues --   -0.45519  -0.45378  -0.45278  -0.45046  -0.44697
 Alpha  occ. eigenvalues --   -0.44596  -0.44413  -0.44052  -0.43962  -0.43600
 Alpha  occ. eigenvalues --   -0.43366  -0.43251  -0.43094  -0.43025  -0.42911
 Alpha  occ. eigenvalues --   -0.42460  -0.42160  -0.42020  -0.41772  -0.41698
 Alpha  occ. eigenvalues --   -0.41515  -0.41320  -0.41267  -0.41144  -0.41098
 Alpha  occ. eigenvalues --   -0.40870  -0.40624  -0.40535  -0.40451  -0.40397
 Alpha  occ. eigenvalues --   -0.40047  -0.39831  -0.39380  -0.39160  -0.39037
 Alpha  occ. eigenvalues --   -0.38737  -0.38670  -0.38370  -0.38238  -0.37912
 Alpha  occ. eigenvalues --   -0.37676  -0.37624  -0.37475  -0.37247  -0.36995
 Alpha  occ. eigenvalues --   -0.36879  -0.36105  -0.36091  -0.35861  -0.35542
 Alpha  occ. eigenvalues --   -0.35433  -0.35208  -0.35076  -0.34994  -0.34743
 Alpha  occ. eigenvalues --   -0.34541  -0.34251  -0.33933  -0.33627  -0.33128
 Alpha  occ. eigenvalues --   -0.32854  -0.32368  -0.32086  -0.32048  -0.31443
 Alpha  occ. eigenvalues --   -0.31382  -0.31190  -0.30726  -0.30083  -0.29573
 Alpha  occ. eigenvalues --   -0.28790  -0.28057  -0.27881  -0.27647  -0.27012
 Alpha  occ. eigenvalues --   -0.26898  -0.26604  -0.23303  -0.21614
 Alpha virt. eigenvalues --   -0.08882  -0.06635  -0.02145  -0.00266   0.00970
 Alpha virt. eigenvalues --    0.02680   0.03019   0.03437   0.04183   0.04747
 Alpha virt. eigenvalues --    0.05792   0.06162   0.07680   0.08140   0.09059

 Mulliken charges:
               1
     1  Mg   0.821570
     2  C    0.112432
     3  C   -0.183684
     4  C   -0.171258
     5  C   -0.175977
     6  N   -0.620905
     7  C    0.298581
     8  C   -0.142573
     9  C   -0.141038
    10  C    0.333252
    11  C   -0.310069
    12  C   -0.146935
    13  C   -0.265782
    14  C    0.575338
    15  O   -0.400026
    16  O   -0.473049
    17  N   -0.707527
    18  C    0.314422
    19  C    0.016741
    20  C    0.007470
    21  C    0.312346
    22  C   -0.392775
    23  C    0.201199
    24  O   -0.426271
    25  N   -0.704204
    26  C    0.372568
    27  C   -0.030584
    28  C    0.022771
    29  C    0.274449
    30  C    0.220122
    31  C   -0.210955
    32  C   -0.289300
    33  N   -0.711408
    34  C    0.221170
    35  C    0.064713
    36  C   -0.006447
    37  C    0.295792
    38  C   -0.377322
    39  C    0.365083
    40  O   -0.465992
    41  C   -0.363903
    42  C    0.647301
    43  O   -0.487581
    44  O   -0.420901
    45  C   -0.099173
    46  C   -0.011798
    47  C   -0.126582
    48  C    0.120368
    49  C   -0.381255
    50  C   -0.208494
    51  C   -0.160426
    52  C   -0.157904
    53  C   -0.054792
    54  C   -0.307434
    55  C   -0.172612
    56  C   -0.173167
    57  C   -0.161155
    58  C   -0.053233
    59  C   -0.304442
    60  C   -0.191169
    61  C   -0.181009
    62  C   -0.151113
    63  C   -0.042314
    64  C   -0.293342
    65  C   -0.305870
    66  H    0.107249
    67  H    0.131530
    68  H    0.079070
    69  H    0.122332
    70  H    0.101638
    71  H    0.104684
    72  H    0.102314
    73  H    0.130064
    74  H    0.086452
    75  H    0.097067
    76  H    0.136023
    77  H    0.131342
    78  H    0.094620
    79  H    0.152610
    80  H    0.136324
    81  H    0.089708
    82  H    0.092834
    83  H    0.126974
    84  H    0.116983
    85  H    0.098334
    86  H    0.113416
    87  H    0.137898
    88  H    0.161095
    89  H    0.134316
    90  H    0.159752
    91  H    0.115649
    92  H    0.122330
    93  H    0.075435
    94  H    0.137167
    95  H    0.111959
    96  H    0.111985
    97  H    0.102083
    98  H    0.085892
    99  H    0.091589
   100  H    0.075096
   101  H    0.094463
   102  H    0.080104
   103  H    0.080365
   104  H    0.097920
   105  H    0.073100
   106  H    0.106566
   107  H    0.086430
   108  H    0.082038
   109  H    0.079555
   110  H    0.093511
   111  H    0.070242
   112  H    0.095515
   113  H    0.077839
   114  H    0.091847
   115  H    0.108035
   116  H    0.107542
   117  H    0.075415
   118  H    0.095471
   119  H    0.097304
   120  H    0.107006
   121  H    0.090607
   122  H    0.075120
   123  H    0.096962
   124  H    0.077311
   125  H    0.087771
   126  H    0.091401
   127  H    0.081622
   128  H    0.102126
   129  H    0.074020
   130  H    0.136135
   131  H    0.134871
   132  H    0.123593
   133  O   -0.411362
   134  H    0.031802
 Sum of Mulliken charges =  -0.00000

 Dipole moment (field-independent basis, Debye):
    X=              1.6069    Y=             -5.6394    Z=             -1.9050  Tot=              6.1656
 Quadrupole moment (field-independent basis, Debye-Ang):
   XX=           -389.4076   YY=           -444.9123   ZZ=           -389.5796
   XY=             11.1436   XZ=             22.9136   YZ=            -27.2634

 Normal termination of Gaussian 16 at Thu Oct 10 08:50:51 2019.
