 Gaussian 16, Revision A.03,
 Gaussian 16:  ES64L-G16RevA.03 25-Dec-2016

 ----------------------------------------------------------------------
 # td=(NStates=1) iop(3/107=0140000000,3/108=0140000000) iop(3/107=0140
 000000,3/108=0140000000) CAM-B3LYP/6-31G(d,p)
 ----------------------------------------------------------------------

 --
 TD
 --
 Symbolic Z-matrix:
 Charge =  0 Multiplicity = 1

                         Standard orientation:
 ---------------------------------------------------------------------
 Center     Atomic      Atomic             Coordinates (Angstroms)
 Number     Number       Type             X           Y           Z
 ---------------------------------------------------------------------
      1         12           0       -5.510747    1.145022    0.169512
      2          6           0       -4.977613   -2.101676   -0.414296
      3          6           0       -3.221050    1.218789    2.671648
      4          6           0       -6.211759    4.544098    0.696467
      5          6           0       -7.861117    1.101438   -2.408937
      6          7           0       -4.350207   -0.249409    1.101448
      7          6           0       -4.240112   -1.645728    0.650948
      8          6           0       -3.205878   -2.298124    1.420576
      9          6           0       -2.863256   -1.323057    2.538453
     10          6           0       -3.504694   -0.001643    2.117816
     11          6           0       -3.420917   -1.577575    4.010923
     12          6           0       -1.929091   -2.715580    0.614013
     13          6           0       -0.925414   -3.542269    1.489654
     14          6           0        0.228685   -3.920532    0.589273
     15          8           0        0.352164   -3.532246   -0.623807
     16          8           0        1.084931   -4.638191    1.355562
     17          7           0       -4.822568    2.661228    1.412646
     18          6           0       -3.929644    2.389071    2.393240
     19          6           0       -3.689119    3.647439    3.190648
     20          6           0       -4.511523    4.543376    2.623037
     21          6           0       -5.268310    3.907177    1.491962
     22          6           0       -2.757227    3.792533    4.286088
     23          6           0       -4.658074    6.000646    2.950905
     24          8           0       -3.908916    6.615185    3.705124
     25          7           0       -6.858892    2.583179   -0.764332
     26          6           0       -6.851358    3.895859   -0.377493
     27          6           0       -7.916756    4.552261   -1.189065
     28          6           0       -8.492550    3.564972   -2.101116
     29          6           0       -7.753012    2.428245   -1.727596
     30          6           0       -8.426784    5.844092   -1.102825
     31          6           0       -9.420807    3.876058   -3.169104
     32          6           0       -8.713358    4.224830   -4.482339
     33          7           0       -6.392619   -0.206198   -1.092364
     34          6           0       -7.390518   -0.120607   -2.025578
     35          6           0       -7.593897   -1.416732   -2.601100
     36          6           0       -6.684126   -2.209364   -2.032946
     37          6           0       -5.922988   -1.342441   -1.080228
     38          6           0       -8.566214   -1.675390   -3.786471
     39          6           0       -6.215544   -3.690474   -1.901706
     40          8           0       -6.607687   -4.617082   -2.473126
     41          6           0       -4.954584   -3.539925   -0.873368
     42          6           0       -5.229453   -4.635377    0.218869
     43          8           0       -5.662937   -4.395571    1.346060
     44          8           0       -5.036526   -5.886858   -0.362910
     45          6           0       -5.457890   -6.923782    0.362096
     46          6           0        2.427627   -5.038120    0.554814
     47          6           0        3.467835   -4.086011    1.015266
     48          6           0        3.865531   -3.090504    0.187856
     49          6           0        3.610457   -2.950398   -1.222316
     50          6           0        5.073213   -2.182381    0.635132
     51          6           0        6.410480   -2.442243   -0.040621
     52          6           0        7.574013   -1.672187    0.545614
     53          6           0        8.966771   -1.983354   -0.111304
     54          6           0        9.476666   -3.397042    0.155585
     55          6           0       10.050631   -0.935703    0.482690
     56          6           0       11.369969   -0.882765   -0.354758
     57          6           0       12.291427    0.209804    0.235728
     58          6           0       13.534557    0.316257   -0.547999
     59          6           0       14.561784   -0.756565   -0.389296
     60          6           0       14.282075    1.691752   -0.193848
     61          6           0       15.447997    2.096797   -0.981120
     62          6           0       16.080167    3.472822   -0.544824
     63          6           0       17.318090    3.911667   -1.486443
     64          6           0       16.842806    4.114358   -2.894021
     65          6           0       17.874031    5.134085   -0.798196
     66          1           0       -2.630291    1.065905    3.479588
     67          1           0       -6.628540    5.507464    1.152919
     68          1           0       -8.661598    1.272070   -3.175047
     69          1           0       -3.536824   -3.179003    1.840209
     70          1           0       -1.886223   -1.449322    2.696785
     71          1           0       -2.871246   -2.396921    4.315220
     72          1           0       -3.310846   -0.727832    4.653333
     73          1           0       -4.459739   -1.875900    4.074842
     74          1           0       -2.206672   -3.271543   -0.319302
     75          1           0       -1.449066   -1.775084    0.159481
     76          1           0       -0.671186   -2.893001    2.392091
     77          1           0       -1.576574   -4.422789    1.867548
     78          1           0       -1.706983    3.394348    3.928326
     79          1           0       -2.634380    4.950272    4.444993
     80          1           0       -3.063784    3.268260    5.283613
     81          1           0       -5.336487    6.550069    2.159706
     82          1           0      -10.075595    2.970985   -3.442178
     83          1           0      -10.118283    4.660049   -3.180975
     84          1           0       -9.515694    4.407698   -5.237747
     85          1           0       -8.008388    5.038826   -4.570276
     86          1           0       -8.054220    3.406528   -4.766076
     87          1           0       -8.259399   -1.053554   -4.536022
     88          1           0       -8.308476   -2.811069   -3.969558
     89          1           0       -9.583907   -1.421306   -3.433144
     90          1           0       -4.107597   -4.056402   -1.501746
     91          1           0        2.560905   -6.012087    0.951218
     92          1           0        2.230597   -5.180183   -0.586646
     93          1           0        3.756010   -4.182229    2.125594
     94          1           0        2.692285   -3.444423   -1.406238
     95          1           0        3.439848   -1.884569   -1.365409
     96          1           0        4.316103   -3.423354   -1.897903
     97          1           0        4.497496   -1.171990    0.602651
     98          1           0        5.230119   -2.204716    1.768826
     99          1           0        6.725529   -3.564687    0.170468
    100          1           0        6.249604   -2.433435   -1.009544
    101          1           0        7.447566   -0.594524    0.294643
    102          1           0        7.853465   -1.632916    1.619998
    103          1           0        8.986958   -1.753937   -1.186196
    104          1           0        8.860461   -4.257887   -0.285186
    105          1           0       10.647724   -3.802488   -0.230778
    106          1           0        9.439878   -3.716746    1.321584
    107          1           0        9.270256   -0.025475    0.554988
    108          1           0       10.186996   -1.113481    1.451960
    109          1           0       11.784621   -1.859898   -0.344583
    110          1           0       11.169331   -0.601950   -1.283084
    111          1           0       11.755752    1.274157    0.463333
    112          1           0       12.400750   -0.012899    1.355337
    113          1           0       13.230192    0.509432   -1.617690
    114          1           0       14.247467   -1.136777    0.962778
    115          1           0       14.163994   -1.691675   -0.544864
    116          1           0       15.560472   -0.643699   -0.915078
    117          1           0       13.514152    2.315087   -0.165901
    118          1           0       14.689322    1.594906    0.848378
    119          1           0       16.296382    1.424104   -0.887877
    120          1           0       15.410571    2.306742   -2.089360
    121          1           0       15.284103    4.259791   -0.672267
    122          1           0       16.250244    3.323847    0.546692
    123          1           0       17.997138    2.982799   -1.613447
    124          1           0       16.102315    4.761552   -2.956731
    125          1           0       17.644441    4.381468   -3.694400
    126          1           0       16.459674    3.084907   -3.249905
    127          1           0       18.225807    5.049178    0.292901
    128          1           0       18.592897    5.530501   -1.440984
    129          1           0       17.136739    5.868563   -0.827919
    130          1           0       -4.887923   -7.762853   -0.031475
    131          1           0       -6.576709   -6.949997    0.361744
    132          1           0       -5.211622   -6.780525    1.517008
    133          8           0       -8.049905    6.768335   -0.415806
    134          1           0       -9.180968    5.957933   -1.850238
 ---------------------------------------------------------------------

 SCF Done:  E(RCAM-B3LYP) =  -3043.43676036     A.U. after   16 cycles

 Excitation energies and oscillator strengths:

 Excited State   1:      Singlet-A      2.1675 eV  572.00 nm  f=0.1562  <S**2>=0.000
     243 -> 246       -0.26101
     244 -> 245        0.65105
 This state for optimization and/or second-order correction.
 Total Energy, E(TD-HF/TD-DFT) =  -3043.35710470
 Copying the excited state density for this state as the 1-particle RhoCI density.

 The electronic state is 1-A.
 Alpha  occ. eigenvalues --  -46.82131 -19.23606 -19.23109 -19.19437 -19.19093
 Alpha  occ. eigenvalues --  -19.17684 -19.17425 -19.14426 -14.38445 -14.36969
 Alpha  occ. eigenvalues --  -14.36807 -14.36342 -10.36737 -10.36018 -10.33141
 Alpha  occ. eigenvalues --  -10.30764 -10.28920 -10.27931 -10.27612 -10.27372
 Alpha  occ. eigenvalues --  -10.27147 -10.26882 -10.26724 -10.25899 -10.25784
 Alpha  occ. eigenvalues --  -10.25748 -10.25593 -10.25566 -10.25443 -10.24988
 Alpha  occ. eigenvalues --  -10.24533 -10.24093 -10.24060 -10.23822 -10.23753
 Alpha  occ. eigenvalues --  -10.23632 -10.23613 -10.23591 -10.23317 -10.23279
 Alpha  occ. eigenvalues --  -10.23214 -10.23157 -10.23122 -10.23083 -10.22928
 Alpha  occ. eigenvalues --  -10.22752 -10.22543 -10.22426 -10.22374 -10.22369
 Alpha  occ. eigenvalues --  -10.22303 -10.22271 -10.22053 -10.21621 -10.21513
 Alpha  occ. eigenvalues --  -10.21459 -10.21255 -10.21059 -10.20963 -10.20900
 Alpha  occ. eigenvalues --  -10.20688 -10.20317 -10.20305 -10.19832 -10.19311
 Alpha  occ. eigenvalues --  -10.19123  -3.10596  -1.85553  -1.85073  -1.84984
 Alpha  occ. eigenvalues --   -1.15043  -1.12071  -1.10467  -1.06556  -1.06133
 Alpha  occ. eigenvalues --   -1.04665  -1.03914  -1.02207  -1.00689  -0.99295
 Alpha  occ. eigenvalues --   -0.98665  -0.88707  -0.87004  -0.86069  -0.85756
 Alpha  occ. eigenvalues --   -0.85422  -0.84837  -0.84456  -0.84308  -0.83596
 Alpha  occ. eigenvalues --   -0.83304  -0.82886  -0.81366  -0.80685  -0.80155
 Alpha  occ. eigenvalues --   -0.78904  -0.78362  -0.77990  -0.77707  -0.77012
 Alpha  occ. eigenvalues --   -0.75503  -0.74904  -0.74586  -0.72927  -0.72302
 Alpha  occ. eigenvalues --   -0.72148  -0.71454  -0.70152  -0.69748  -0.69507
 Alpha  occ. eigenvalues --   -0.69271  -0.68850  -0.67464  -0.66592  -0.66171
 Alpha  occ. eigenvalues --   -0.65399  -0.65047  -0.63934  -0.63128  -0.62802
 Alpha  occ. eigenvalues --   -0.61765  -0.61212  -0.61182  -0.59723  -0.59498
 Alpha  occ. eigenvalues --   -0.59085  -0.58626  -0.57897  -0.57812  -0.57460
 Alpha  occ. eigenvalues --   -0.56584  -0.56209  -0.55747  -0.54696  -0.54471
 Alpha  occ. eigenvalues --   -0.53763  -0.53654  -0.53171  -0.52959  -0.52303
 Alpha  occ. eigenvalues --   -0.52001  -0.51721  -0.51604  -0.50783  -0.50676
 Alpha  occ. eigenvalues --   -0.50435  -0.50007  -0.49854  -0.49586  -0.49483
 Alpha  occ. eigenvalues --   -0.49276  -0.49217  -0.48853  -0.48485  -0.48013
 Alpha  occ. eigenvalues --   -0.47693  -0.47524  -0.47489  -0.47382  -0.47098
 Alpha  occ. eigenvalues --   -0.46917  -0.46784  -0.46426  -0.46290  -0.46237
 Alpha  occ. eigenvalues --   -0.45883  -0.45716  -0.45392  -0.45280  -0.45138
 Alpha  occ. eigenvalues --   -0.45025  -0.44728  -0.44406  -0.44066  -0.44019
 Alpha  occ. eigenvalues --   -0.43685  -0.43638  -0.43448  -0.43055  -0.42929
 Alpha  occ. eigenvalues --   -0.42652  -0.42515  -0.42354  -0.42158  -0.41988
 Alpha  occ. eigenvalues --   -0.41861  -0.41728  -0.41595  -0.41323  -0.41161
 Alpha  occ. eigenvalues --   -0.41115  -0.41017  -0.40666  -0.40537  -0.40359
 Alpha  occ. eigenvalues --   -0.39965  -0.39960  -0.39742  -0.39453  -0.39369
 Alpha  occ. eigenvalues --   -0.39174  -0.38888  -0.38838  -0.38526  -0.38300
 Alpha  occ. eigenvalues --   -0.38149  -0.37997  -0.37789  -0.37509  -0.37413
 Alpha  occ. eigenvalues --   -0.36888  -0.36294  -0.36197  -0.36076  -0.35930
 Alpha  occ. eigenvalues --   -0.35908  -0.35472  -0.35096  -0.34729  -0.34127
 Alpha  occ. eigenvalues --   -0.33827  -0.33665  -0.33646  -0.33589  -0.33382
 Alpha  occ. eigenvalues --   -0.33164  -0.32744  -0.32123  -0.31647  -0.31235
 Alpha  occ. eigenvalues --   -0.31085  -0.30976  -0.30793  -0.30228  -0.29486
 Alpha  occ. eigenvalues --   -0.28878  -0.28466  -0.28283  -0.28163  -0.27299
 Alpha  occ. eigenvalues --   -0.26505  -0.25622  -0.23614  -0.21139
 Alpha virt. eigenvalues --   -0.07308  -0.06400  -0.01362  -0.00243   0.00771
 Alpha virt. eigenvalues --    0.00962   0.02085   0.02243   0.03233   0.03982
 Alpha virt. eigenvalues --    0.05220   0.06266   0.06649   0.08445   0.08730

 Mulliken charges:
               1
     1  Mg   0.817706
     2  C    0.094541
     3  C   -0.145645
     4  C   -0.157810
     5  C   -0.166332
     6  N   -0.692196
     7  C    0.312670
     8  C   -0.153994
     9  C   -0.144565
    10  C    0.360876
    11  C   -0.331367
    12  C   -0.183035
    13  C   -0.269624
    14  C    0.634574
    15  O   -0.499127
    16  O   -0.478253
    17  N   -0.719306
    18  C    0.308975
    19  C    0.092328
    20  C   -0.056968
    21  C    0.339789
    22  C   -0.412010
    23  C    0.241305
    24  O   -0.412186
    25  N   -0.657382
    26  C    0.287390
    27  C   -0.054043
    28  C    0.080609
    29  C    0.248105
    30  C    0.230876
    31  C   -0.277379
    32  C   -0.313632
    33  N   -0.728274
    34  C    0.269410
    35  C   -0.032700
    36  C   -0.040167
    37  C    0.390297
    38  C   -0.353789
    39  C    0.396531
    40  O   -0.386637
    41  C   -0.343416
    42  C    0.605297
    43  O   -0.463114
    44  O   -0.411835
    45  C   -0.089883
    46  C   -0.037223
    47  C   -0.102513
    48  C    0.105343
    49  C   -0.369544
    50  C   -0.220585
    51  C   -0.153848
    52  C   -0.186364
    53  C   -0.063261
    54  C   -0.288958
    55  C   -0.183449
    56  C   -0.167230
    57  C   -0.188923
    58  C   -0.037362
    59  C   -0.279506
    60  C   -0.150436
    61  C   -0.192311
    62  C   -0.174845
    63  C   -0.058406
    64  C   -0.307023
    65  C   -0.298836
    66  H    0.069075
    67  H    0.148299
    68  H    0.082417
    69  H    0.124323
    70  H    0.097431
    71  H    0.110919
    72  H    0.119907
    73  H    0.131026
    74  H    0.117434
    75  H    0.113248
    76  H    0.137032
    77  H    0.132178
    78  H    0.108507
    79  H    0.157853
    80  H    0.121283
    81  H    0.079217
    82  H    0.098557
    83  H    0.138111
    84  H    0.100100
    85  H    0.124543
    86  H    0.105090
    87  H    0.144037
    88  H    0.134384
    89  H    0.130952
    90  H    0.160478
    91  H    0.125829
    92  H    0.140753
    93  H    0.097557
    94  H    0.142261
    95  H    0.119700
    96  H    0.129462
    97  H    0.089187
    98  H    0.082719
    99  H    0.087698
   100  H    0.112660
   101  H    0.097300
   102  H    0.102374
   103  H    0.089223
   104  H    0.093250
   105  H    0.066320
   106  H    0.080342
   107  H    0.059147
   108  H    0.102962
   109  H    0.109032
   110  H    0.109657
   111  H    0.075100
   112  H    0.083360
   113  H    0.079979
   114  H    0.016880
   115  H    0.114690
   116  H    0.118215
   117  H    0.085923
   118  H    0.081909
   119  H    0.090759
   120  H    0.074426
   121  H    0.079743
   122  H    0.085455
   123  H    0.074071
   124  H    0.116189
   125  H    0.088956
   126  H    0.098337
   127  H    0.098934
   128  H    0.098108
   129  H    0.108200
   130  H    0.122439
   131  H    0.123162
   132  H    0.101240
   133  O   -0.458453
   134  H    0.037216
 Sum of Mulliken charges =  -0.00000

 Dipole moment (field-independent basis, Debye):
    X=              3.8875    Y=             -7.8464    Z=             -1.6109  Tot=              8.9036
 Quadrupole moment (field-independent basis, Debye-Ang):
   XX=           -401.1085   YY=           -447.9968   ZZ=           -390.5844
   XY=             23.8266   XZ=             10.7019   YZ=            -27.9680

 Normal termination of Gaussian 16 at Sat Oct  5 09:03:34 2019.
