 Gaussian 16, Revision A.03,
 Gaussian 16:  ES64L-G16RevA.03 25-Dec-2016

 ----------------------------------------------------------------------
 # td=(NStates=1) iop(3/107=0140000000,3/108=0140000000) iop(3/107=0140
 000000,3/108=0140000000) CAM-B3LYP/6-31G(d,p)
 ----------------------------------------------------------------------

 --
 TD
 --
 Symbolic Z-matrix:
 Charge =  0 Multiplicity = 1

                         Standard orientation:
 ---------------------------------------------------------------------
 Center     Atomic      Atomic             Coordinates (Angstroms)
 Number     Number       Type             X           Y           Z
 ---------------------------------------------------------------------
      1         12           0       -5.622131    1.203335    0.177100
      2          6           0       -5.158319   -2.137835   -0.289380
      3          6           0       -3.408150    1.118396    2.719459
      4          6           0       -6.133886    4.536448    0.660775
      5          6           0       -8.068292    1.260424   -2.301263
      6          7           0       -4.426348   -0.251915    0.974625
      7          6           0       -4.265796   -1.630486    0.625109
      8          6           0       -3.282334   -2.338473    1.498969
      9          6           0       -3.042897   -1.318683    2.608772
     10          6           0       -3.665935   -0.102875    2.070844
     11          6           0       -3.420030   -1.737706    4.088770
     12          6           0       -1.926506   -2.532544    0.681877
     13          6           0       -0.862169   -3.441481    1.484307
     14          6           0        0.219770   -3.867067    0.533921
     15          8           0        0.374790   -3.679584   -0.661461
     16          8           0        1.010833   -4.691832    1.268285
     17          7           0       -4.797233    2.579883    1.369782
     18          6           0       -3.939269    2.372954    2.430293
     19          6           0       -3.584555    3.627967    3.190641
     20          6           0       -4.404321    4.562397    2.579205
     21          6           0       -5.189438    3.941484    1.525565
     22          6           0       -2.689317    3.753615    4.347230
     23          6           0       -4.551813    5.888300    3.084428
     24          8           0       -3.980001    6.437661    4.004275
     25          7           0       -6.793146    2.688515   -0.758332
     26          6           0       -6.811945    3.945359   -0.457167
     27          6           0       -7.620820    4.656485   -1.328701
     28          6           0       -8.223456    3.763129   -2.101466
     29          6           0       -7.678908    2.487727   -1.714733
     30          6           0       -7.972756    6.081499   -1.183153
     31          6           0       -9.246846    3.967147   -3.235450
     32          6           0       -8.471680    4.169855   -4.566054
     33          7           0       -6.377985   -0.040956   -1.050465
     34          6           0       -7.328029    0.059908   -2.101996
     35          6           0       -7.635111   -1.257182   -2.694432
     36          6           0       -6.791139   -2.153771   -2.067265
     37          6           0       -6.038040   -1.372021   -1.044527
     38          6           0       -8.821531   -1.467878   -3.625257
     39          6           0       -6.304980   -3.523768   -1.909422
     40          8           0       -6.663089   -4.545347   -2.578108
     41          6           0       -5.211076   -3.539211   -0.889993
     42          6           0       -5.480457   -4.600709    0.073395
     43          8           0       -5.858443   -4.378449    1.237608
     44          8           0       -5.104127   -5.825802   -0.430822
     45          6           0       -5.469902   -6.908863    0.412910
     46          6           0        2.255851   -5.113143    0.557045
     47          6           0        3.451678   -4.136800    0.986489
     48          6           0        4.046412   -3.300980    0.202918
     49          6           0        3.790666   -3.183725   -1.327198
     50          6           0        5.177919   -2.452442    0.722582
     51          6           0        6.517034   -2.930585    0.119754
     52          6           0        7.641829   -1.923926    0.552336
     53          6           0        8.955877   -2.209814   -0.128382
     54          6           0        9.554990   -3.579303   -0.006739
     55          6           0        9.987369   -1.163022    0.411755
     56          6           0       11.266531   -1.056271   -0.292220
     57          6           0       12.188437    0.244815    0.094594
     58          6           0       13.446345    0.452219   -0.694163
     59          6           0       14.347003   -0.695135   -0.569268
     60          6           0       14.224592    1.727513   -0.198186
     61          6           0       15.439663    2.229809   -0.922812
     62          6           0       15.928493    3.666242   -0.609671
     63          6           0       17.217390    4.054892   -1.187927
     64          6           0       17.162082    4.045669   -2.744083
     65          6           0       17.839278    5.306750   -0.612149
     66          1           0       -2.717353    1.098338    3.459977
     67          1           0       -6.432602    5.633080    0.968776
     68          1           0       -8.785115    1.149820   -3.035896
     69          1           0       -3.695754   -3.398649    1.624924
     70          1           0       -2.048573   -1.073821    2.520615
     71          1           0       -2.778841   -2.661562    4.359866
     72          1           0       -3.028599   -0.834903    4.759321
     73          1           0       -4.584287   -2.001566    4.274548
     74          1           0       -2.366839   -3.053490   -0.204020
     75          1           0       -1.518141   -1.616748    0.556418
     76          1           0       -0.433150   -2.858166    2.298203
     77          1           0       -1.506442   -4.336155    1.769647
     78          1           0       -1.680513    3.403044    3.850416
     79          1           0       -2.560594    4.806423    4.723276
     80          1           0       -3.062345    3.017538    5.191491
     81          1           0       -5.430232    6.611149    2.703374
     82          1           0      -10.002853    3.124283   -3.325072
     83          1           0       -9.795956    4.935298   -3.008477
     84          1           0       -9.323831    4.268582   -5.429874
     85          1           0       -7.840764    5.130698   -4.516589
     86          1           0       -7.673626    3.291747   -4.783256
     87          1           0       -8.594488   -0.788393   -4.524511
     88          1           0       -8.930162   -2.480656   -4.072754
     89          1           0       -9.782916   -1.282076   -2.958241
     90          1           0       -4.289792   -3.806297   -1.335415
     91          1           0        2.601863   -6.042053    1.109341
     92          1           0        2.115671   -5.283195   -0.427657
     93          1           0        3.539478   -4.258695    2.201406
     94          1           0        2.814419   -3.458558   -1.720904
     95          1           0        4.022614   -2.227527   -1.840166
     96          1           0        4.421285   -3.796064   -1.713047
     97          1           0        5.126955   -1.395326    0.296231
     98          1           0        5.347506   -2.528489    1.802368
     99          1           0        6.742426   -3.939631    0.513930
    100          1           0        6.697312   -2.887682   -1.080657
    101          1           0        7.225675   -0.877444    0.449047
    102          1           0        7.760069   -2.131690    1.610923
    103          1           0        8.862287   -1.887384   -1.194614
    104          1           0        8.640762   -4.331570   -0.325668
    105          1           0       10.430775   -3.669577   -0.633801
    106          1           0        9.751904   -3.741320    1.118564
    107          1           0        9.510347   -0.183833    0.145701
    108          1           0       10.106160   -1.235729    1.621866
    109          1           0       11.745260   -1.879529   -0.030113
    110          1           0       11.190966   -0.892769   -1.466150
    111          1           0       11.577819    1.317738   -0.057190
    112          1           0       12.469610    0.209188    1.177531
    113          1           0       13.214164    0.412199   -1.819244
    114          1           0       14.570576   -0.724976    0.479066
    115          1           0       14.065871   -1.596232   -0.942499
    116          1           0       15.316869   -0.694229   -0.896625
    117          1           0       13.484892    2.558183   -0.136095
    118          1           0       14.388695    1.657733    0.882368
    119          1           0       16.129474    1.427097   -0.790869
    120          1           0       15.233289    1.979287   -1.901833
    121          1           0       15.363522    4.539726   -1.032332
    122          1           0       15.856517    3.668152    0.471889
    123          1           0       18.024614    3.147605   -1.120044
    124          1           0       16.456547    4.749095   -2.932754
    125          1           0       18.026062    4.507455   -3.400501
    126          1           0       16.710220    3.075469   -3.076311
    127          1           0       17.778970    5.230674    0.515947
    128          1           0       18.917001    5.252329   -0.994321
    129          1           0       17.153353    6.247052   -1.016049
    130          1           0       -5.476272   -7.856829   -0.058428
    131          1           0       -6.592297   -6.883621    0.924497
    132          1           0       -4.800417   -7.099830    1.191708
    133          8           0       -7.587663    6.942286   -0.405107
    134          1           0       -8.725961    6.435263   -1.888379
 ---------------------------------------------------------------------

 SCF Done:  E(RCAM-B3LYP) =  -3043.50488542     A.U. after   16 cycles

 Excitation energies and oscillator strengths:

 Excited State   1:      Singlet-A      2.0528 eV  603.98 nm  f=0.1753  <S**2>=0.000
     243 -> 246        0.27043
     244 -> 245        0.64407
 This state for optimization and/or second-order correction.
 Total Energy, E(TD-HF/TD-DFT) =  -3043.42944729
 Copying the excited state density for this state as the 1-particle RhoCI density.

 The electronic state is 1-A.
 Alpha  occ. eigenvalues --  -46.80059 -19.24093 -19.22159 -19.18070 -19.17648
 Alpha  occ. eigenvalues --  -19.17012 -19.16584 -19.16364 -14.38889 -14.37039
 Alpha  occ. eigenvalues --  -14.37017 -14.36164 -10.35998 -10.35174 -10.31437
 Alpha  occ. eigenvalues --  -10.30146 -10.30017 -10.27492 -10.27464 -10.27463
 Alpha  occ. eigenvalues --  -10.27396 -10.27110 -10.26805 -10.26484 -10.26389
 Alpha  occ. eigenvalues --  -10.25858 -10.25656 -10.25555 -10.25317 -10.25228
 Alpha  occ. eigenvalues --  -10.25069 -10.24724 -10.24696 -10.24627 -10.24592
 Alpha  occ. eigenvalues --  -10.24546 -10.24409 -10.24216 -10.24010 -10.23874
 Alpha  occ. eigenvalues --  -10.23717 -10.23488 -10.23448 -10.23425 -10.23115
 Alpha  occ. eigenvalues --  -10.23008 -10.22665 -10.22509 -10.22498 -10.22484
 Alpha  occ. eigenvalues --  -10.22323 -10.22166 -10.21983 -10.21873 -10.21789
 Alpha  occ. eigenvalues --  -10.21440 -10.21434 -10.21393 -10.21167 -10.21152
 Alpha  occ. eigenvalues --  -10.21101 -10.20526 -10.20049 -10.20040 -10.19762
 Alpha  occ. eigenvalues --  -10.17556  -3.09081  -1.83980  -1.83565  -1.83529
 Alpha  occ. eigenvalues --   -1.13542  -1.12596  -1.06639  -1.06400  -1.04860
 Alpha  occ. eigenvalues --   -1.04130  -1.03794  -1.03198  -1.00469  -0.98455
 Alpha  occ. eigenvalues --   -0.98008  -0.89526  -0.86512  -0.86191  -0.85962
 Alpha  occ. eigenvalues --   -0.85242  -0.85040  -0.84630  -0.84181  -0.84145
 Alpha  occ. eigenvalues --   -0.83592  -0.83200  -0.81753  -0.80715  -0.80074
 Alpha  occ. eigenvalues --   -0.79079  -0.78416  -0.77767  -0.77282  -0.76794
 Alpha  occ. eigenvalues --   -0.75633  -0.75315  -0.74027  -0.73520  -0.72280
 Alpha  occ. eigenvalues --   -0.71780  -0.71428  -0.70878  -0.70094  -0.69730
 Alpha  occ. eigenvalues --   -0.69414  -0.68804  -0.67611  -0.67006  -0.66133
 Alpha  occ. eigenvalues --   -0.65180  -0.65126  -0.64499  -0.62663  -0.62384
 Alpha  occ. eigenvalues --   -0.61998  -0.61608  -0.59982  -0.59329  -0.58855
 Alpha  occ. eigenvalues --   -0.58624  -0.58092  -0.57658  -0.56936  -0.56599
 Alpha  occ. eigenvalues --   -0.56506  -0.55808  -0.55626  -0.55416  -0.54831
 Alpha  occ. eigenvalues --   -0.54406  -0.53347  -0.52963  -0.52812  -0.52078
 Alpha  occ. eigenvalues --   -0.51829  -0.51780  -0.51414  -0.51100  -0.50973
 Alpha  occ. eigenvalues --   -0.50827  -0.50663  -0.49650  -0.49377  -0.49112
 Alpha  occ. eigenvalues --   -0.48684  -0.48625  -0.48414  -0.48225  -0.47771
 Alpha  occ. eigenvalues --   -0.47398  -0.47310  -0.47300  -0.46878  -0.46806
 Alpha  occ. eigenvalues --   -0.46594  -0.46403  -0.46228  -0.46085  -0.45685
 Alpha  occ. eigenvalues --   -0.45582  -0.45428  -0.45259  -0.45166  -0.44851
 Alpha  occ. eigenvalues --   -0.44588  -0.44481  -0.43959  -0.43722  -0.43556
 Alpha  occ. eigenvalues --   -0.43451  -0.43251  -0.43132  -0.42938  -0.42816
 Alpha  occ. eigenvalues --   -0.42600  -0.42484  -0.42128  -0.41918  -0.41623
 Alpha  occ. eigenvalues --   -0.41362  -0.41211  -0.41115  -0.41058  -0.40957
 Alpha  occ. eigenvalues --   -0.40815  -0.40634  -0.40416  -0.40230  -0.40129
 Alpha  occ. eigenvalues --   -0.40038  -0.39861  -0.39745  -0.39626  -0.39458
 Alpha  occ. eigenvalues --   -0.39208  -0.38925  -0.38750  -0.38661  -0.38384
 Alpha  occ. eigenvalues --   -0.38199  -0.37934  -0.37810  -0.37524  -0.37496
 Alpha  occ. eigenvalues --   -0.37271  -0.37014  -0.36724  -0.36415  -0.36259
 Alpha  occ. eigenvalues --   -0.35634  -0.35482  -0.35210  -0.35131  -0.34747
 Alpha  occ. eigenvalues --   -0.34439  -0.34379  -0.33933  -0.33864  -0.33722
 Alpha  occ. eigenvalues --   -0.32988  -0.32845  -0.32621  -0.32010  -0.31292
 Alpha  occ. eigenvalues --   -0.31155  -0.31131  -0.30827  -0.30575  -0.29814
 Alpha  occ. eigenvalues --   -0.29381  -0.28557  -0.28142  -0.28086  -0.27654
 Alpha  occ. eigenvalues --   -0.27398  -0.26731  -0.22951  -0.21308
 Alpha virt. eigenvalues --   -0.08063  -0.06363  -0.02352  -0.00317   0.00410
 Alpha virt. eigenvalues --    0.01948   0.02769   0.03704   0.03970   0.04747
 Alpha virt. eigenvalues --    0.05273   0.05643   0.07822   0.08022   0.09596

 Mulliken charges:
               1
     1  Mg   0.822356
     2  C    0.079962
     3  C   -0.192470
     4  C   -0.200241
     5  C   -0.140109
     6  N   -0.631397
     7  C    0.293471
     8  C   -0.185277
     9  C   -0.123098
    10  C    0.361528
    11  C   -0.291547
    12  C   -0.172802
    13  C   -0.273721
    14  C    0.621193
    15  O   -0.473977
    16  O   -0.469923
    17  N   -0.692839
    18  C    0.306369
    19  C    0.089772
    20  C   -0.010797
    21  C    0.307887
    22  C   -0.381469
    23  C    0.215865
    24  O   -0.419069
    25  N   -0.666061
    26  C    0.311312
    27  C   -0.005045
    28  C    0.002745
    29  C    0.289341
    30  C    0.252560
    31  C   -0.238114
    32  C   -0.287701
    33  N   -0.728509
    34  C    0.236720
    35  C   -0.013344
    36  C    0.085410
    37  C    0.263537
    38  C   -0.369797
    39  C    0.345334
    40  O   -0.492249
    41  C   -0.320092
    42  C    0.640528
    43  O   -0.476378
    44  O   -0.436915
    45  C   -0.092857
    46  C    0.005875
    47  C   -0.171472
    48  C    0.164685
    49  C   -0.387314
    50  C   -0.226623
    51  C   -0.187402
    52  C   -0.157099
    53  C   -0.058044
    54  C   -0.295596
    55  C   -0.163729
    56  C   -0.171402
    57  C   -0.159999
    58  C   -0.061595
    59  C   -0.300648
    60  C   -0.197435
    61  C   -0.182780
    62  C   -0.145085
    63  C   -0.058759
    64  C   -0.313574
    65  C   -0.286299
    66  H    0.056962
    67  H    0.142251
    68  H    0.088440
    69  H    0.120258
    70  H    0.118849
    71  H    0.111129
    72  H    0.098877
    73  H    0.124613
    74  H    0.111662
    75  H    0.121354
    76  H    0.143161
    77  H    0.143109
    78  H    0.117059
    79  H    0.171170
    80  H    0.123943
    81  H    0.056338
    82  H    0.109490
    83  H    0.110701
    84  H    0.091250
    85  H    0.114341
    86  H    0.100639
    87  H    0.124282
    88  H    0.148690
    89  H    0.129755
    90  H    0.181028
    91  H    0.108347
    92  H    0.136673
    93  H    0.078081
    94  H    0.140671
    95  H    0.105869
    96  H    0.143284
    97  H    0.095661
    98  H    0.104354
    99  H    0.102167
   100  H    0.073712
   101  H    0.090261
   102  H    0.087247
   103  H    0.079369
   104  H    0.078495
   105  H    0.119255
   106  H    0.093890
   107  H    0.082024
   108  H    0.063781
   109  H    0.110642
   110  H    0.076087
   111  H    0.059100
   112  H    0.084504
   113  H    0.069321
   114  H    0.089784
   115  H    0.102298
   116  H    0.100441
   117  H    0.079627
   118  H    0.083576
   119  H    0.099633
   120  H    0.102285
   121  H    0.085088
   122  H    0.094946
   123  H    0.053812
   124  H    0.104673
   125  H    0.090155
   126  H    0.105054
   127  H    0.102822
   128  H    0.107665
   129  H    0.072622
   130  H    0.130925
   131  H    0.111298
   132  H    0.125774
   133  O   -0.426029
   134  H    0.055610
 Sum of Mulliken charges =  -0.00000

 Dipole moment (field-independent basis, Debye):
    X=              2.5946    Y=             -5.1731    Z=             -0.1389  Tot=              5.7890
 Quadrupole moment (field-independent basis, Debye-Ang):
   XX=           -382.5232   YY=           -444.9990   ZZ=           -395.6037
   XY=              4.7027   XZ=             17.5560   YZ=            -34.9144

 Normal termination of Gaussian 16 at Mon Oct  7 20:23:47 2019.
