 Gaussian 16, Revision A.03,
 Gaussian 16:  ES64L-G16RevA.03 25-Dec-2016

 ----------------------------------------------------------------------
 # td=(NStates=1) iop(3/107=0140000000,3/108=0140000000) iop(3/107=0140
 000000,3/108=0140000000) CAM-B3LYP/6-31G(d,p)
 ----------------------------------------------------------------------

 --
 TD
 --
 Symbolic Z-matrix:
 Charge =  0 Multiplicity = 1

                         Standard orientation:
 ---------------------------------------------------------------------
 Center     Atomic      Atomic             Coordinates (Angstroms)
 Number     Number       Type             X           Y           Z
 ---------------------------------------------------------------------
      1         12           0       -5.576925    1.172398    0.191183
      2          6           0       -5.142266   -2.181994   -0.248689
      3          6           0       -3.414685    1.150252    2.846368
      4          6           0       -6.234908    4.556276    0.624855
      5          6           0       -8.002964    1.162543   -2.378311
      6          7           0       -4.398950   -0.283495    1.035844
      7          6           0       -4.230864   -1.654010    0.645180
      8          6           0       -3.184389   -2.296537    1.566861
      9          6           0       -2.942754   -1.302577    2.609914
     10          6           0       -3.616364   -0.035127    2.105855
     11          6           0       -3.510748   -1.710692    3.977090
     12          6           0       -1.972128   -2.614510    0.710585
     13          6           0       -0.963406   -3.388084    1.424818
     14          6           0        0.212466   -3.859838    0.523135
     15          8           0        0.479872   -3.509044   -0.547095
     16          8           0        1.059703   -4.703360    1.264428
     17          7           0       -4.960219    2.586493    1.483608
     18          6           0       -4.034953    2.447275    2.470454
     19          6           0       -3.839501    3.675446    3.192044
     20          6           0       -4.644729    4.601437    2.636304
     21          6           0       -5.271903    3.994588    1.490810
     22          6           0       -2.826338    3.810292    4.294266
     23          6           0       -4.800825    6.054976    3.026406
     24          8           0       -4.088449    6.513429    3.935862
     25          7           0       -6.834908    2.655229   -0.839799
     26          6           0       -6.878066    3.927239   -0.534880
     27          6           0       -7.876971    4.561779   -1.329279
     28          6           0       -8.414676    3.696990   -2.126161
     29          6           0       -7.746682    2.429990   -1.800384
     30          6           0       -8.265045    5.955163   -1.326597
     31          6           0       -9.432141    3.693563   -3.192771
     32          6           0       -8.913795    4.010564   -4.670793
     33          7           0       -6.401888   -0.105450   -1.128674
     34          6           0       -7.341371   -0.019131   -2.105256
     35          6           0       -7.591056   -1.335571   -2.588471
     36          6           0       -6.728532   -2.245578   -1.949378
     37          6           0       -5.993983   -1.365756   -1.136076
     38          6           0       -8.598933   -1.690097   -3.629907
     39          6           0       -6.297498   -3.657210   -1.847967
     40          8           0       -6.712404   -4.642931   -2.386941
     41          6           0       -5.052841   -3.525865   -0.874796
     42          6           0       -5.283373   -4.739386    0.130346
     43          8           0       -5.732374   -4.487047    1.281159
     44          8           0       -5.015019   -5.839869   -0.450896
     45          6           0       -5.396104   -6.982880    0.461215
     46          6           0        2.335663   -4.957150    0.582546
     47          6           0        3.385170   -3.910117    0.945316
     48          6           0        4.069336   -3.171307    0.088782
     49          6           0        3.685001   -2.962937   -1.420818
     50          6           0        5.233579   -2.315751    0.523719
     51          6           0        6.580835   -2.635461   -0.055983
     52          6           0        7.692043   -1.809454    0.564044
     53          6           0        9.063704   -2.073857   -0.089977
     54          6           0        9.599821   -3.370096    0.164950
     55          6           0       10.017502   -0.912691    0.326785
     56          6           0       11.434004   -0.927392   -0.253334
     57          6           0       12.303339    0.253220    0.323433
     58          6           0       13.594488    0.337675   -0.520712
     59          6           0       14.455262   -0.761566   -0.051317
     60          6           0       14.192052    1.808806   -0.200719
     61          6           0       15.587929    2.028070   -0.992305
     62          6           0       16.192372    3.422091   -0.583655
     63          6           0       17.410703    3.891427   -1.359734
     64          6           0       17.198729    4.029572   -2.880647
     65          6           0       18.076379    5.179319   -0.820144
     66          1           0       -2.668213    1.023507    3.711519
     67          1           0       -6.306923    5.638735    0.647913
     68          1           0       -8.847343    1.209275   -3.194390
     69          1           0       -3.771134   -3.233241    1.937409
     70          1           0       -1.933423   -1.106386    2.918794
     71          1           0       -2.962640   -2.671524    4.285437
     72          1           0       -3.094350   -1.072381    4.860459
     73          1           0       -4.572534   -1.772034    3.998876
     74          1           0       -2.508088   -2.955318   -0.145903
     75          1           0       -1.596347   -1.574084    0.495573
     76          1           0       -0.656979   -2.680953    2.379633
     77          1           0       -1.343920   -4.454091    2.061874
     78          1           0       -1.882575    3.811455    3.721534
     79          1           0       -2.744880    4.689219    4.733130
     80          1           0       -2.792558    2.949152    5.110416
     81          1           0       -5.451646    6.674545    2.533694
     82          1           0       -9.996087    2.872163   -3.226209
     83          1           0      -10.028129    4.586841   -2.897834
     84          1           0       -9.759025    4.156016   -5.198039
     85          1           0       -8.362964    4.975682   -4.771621
     86          1           0       -8.253552    3.355142   -4.948635
     87          1           0       -8.406103   -1.194131   -4.461790
     88          1           0       -8.411305   -2.767027   -4.068369
     89          1           0       -9.681015   -1.721003   -3.369761
     90          1           0       -4.093036   -3.555375   -1.529443
     91          1           0        2.529520   -5.942333    1.010904
     92          1           0        2.406697   -4.925848   -0.598782
     93          1           0        3.702922   -3.915645    1.874161
     94          1           0        2.599178   -3.383735   -1.702519
     95          1           0        3.657716   -1.827608   -1.837745
     96          1           0        4.519780   -3.376772   -1.963337
     97          1           0        5.181750   -1.245137    0.434153
     98          1           0        5.223812   -2.353145    1.494988
     99          1           0        6.810548   -3.660592    0.106993
    100          1           0        6.561960   -2.325830   -1.095399
    101          1           0        7.472858   -0.705463    0.431236
    102          1           0        7.780342   -1.956907    1.625763
    103          1           0        8.806583   -1.893645   -1.166834
    104          1           0        9.191581   -4.409785   -0.080518
    105          1           0       10.657347   -3.274831   -0.482309
    106          1           0        9.880693   -3.654042    1.265313
    107          1           0        9.494385    0.036009    0.072218
    108          1           0       10.061045   -0.860420    1.542954
    109          1           0       12.035782   -1.761306   -0.230810
    110          1           0       11.320791   -0.623656   -1.593357
    111          1           0       11.626242    1.267239    0.218468
    112          1           0       12.418476    0.257328    1.388489
    113          1           0       13.383167    0.476749   -1.559325
    114          1           0       14.581240   -0.571941    1.153055
    115          1           0       14.145360   -1.842816   -0.370220
    116          1           0       15.237855   -0.811011   -0.722434
    117          1           0       13.653423    2.810676   -0.250258
    118          1           0       14.677984    1.997480    0.834583
    119          1           0       16.470175    1.237871   -0.943166
    120          1           0       15.226112    2.181096   -2.078650
    121          1           0       15.304565    4.156920   -0.825152
    122          1           0       16.299671    3.362635    0.507806
    123          1           0       18.201849    3.024005   -1.150563
    124          1           0       16.485092    4.722476   -3.261926
    125          1           0       18.133520    4.192381   -3.414399
    126          1           0       16.815075    3.107225   -3.447544
    127          1           0       18.386363    5.221919    0.203851
    128          1           0       19.019603    5.267131   -1.424650
    129          1           0       17.394347    5.966637   -1.157514
    130          1           0       -5.135213   -7.792482   -0.103934
    131          1           0       -6.501118   -6.932176    0.773885
    132          1           0       -4.830504   -7.030219    1.445349
    133          8           0       -8.000343    6.751719   -0.374334
    134          1           0       -8.850358    6.310390   -2.157700
 ---------------------------------------------------------------------

 SCF Done:  E(RCAM-B3LYP) =  -3043.45039651     A.U. after   15 cycles

 Excitation energies and oscillator strengths:

 Excited State   1:      Singlet-A      2.1202 eV  584.77 nm  f=0.1576  <S**2>=0.000
     243 -> 246       -0.28292
     244 -> 245        0.63756
 This state for optimization and/or second-order correction.
 Total Energy, E(TD-HF/TD-DFT) =  -3043.37248019
 Copying the excited state density for this state as the 1-particle RhoCI density.

 The electronic state is 1-A.
 Alpha  occ. eigenvalues --  -46.81272 -19.25485 -19.20888 -19.18218 -19.17557
 Alpha  occ. eigenvalues --  -19.17251 -19.16846 -19.16829 -14.38130 -14.36913
 Alpha  occ. eigenvalues --  -14.36564 -14.36248 -10.35650 -10.34855 -10.31627
 Alpha  occ. eigenvalues --  -10.30367 -10.30142 -10.28812 -10.27393 -10.27145
 Alpha  occ. eigenvalues --  -10.27041 -10.26819 -10.26651 -10.26565 -10.25995
 Alpha  occ. eigenvalues --  -10.25494 -10.25468 -10.25234 -10.25118 -10.25020
 Alpha  occ. eigenvalues --  -10.24347 -10.24066 -10.23787 -10.23379 -10.23369
 Alpha  occ. eigenvalues --  -10.23322 -10.23171 -10.23102 -10.22961 -10.22961
 Alpha  occ. eigenvalues --  -10.22910 -10.22756 -10.22681 -10.22677 -10.22500
 Alpha  occ. eigenvalues --  -10.22388 -10.22375 -10.22208 -10.22139 -10.22133
 Alpha  occ. eigenvalues --  -10.21841 -10.21759 -10.21631 -10.21567 -10.21451
 Alpha  occ. eigenvalues --  -10.21421 -10.21385 -10.21380 -10.21095 -10.20685
 Alpha  occ. eigenvalues --  -10.20337 -10.20254 -10.20248 -10.20071 -10.19882
 Alpha  occ. eigenvalues --  -10.19294  -3.09848  -1.84790  -1.84311  -1.84265
 Alpha  occ. eigenvalues --   -1.15990  -1.13847  -1.08230  -1.05589  -1.04877
 Alpha  occ. eigenvalues --   -1.04009  -1.03403  -1.01893  -1.00960  -0.99031
 Alpha  occ. eigenvalues --   -0.98194  -0.88247  -0.86842  -0.86474  -0.86324
 Alpha  occ. eigenvalues --   -0.85002  -0.84137  -0.83805  -0.83427  -0.83133
 Alpha  occ. eigenvalues --   -0.82941  -0.82514  -0.81335  -0.80234  -0.79781
 Alpha  occ. eigenvalues --   -0.79104  -0.77912  -0.77536  -0.76864  -0.75901
 Alpha  occ. eigenvalues --   -0.74896  -0.74572  -0.73285  -0.73193  -0.72017
 Alpha  occ. eigenvalues --   -0.70874  -0.70847  -0.70111  -0.70000  -0.69411
 Alpha  occ. eigenvalues --   -0.69064  -0.68698  -0.67872  -0.67097  -0.66776
 Alpha  occ. eigenvalues --   -0.65640  -0.64427  -0.64150  -0.62098  -0.61853
 Alpha  occ. eigenvalues --   -0.61127  -0.60857  -0.59920  -0.59156  -0.58982
 Alpha  occ. eigenvalues --   -0.58387  -0.58227  -0.58053  -0.57423  -0.57017
 Alpha  occ. eigenvalues --   -0.56145  -0.55611  -0.55551  -0.55409  -0.55144
 Alpha  occ. eigenvalues --   -0.54119  -0.53403  -0.53022  -0.52779  -0.52023
 Alpha  occ. eigenvalues --   -0.51764  -0.51570  -0.51263  -0.51164  -0.50985
 Alpha  occ. eigenvalues --   -0.50619  -0.50102  -0.49783  -0.49571  -0.49184
 Alpha  occ. eigenvalues --   -0.48922  -0.48706  -0.48276  -0.48087  -0.47713
 Alpha  occ. eigenvalues --   -0.47673  -0.47318  -0.47264  -0.46798  -0.46737
 Alpha  occ. eigenvalues --   -0.46511  -0.46299  -0.46284  -0.46004  -0.45882
 Alpha  occ. eigenvalues --   -0.45484  -0.45270  -0.45088  -0.44915  -0.44313
 Alpha  occ. eigenvalues --   -0.44290  -0.44057  -0.43907  -0.43541  -0.43411
 Alpha  occ. eigenvalues --   -0.42952  -0.42750  -0.42637  -0.42588  -0.42448
 Alpha  occ. eigenvalues --   -0.42256  -0.42173  -0.42154  -0.41926  -0.41457
 Alpha  occ. eigenvalues --   -0.41364  -0.40958  -0.40932  -0.40785  -0.40663
 Alpha  occ. eigenvalues --   -0.40452  -0.40215  -0.40185  -0.40098  -0.39934
 Alpha  occ. eigenvalues --   -0.39798  -0.39489  -0.39443  -0.39360  -0.39193
 Alpha  occ. eigenvalues --   -0.39095  -0.38728  -0.38658  -0.38345  -0.38205
 Alpha  occ. eigenvalues --   -0.37835  -0.37616  -0.37529  -0.37189  -0.36968
 Alpha  occ. eigenvalues --   -0.36826  -0.36416  -0.36077  -0.36004  -0.35812
 Alpha  occ. eigenvalues --   -0.35658  -0.35173  -0.34989  -0.34339  -0.34302
 Alpha  occ. eigenvalues --   -0.34087  -0.34023  -0.33825  -0.33631  -0.32631
 Alpha  occ. eigenvalues --   -0.32461  -0.32080  -0.31880  -0.31507  -0.31356
 Alpha  occ. eigenvalues --   -0.31005  -0.30894  -0.30380  -0.29449  -0.29304
 Alpha  occ. eigenvalues --   -0.29006  -0.28309  -0.28137  -0.27803  -0.27671
 Alpha  occ. eigenvalues --   -0.27641  -0.27607  -0.22283  -0.21655
 Alpha virt. eigenvalues --   -0.08060  -0.05877  -0.01210  -0.01092   0.00490
 Alpha virt. eigenvalues --    0.02880   0.03290   0.04164   0.04235   0.04368
 Alpha virt. eigenvalues --    0.05090   0.05488   0.08311   0.08621   0.08634

 Mulliken charges:
               1
     1  Mg   0.830090
     2  C    0.062699
     3  C   -0.195390
     4  C   -0.157032
     5  C   -0.178034
     6  N   -0.649342
     7  C    0.238848
     8  C   -0.154159
     9  C   -0.145836
    10  C    0.380457
    11  C   -0.307170
    12  C   -0.142173
    13  C   -0.254260
    14  C    0.614354
    15  O   -0.411028
    16  O   -0.495991
    17  N   -0.692854
    18  C    0.318942
    19  C    0.041291
    20  C   -0.030016
    21  C    0.255091
    22  C   -0.363346
    23  C    0.264477
    24  O   -0.419006
    25  N   -0.649791
    26  C    0.286193
    27  C   -0.021314
    28  C    0.072954
    29  C    0.252103
    30  C    0.219069
    31  C   -0.254954
    32  C   -0.313895
    33  N   -0.706669
    34  C    0.318960
    35  C   -0.045110
    36  C    0.066188
    37  C    0.269603
    38  C   -0.395273
    39  C    0.384167
    40  O   -0.445390
    41  C   -0.347212
    42  C    0.634741
    43  O   -0.509352
    44  O   -0.397738
    45  C   -0.113039
    46  C   -0.004258
    47  C   -0.114335
    48  C    0.138566
    49  C   -0.379930
    50  C   -0.219128
    51  C   -0.171163
    52  C   -0.182872
    53  C   -0.042859
    54  C   -0.291041
    55  C   -0.156929
    56  C   -0.144123
    57  C   -0.163821
    58  C   -0.050216
    59  C   -0.285734
    60  C   -0.193547
    61  C   -0.181583
    62  C   -0.161811
    63  C   -0.040003
    64  C   -0.327112
    65  C   -0.303790
    66  H    0.086968
    67  H    0.123068
    68  H    0.093999
    69  H    0.134279
    70  H    0.103460
    71  H    0.099389
    72  H    0.091206
    73  H    0.137275
    74  H    0.112799
    75  H    0.117231
    76  H    0.121360
    77  H    0.099740
    78  H    0.127542
    79  H    0.154732
    80  H    0.104495
    81  H    0.105355
    82  H    0.122847
    83  H    0.101077
    84  H    0.125913
    85  H    0.103499
    86  H    0.127179
    87  H    0.134233
    88  H    0.120963
    89  H    0.127420
    90  H    0.157094
    91  H    0.112249
    92  H    0.114601
    93  H    0.070669
    94  H    0.131620
    95  H    0.095353
    96  H    0.123017
    97  H    0.096952
    98  H    0.095860
    99  H    0.099367
   100  H    0.096278
   101  H    0.072275
   102  H    0.088003
   103  H    0.085042
   104  H    0.103534
   105  H    0.073621
   106  H    0.087658
   107  H    0.098983
   108  H    0.062301
   109  H    0.113323
   110  H    0.016504
   111  H    0.053510
   112  H    0.100888
   113  H    0.102652
   114  H    0.101323
   115  H    0.091199
   116  H    0.113121
   117  H    0.099979
   118  H    0.071766
   119  H    0.082133
   120  H    0.079589
   121  H    0.063261
   122  H    0.088438
   123  H    0.060540
   124  H    0.109784
   125  H    0.104664
   126  H    0.092944
   127  H    0.106952
   128  H    0.095268
   129  H    0.103771
   130  H    0.139997
   131  H    0.152710
   132  H    0.139687
   133  O   -0.447274
   134  H    0.083611
 Sum of Mulliken charges =  -0.00000

 Dipole moment (field-independent basis, Debye):
    X=              2.3206    Y=             -4.1416    Z=             -1.9216  Tot=              5.1216
 Quadrupole moment (field-independent basis, Debye-Ang):
   XX=           -376.0970   YY=           -425.8847   ZZ=           -392.1176
   XY=              7.4476   XZ=             28.0662   YZ=            -35.9788

 Normal termination of Gaussian 16 at Tue Oct  8 15:54:59 2019.
