 Gaussian 16, Revision A.03,
 Gaussian 16:  ES64L-G16RevA.03 25-Dec-2016

 ----------------------------------------------------------------------
 # td=(NStates=1) iop(3/107=0140000000,3/108=0140000000) iop(3/107=0140
 000000,3/108=0140000000) CAM-B3LYP/6-31G(d,p)
 ----------------------------------------------------------------------

 --
 TD
 --
 Symbolic Z-matrix:
 Charge =  0 Multiplicity = 1

                         Standard orientation:
 ---------------------------------------------------------------------
 Center     Atomic      Atomic             Coordinates (Angstroms)
 Number     Number       Type             X           Y           Z
 ---------------------------------------------------------------------
      1         12           0       -5.578479    1.215864    0.141331
      2          6           0       -4.968254   -2.141364   -0.348569
      3          6           0       -3.518504    1.142662    2.868065
      4          6           0       -6.165020    4.615639    0.636192
      5          6           0       -7.913401    1.216213   -2.463782
      6          7           0       -4.349233   -0.222282    1.082034
      7          6           0       -4.268640   -1.547656    0.641459
      8          6           0       -3.205088   -2.332010    1.514375
      9          6           0       -2.940433   -1.347334    2.733767
     10          6           0       -3.603270   -0.102207    2.165808
     11          6           0       -3.531652   -1.814713    3.962385
     12          6           0       -2.007669   -2.678760    0.700995
     13          6           0       -0.943239   -3.467505    1.416669
     14          6           0        0.298237   -3.904919    0.539024
     15          8           0        0.435920   -3.535258   -0.579610
     16          8           0        1.067513   -4.756954    1.166528
     17          7           0       -5.030949    2.624890    1.522453
     18          6           0       -4.072148    2.355566    2.505389
     19          6           0       -3.826797    3.597694    3.217938
     20          6           0       -4.611353    4.579163    2.633102
     21          6           0       -5.347196    3.912621    1.622524
     22          6           0       -2.803221    3.782714    4.263129
     23          6           0       -4.498768    6.026110    2.914477
     24          8           0       -3.899906    6.584874    3.762294
     25          7           0       -6.826376    2.693983   -0.621600
     26          6           0       -6.968860    3.986599   -0.317410
     27          6           0       -7.935547    4.628220   -1.137763
     28          6           0       -8.318922    3.741675   -2.070110
     29          6           0       -7.667544    2.454154   -1.666936
     30          6           0       -8.270194    6.074244   -1.241194
     31          6           0       -9.328463    3.745364   -3.122190
     32          6           0       -8.684566    3.995728   -4.550130
     33          7           0       -6.255584   -0.119966   -1.192234
     34          6           0       -7.251670    0.013433   -2.217631
     35          6           0       -7.460647   -1.258060   -2.807215
     36          6           0       -6.612734   -2.150138   -2.157837
     37          6           0       -5.845359   -1.351391   -1.121222
     38          6           0       -8.431370   -1.616854   -3.827155
     39          6           0       -6.169216   -3.502468   -2.058119
     40          8           0       -6.545259   -4.541763   -2.625856
     41          6           0       -5.036216   -3.582578   -0.850072
     42          6           0       -5.329351   -4.590517    0.180258
     43          8           0       -5.897601   -4.434563    1.213767
     44          8           0       -5.013349   -5.819603   -0.299704
     45          6           0       -5.439328   -6.995926    0.549616
     46          6           0        2.359455   -5.142502    0.604224
     47          6           0        3.463782   -4.125731    1.051912
     48          6           0        4.058078   -3.299427    0.226588
     49          6           0        3.710248   -3.088143   -1.242609
     50          6           0        5.162024   -2.452853    0.791222
     51          6           0        6.483555   -2.698875    0.041629
     52          6           0        7.588148   -1.723607    0.454689
     53          6           0        8.975728   -2.039769   -0.098974
     54          6           0        9.467803   -3.471411    0.281487
     55          6           0        9.925457   -0.877967    0.241233
     56          6           0       11.359913   -0.880182   -0.442924
     57          6           0       12.184087    0.260042    0.166465
     58          6           0       13.528261    0.443148   -0.614097
     59          6           0       14.462535   -0.739850   -0.269283
     60          6           0       14.191110    1.844857   -0.138220
     61          6           0       15.329144    2.162478   -0.992182
     62          6           0       15.968434    3.522472   -0.690316
     63          6           0       17.310115    3.888255   -1.339669
     64          6           0       17.101562    4.065180   -2.795910
     65          6           0       17.908196    5.172404   -0.652917
     66          1           0       -2.687642    1.135490    3.659219
     67          1           0       -6.315623    5.752381    0.760664
     68          1           0       -8.490435    1.115474   -3.270963
     69          1           0       -3.756555   -3.189809    1.911671
     70          1           0       -1.885183   -1.164849    2.818108
     71          1           0       -3.094881   -2.909768    4.141504
     72          1           0       -3.375437   -1.238913    4.800655
     73          1           0       -4.756415   -1.791460    3.812379
     74          1           0       -2.520110   -3.277864   -0.019550
     75          1           0       -1.522673   -1.732118    0.357865
     76          1           0       -0.639260   -2.837691    2.265726
     77          1           0       -1.570553   -4.251330    1.910019
     78          1           0       -1.928150    2.901743    3.949387
     79          1           0       -2.640438    4.873704    4.414617
     80          1           0       -3.347081    3.253710    5.218800
     81          1           0       -5.007145    6.648348    2.333805
     82          1           0       -9.910673    2.757057   -3.031424
     83          1           0       -9.992968    4.583594   -2.857948
     84          1           0       -9.732631    3.886879   -5.225435
     85          1           0       -8.016529    4.865787   -4.723252
     86          1           0       -8.079938    2.993707   -4.748133
     87          1           0       -8.306147   -1.422846   -5.002055
     88          1           0       -8.352669   -2.718553   -4.205457
     89          1           0       -9.538722   -1.342253   -3.629896
     90          1           0       -4.115857   -4.045991   -1.441364
     91          1           0        2.398468   -5.944033    0.933742
     92          1           0        2.258577   -5.472271   -0.508612
     93          1           0        3.560913   -4.216043    2.138831
     94          1           0        2.644135   -3.226361   -1.596132
     95          1           0        3.771352   -1.972079   -1.575027
     96          1           0        4.354035   -3.600443   -2.140185
     97          1           0        4.947517   -1.408310    0.754313
     98          1           0        5.134020   -2.526742    1.851025
     99          1           0        6.807363   -3.705867    0.155354
    100          1           0        6.324783   -2.569639   -1.065260
    101          1           0        7.125670   -0.860104    0.417324
    102          1           0        7.803246   -1.796151    1.803225
    103          1           0        8.780406   -2.123478   -1.132599
    104          1           0        8.600495   -4.267382    0.349225
    105          1           0       10.318873   -3.765444   -0.445527
    106          1           0        9.902330   -3.468493    1.459408
    107          1           0        9.417149    0.101759    0.017901
    108          1           0       10.141765   -1.008402    1.259016
    109          1           0       11.804366   -1.819910   -0.265053
    110          1           0       11.120520   -0.517471   -1.476260
    111          1           0       11.545626    1.073756    0.065511
    112          1           0       12.419396    0.064010    1.338897
    113          1           0       13.283987    0.637426   -1.593378
    114          1           0       14.804184   -0.854179    0.900324
    115          1           0       14.038286   -1.682264   -0.654988
    116          1           0       15.455337   -0.641612   -0.911478
    117          1           0       13.260258    2.416926   -0.365057
    118          1           0       14.304053    1.894254    0.946834
    119          1           0       16.092853    1.371444   -0.763913
    120          1           0       15.023097    2.034969   -1.962432
    121          1           0       15.248775    4.292749   -0.965377
    122          1           0       16.050739    3.582145    0.516245
    123          1           0       18.039817    3.022793   -1.044209
    124          1           0       16.377420    4.851136   -3.217617
    125          1           0       18.040660    4.445108   -3.179821
    126          1           0       16.941206    3.308749   -3.613990
    127          1           0       18.103485    5.057923    0.492481
    128          1           0       18.999575    5.254753   -1.154627
    129          1           0       17.291239    5.971752   -0.895600
    130          1           0       -5.126895   -7.824045   -0.091583
    131          1           0       -6.558593   -6.991810    0.631726
    132          1           0       -5.225153   -6.772300    1.572497
    133          8           0       -7.677024    6.910193   -0.446092
    134          1           0       -8.794640    6.315112   -2.086371
 ---------------------------------------------------------------------

 SCF Done:  E(RCAM-B3LYP) =  -3043.42873995     A.U. after   16 cycles

 Excitation energies and oscillator strengths:

 Excited State   1:      Singlet-A      1.9458 eV  637.19 nm  f=0.2423  <S**2>=0.000
     243 -> 246        0.19536
     244 -> 245        0.67202
 This state for optimization and/or second-order correction.
 Total Energy, E(TD-HF/TD-DFT) =  -3043.35723306
 Copying the excited state density for this state as the 1-particle RhoCI density.

 The electronic state is 1-A.
 Alpha  occ. eigenvalues --  -46.81664 -19.22254 -19.21398 -19.17502 -19.16734
 Alpha  occ. eigenvalues --  -19.16636 -19.16619 -19.16592 -14.39594 -14.37281
 Alpha  occ. eigenvalues --  -14.37190 -14.36441 -10.34746 -10.34063 -10.31520
 Alpha  occ. eigenvalues --  -10.30909 -10.28542 -10.27860 -10.27477 -10.27376
 Alpha  occ. eigenvalues --  -10.27001 -10.26444 -10.26405 -10.26395 -10.26284
 Alpha  occ. eigenvalues --  -10.26099 -10.25704 -10.25632 -10.25434 -10.25387
 Alpha  occ. eigenvalues --  -10.24840 -10.24508 -10.24452 -10.24161 -10.24142
 Alpha  occ. eigenvalues --  -10.23809 -10.23789 -10.23730 -10.23641 -10.23491
 Alpha  occ. eigenvalues --  -10.23486 -10.23448 -10.23442 -10.23405 -10.23319
 Alpha  occ. eigenvalues --  -10.23037 -10.22747 -10.22595 -10.22481 -10.22400
 Alpha  occ. eigenvalues --  -10.22124 -10.22000 -10.21881 -10.21801 -10.21761
 Alpha  occ. eigenvalues --  -10.21579 -10.21298 -10.21192 -10.21056 -10.20728
 Alpha  occ. eigenvalues --  -10.20670 -10.20608 -10.20591 -10.20555 -10.19809
 Alpha  occ. eigenvalues --  -10.19363  -3.10271  -1.85212  -1.84744  -1.84677
 Alpha  occ. eigenvalues --   -1.14389  -1.12716  -1.08779  -1.05688  -1.05007
 Alpha  occ. eigenvalues --   -1.04076  -1.03134  -1.01184  -1.00640  -0.99986
 Alpha  occ. eigenvalues --   -0.99315  -0.88214  -0.86739  -0.86510  -0.86005
 Alpha  occ. eigenvalues --   -0.85196  -0.84765  -0.84365  -0.84058  -0.83450
 Alpha  occ. eigenvalues --   -0.82952  -0.82813  -0.81923  -0.80797  -0.79594
 Alpha  occ. eigenvalues --   -0.79312  -0.78783  -0.77480  -0.77200  -0.76815
 Alpha  occ. eigenvalues --   -0.74809  -0.74639  -0.73737  -0.72254  -0.71716
 Alpha  occ. eigenvalues --   -0.71104  -0.70721  -0.69912  -0.69667  -0.69372
 Alpha  occ. eigenvalues --   -0.69310  -0.69141  -0.68009  -0.66795  -0.66269
 Alpha  occ. eigenvalues --   -0.65856  -0.65141  -0.64172  -0.62626  -0.62002
 Alpha  occ. eigenvalues --   -0.61706  -0.61627  -0.60141  -0.59202  -0.58997
 Alpha  occ. eigenvalues --   -0.58708  -0.58416  -0.57959  -0.57823  -0.57695
 Alpha  occ. eigenvalues --   -0.57217  -0.56461  -0.56037  -0.55551  -0.55182
 Alpha  occ. eigenvalues --   -0.54069  -0.53403  -0.53112  -0.52660  -0.52305
 Alpha  occ. eigenvalues --   -0.51886  -0.51709  -0.51644  -0.50921  -0.50719
 Alpha  occ. eigenvalues --   -0.50319  -0.49987  -0.49675  -0.49520  -0.49239
 Alpha  occ. eigenvalues --   -0.49081  -0.48430  -0.48254  -0.48061  -0.47599
 Alpha  occ. eigenvalues --   -0.47323  -0.47075  -0.47029  -0.46744  -0.46641
 Alpha  occ. eigenvalues --   -0.46436  -0.46332  -0.46213  -0.46057  -0.45959
 Alpha  occ. eigenvalues --   -0.45868  -0.45105  -0.44899  -0.44819  -0.44559
 Alpha  occ. eigenvalues --   -0.44436  -0.44275  -0.43991  -0.43826  -0.43609
 Alpha  occ. eigenvalues --   -0.43415  -0.43219  -0.42948  -0.42817  -0.42398
 Alpha  occ. eigenvalues --   -0.42326  -0.42055  -0.41974  -0.41771  -0.41468
 Alpha  occ. eigenvalues --   -0.41188  -0.40878  -0.40832  -0.40732  -0.40643
 Alpha  occ. eigenvalues --   -0.40361  -0.40212  -0.40179  -0.39844  -0.39683
 Alpha  occ. eigenvalues --   -0.39560  -0.39202  -0.39182  -0.38906  -0.38827
 Alpha  occ. eigenvalues --   -0.38816  -0.38708  -0.38500  -0.38452  -0.38012
 Alpha  occ. eigenvalues --   -0.37759  -0.37713  -0.37443  -0.37232  -0.37119
 Alpha  occ. eigenvalues --   -0.36972  -0.36617  -0.36424  -0.36272  -0.35891
 Alpha  occ. eigenvalues --   -0.35527  -0.35378  -0.35263  -0.35057  -0.34251
 Alpha  occ. eigenvalues --   -0.33819  -0.33739  -0.33690  -0.33583  -0.33149
 Alpha  occ. eigenvalues --   -0.32883  -0.32632  -0.31914  -0.31788  -0.31201
 Alpha  occ. eigenvalues --   -0.31179  -0.30630  -0.30351  -0.29871  -0.29597
 Alpha  occ. eigenvalues --   -0.29141  -0.28483  -0.28350  -0.28134  -0.27620
 Alpha  occ. eigenvalues --   -0.27323  -0.27233  -0.23663  -0.20829
 Alpha virt. eigenvalues --   -0.08553  -0.06464  -0.01984  -0.01064   0.00658
 Alpha virt. eigenvalues --    0.03021   0.03233   0.03467   0.04369   0.04556
 Alpha virt. eigenvalues --    0.05177   0.05337   0.07436   0.08612   0.09224

 Mulliken charges:
               1
     1  Mg   0.821864
     2  C    0.141463
     3  C   -0.204784
     4  C   -0.197692
     5  C   -0.124009
     6  N   -0.622605
     7  C    0.275237
     8  C   -0.192811
     9  C   -0.123063
    10  C    0.325299
    11  C   -0.284175
    12  C   -0.131588
    13  C   -0.280424
    14  C    0.599009
    15  O   -0.444343
    16  O   -0.458639
    17  N   -0.695537
    18  C    0.330711
    19  C    0.041370
    20  C   -0.038700
    21  C    0.293559
    22  C   -0.366302
    23  C    0.276337
    24  O   -0.407037
    25  N   -0.665588
    26  C    0.318007
    27  C   -0.036393
    28  C    0.052980
    29  C    0.262351
    30  C    0.253762
    31  C   -0.262791
    32  C   -0.296933
    33  N   -0.776290
    34  C    0.248075
    35  C    0.088187
    36  C    0.046234
    37  C    0.313526
    38  C   -0.430699
    39  C    0.330024
    40  O   -0.470432
    41  C   -0.339847
    42  C    0.640205
    43  O   -0.473942
    44  O   -0.473667
    45  C   -0.097715
    46  C    0.057282
    47  C   -0.167246
    48  C    0.180952
    49  C   -0.392251
    50  C   -0.233354
    51  C   -0.187913
    52  C   -0.121729
    53  C   -0.050217
    54  C   -0.302478
    55  C   -0.173679
    56  C   -0.187744
    57  C   -0.160080
    58  C   -0.057640
    59  C   -0.301505
    60  C   -0.172924
    61  C   -0.153365
    62  C   -0.151251
    63  C   -0.048661
    64  C   -0.321826
    65  C   -0.297612
    66  H    0.077652
    67  H    0.147343
    68  H    0.082513
    69  H    0.122983
    70  H    0.106486
    71  H    0.096852
    72  H    0.124032
    73  H    0.102382
    74  H    0.113272
    75  H    0.107219
    76  H    0.118192
    77  H    0.117174
    78  H    0.087627
    79  H    0.162389
    80  H    0.113157
    81  H    0.067497
    82  H    0.120923
    83  H    0.106949
    84  H    0.090594
    85  H    0.131915
    86  H    0.104251
    87  H    0.113962
    88  H    0.144891
    89  H    0.125727
    90  H    0.156432
    91  H    0.093788
    92  H    0.108826
    93  H    0.098759
    94  H    0.154244
    95  H    0.102593
    96  H    0.097424
    97  H    0.100628
    98  H    0.101745
    99  H    0.101889
   100  H    0.097451
   101  H    0.100081
   102  H    0.001747
   103  H    0.089138
   104  H    0.101099
   105  H    0.104293
   106  H    0.069718
   107  H    0.083210
   108  H    0.101490
   109  H    0.103941
   110  H    0.087477
   111  H    0.089773
   112  H    0.063481
   113  H    0.090804
   114  H    0.089041
   115  H    0.103042
   116  H    0.083923
   117  H    0.074876
   118  H    0.087819
   119  H    0.086142
   120  H    0.094221
   121  H    0.083667
   122  H    0.052242
   123  H    0.076424
   124  H    0.093996
   125  H    0.099823
   126  H    0.106684
   127  H    0.098204
   128  H    0.080163
   129  H    0.117965
   130  H    0.141850
   131  H    0.132242
   132  H    0.145715
   133  O   -0.451354
   134  H    0.098352
 Sum of Mulliken charges =  -0.00000

 Dipole moment (field-independent basis, Debye):
    X=              1.7657    Y=             -4.0756    Z=             -2.1883  Tot=              4.9514
 Quadrupole moment (field-independent basis, Debye-Ang):
   XX=           -379.2753   YY=           -437.5378   ZZ=           -391.5444
   XY=              0.4473   XZ=             17.1751   YZ=            -38.4993

 Normal termination of Gaussian 16 at Fri Oct 11 10:53:44 2019.
