 Gaussian 16, Revision A.03,
 Gaussian 16:  ES64L-G16RevA.03 25-Dec-2016

 ----------------------------------------------------------------------
 # td=(NStates=1) iop(3/107=0140000000,3/108=0140000000) iop(3/107=0140
 000000,3/108=0140000000) CAM-B3LYP/6-31G(d,p)
 ----------------------------------------------------------------------

 --
 TD
 --
 Symbolic Z-matrix:
 Charge =  0 Multiplicity = 1

                         Standard orientation:
 ---------------------------------------------------------------------
 Center     Atomic      Atomic             Coordinates (Angstroms)
 Number     Number       Type             X           Y           Z
 ---------------------------------------------------------------------
      1         12           0       -5.653449    1.194911    0.169964
      2          6           0       -5.035744   -2.128327   -0.251974
      3          6           0       -3.523185    1.138213    2.808118
      4          6           0       -6.277592    4.471726    0.678186
      5          6           0       -7.746080    1.169052   -2.474747
      6          7           0       -4.486897   -0.245789    1.131531
      7          6           0       -4.236252   -1.581866    0.803438
      8          6           0       -3.258544   -2.322036    1.556669
      9          6           0       -3.025686   -1.315071    2.685573
     10          6           0       -3.621691   -0.127581    2.249252
     11          6           0       -3.657977   -1.670781    4.070373
     12          6           0       -1.979442   -2.650231    0.698853
     13          6           0       -0.992568   -3.603107    1.402315
     14          6           0        0.225497   -3.912694    0.559971
     15          8           0        0.477066   -3.393080   -0.591966
     16          8           0        1.032112   -4.625899    1.319341
     17          7           0       -4.923995    2.581857    1.431357
     18          6           0       -4.035698    2.414976    2.519051
     19          6           0       -3.779240    3.648398    3.286844
     20          6           0       -4.526064    4.614785    2.647298
     21          6           0       -5.217033    3.928055    1.505206
     22          6           0       -2.922770    3.713396    4.394248
     23          6           0       -4.582139    6.031430    2.943956
     24          8           0       -4.090158    6.597681    3.902495
     25          7           0       -6.866655    2.620537   -0.727466
     26          6           0       -6.913867    3.897411   -0.412751
     27          6           0       -7.811281    4.646201   -1.283457
     28          6           0       -8.247564    3.627930   -2.228013
     29          6           0       -7.614193    2.440844   -1.928590
     30          6           0       -8.183803    6.018045   -1.292679
     31          6           0       -9.232047    3.878352   -3.254350
     32          6           0       -8.569176    4.026016   -4.716528
     33          7           0       -6.373984   -0.141297   -1.032088
     34          6           0       -7.232098   -0.001269   -2.114711
     35          6           0       -7.476852   -1.274706   -2.666605
     36          6           0       -6.641513   -2.217942   -2.066698
     37          6           0       -6.018680   -1.448535   -0.984294
     38          6           0       -8.341860   -1.537400   -3.982409
     39          6           0       -6.160906   -3.515020   -2.005672
     40          8           0       -6.423677   -4.464801   -2.648080
     41          6           0       -5.023452   -3.562038   -0.862123
     42          6           0       -5.353654   -4.678723    0.172787
     43          8           0       -5.686229   -4.507413    1.342357
     44          8           0       -5.052958   -5.861671   -0.306923
     45          6           0       -5.435278   -7.003931    0.513027
     46          6           0        2.323139   -5.011417    0.607237
     47          6           0        3.412403   -4.134213    0.970935
     48          6           0        3.969708   -3.340016    0.094722
     49          6           0        3.674718   -3.280028   -1.346660
     50          6           0        5.065385   -2.333897    0.485044
     51          6           0        6.555381   -2.624094    0.084280
     52          6           0        7.604946   -1.726317    0.632681
     53          6           0        8.998302   -1.899965   -0.058378
     54          6           0        9.534074   -3.282345    0.017819
     55          6           0        9.893437   -0.863719    0.502814
     56          6           0       11.171221   -0.800162   -0.277987
     57          6           0       12.157502    0.254980    0.113621
     58          6           0       13.545062    0.525349   -0.597043
     59          6           0       14.370945   -0.822716   -0.602945
     60          6           0       14.310204    1.692662   -0.171789
     61          6           0       15.457046    2.094940   -1.052328
     62          6           0       16.023215    3.411003   -0.482247
     63          6           0       17.371874    3.844152   -1.189656
     64          6           0       17.220065    3.986772   -2.748317
     65          6           0       17.823903    5.178419   -0.609151
     66          1           0       -2.749938    1.187033    3.805437
     67          1           0       -6.507773    5.555024    0.605089
     68          1           0       -8.399954    1.115635   -3.432994
     69          1           0       -3.750156   -3.310299    1.970955
     70          1           0       -1.913658   -1.258361    2.790108
     71          1           0       -3.234153   -2.712550    4.484248
     72          1           0       -3.419459   -0.841248    4.585563
     73          1           0       -4.716397   -2.036372    3.992064
     74          1           0       -2.467941   -3.006422   -0.226165
     75          1           0       -1.494388   -1.680965    0.538083
     76          1           0       -0.667996   -3.196473    2.261202
     77          1           0       -1.631467   -4.638199    1.727309
     78          1           0       -1.962734    3.382419    3.963488
     79          1           0       -2.659019    4.768085    4.733466
     80          1           0       -3.061726    3.033972    5.299936
     81          1           0       -5.266411    6.562669    2.204176
     82          1           0       -9.975361    3.026501   -3.300222
     83          1           0       -9.951061    4.719049   -3.084475
     84          1           0       -9.281512    4.125446   -5.368045
     85          1           0       -7.836445    4.880484   -4.836969
     86          1           0       -8.084896    2.951667   -5.044502
     87          1           0       -7.955672   -0.742038   -4.728290
     88          1           0       -8.497385   -2.633261   -4.240809
     89          1           0       -9.382655   -1.177106   -3.645964
     90          1           0       -3.986454   -3.734998   -1.389798
     91          1           0        2.350113   -6.122886    0.881160
     92          1           0        2.059035   -5.040384   -0.388439
     93          1           0        3.694491   -3.982221    1.943180
     94          1           0        2.636727   -3.597315   -1.554492
     95          1           0        3.438982   -2.125006   -1.636842
     96          1           0        4.216291   -3.604087   -2.179662
     97          1           0        4.711313   -1.342141    0.236892
     98          1           0        5.167352   -2.319739    1.744521
     99          1           0        6.846245   -3.664924    0.455003
    100          1           0        6.526253   -2.709248   -1.093029
    101          1           0        7.317170   -0.474810    0.602769
    102          1           0        7.753837   -2.040597    1.683363
    103          1           0        8.764148   -1.722866   -1.109265
    104          1           0        8.719085   -4.034086   -0.412507
    105          1           0       10.485424   -3.453374   -0.602117
    106          1           0        9.947550   -3.658294    0.933736
    107          1           0        9.419630    0.295066    0.550623
    108          1           0       10.122499   -1.180387    1.532802
    109          1           0       11.693015   -1.651711   -0.150273
    110          1           0       10.734982   -0.757470   -1.380577
    111          1           0       11.567965    1.360409   -0.070771
    112          1           0       12.488415    0.269277    1.345516
    113          1           0       13.297116    0.671837   -1.762541
    114          1           0       14.697570   -1.279701    0.343098
    115          1           0       13.702371   -1.617493   -1.139351
    116          1           0       15.219066   -0.646835   -1.251869
    117          1           0       13.642122    2.696072    0.006676
    118          1           0       14.519638    1.694941    0.986218
    119          1           0       16.328347    1.348919   -1.009895
    120          1           0       15.182838    2.282440   -2.059708
    121          1           0       15.345705    4.208180   -0.506480
    122          1           0       16.326734    3.156911    0.596158
    123          1           0       18.006745    3.057356   -0.963002
    124          1           0       16.440538    4.529668   -3.221492
    125          1           0       18.324567    4.197018   -3.013421
    126          1           0       17.048833    2.894134   -3.118447
    127          1           0       18.221831    5.209478    0.499105
    128          1           0       18.663407    5.423474   -1.254760
    129          1           0       17.105873    6.085194   -0.633505
    130          1           0       -5.042099   -7.869305    0.081396
    131          1           0       -6.388143   -6.921740    0.808207
    132          1           0       -4.961667   -6.806027    1.531036
    133          8           0       -7.774000    6.821617   -0.479419
    134          1           0       -9.147050    6.427267   -1.930522
 ---------------------------------------------------------------------

 SCF Done:  E(RCAM-B3LYP) =  -3043.48906514     A.U. after   16 cycles

 Excitation energies and oscillator strengths:

 Excited State   1:      Singlet-A      2.0244 eV  612.45 nm  f=0.1179  <S**2>=0.000
     243 -> 246        0.32084
     244 -> 245        0.62007
 This state for optimization and/or second-order correction.
 Total Energy, E(TD-HF/TD-DFT) =  -3043.41466976
 Copying the excited state density for this state as the 1-particle RhoCI density.

 The electronic state is 1-A.
 Alpha  occ. eigenvalues --  -46.80276 -19.23511 -19.23075 -19.17110 -19.17009
 Alpha  occ. eigenvalues --  -19.16895 -19.16645 -19.16101 -14.39227 -14.37482
 Alpha  occ. eigenvalues --  -14.36033 -14.36024 -10.35726 -10.35285 -10.30572
 Alpha  occ. eigenvalues --  -10.30131 -10.29911 -10.27870 -10.27560 -10.27386
 Alpha  occ. eigenvalues --  -10.27263 -10.27238 -10.26848 -10.25827 -10.25826
 Alpha  occ. eigenvalues --  -10.25514 -10.25399 -10.25390 -10.25323 -10.24885
 Alpha  occ. eigenvalues --  -10.24854 -10.24782 -10.24424 -10.24176 -10.24118
 Alpha  occ. eigenvalues --  -10.24059 -10.23975 -10.23902 -10.23761 -10.23737
 Alpha  occ. eigenvalues --  -10.23670 -10.23451 -10.23414 -10.23325 -10.23056
 Alpha  occ. eigenvalues --  -10.23020 -10.22843 -10.22843 -10.22806 -10.22526
 Alpha  occ. eigenvalues --  -10.22461 -10.22391 -10.22027 -10.21920 -10.21758
 Alpha  occ. eigenvalues --  -10.21749 -10.21703 -10.21477 -10.21374 -10.21192
 Alpha  occ. eigenvalues --  -10.21183 -10.20957 -10.20879 -10.20791 -10.20738
 Alpha  occ. eigenvalues --  -10.20114  -3.09149  -1.84060  -1.83626  -1.83589
 Alpha  occ. eigenvalues --   -1.14570  -1.13167  -1.09085  -1.06430  -1.06339
 Alpha  occ. eigenvalues --   -1.04213  -1.01894  -1.00607  -0.99790  -0.99216
 Alpha  occ. eigenvalues --   -0.98148  -0.88057  -0.87401  -0.86612  -0.86170
 Alpha  occ. eigenvalues --   -0.85570  -0.84911  -0.84796  -0.84292  -0.83452
 Alpha  occ. eigenvalues --   -0.82745  -0.82459  -0.82048  -0.80901  -0.79748
 Alpha  occ. eigenvalues --   -0.79090  -0.78262  -0.77712  -0.77104  -0.76857
 Alpha  occ. eigenvalues --   -0.75581  -0.75217  -0.74484  -0.72984  -0.72147
 Alpha  occ. eigenvalues --   -0.71843  -0.70565  -0.70090  -0.69853  -0.69739
 Alpha  occ. eigenvalues --   -0.69507  -0.69144  -0.68007  -0.67201  -0.66584
 Alpha  occ. eigenvalues --   -0.65654  -0.65061  -0.64229  -0.62358  -0.62126
 Alpha  occ. eigenvalues --   -0.61517  -0.60997  -0.60000  -0.59394  -0.59145
 Alpha  occ. eigenvalues --   -0.58968  -0.58444  -0.57652  -0.57419  -0.56971
 Alpha  occ. eigenvalues --   -0.56351  -0.55567  -0.54954  -0.54682  -0.54482
 Alpha  occ. eigenvalues --   -0.53832  -0.53214  -0.52706  -0.52501  -0.52218
 Alpha  occ. eigenvalues --   -0.51814  -0.51568  -0.51262  -0.51108  -0.50831
 Alpha  occ. eigenvalues --   -0.50487  -0.49771  -0.49517  -0.49168  -0.48854
 Alpha  occ. eigenvalues --   -0.48738  -0.48445  -0.48379  -0.48301  -0.47992
 Alpha  occ. eigenvalues --   -0.47767  -0.47697  -0.47462  -0.47009  -0.46571
 Alpha  occ. eigenvalues --   -0.46384  -0.46312  -0.46252  -0.46155  -0.45713
 Alpha  occ. eigenvalues --   -0.45531  -0.45421  -0.45191  -0.45114  -0.44709
 Alpha  occ. eigenvalues --   -0.44463  -0.44365  -0.44114  -0.43872  -0.43664
 Alpha  occ. eigenvalues --   -0.43354  -0.43293  -0.43074  -0.42966  -0.42737
 Alpha  occ. eigenvalues --   -0.42490  -0.42290  -0.41964  -0.41870  -0.41557
 Alpha  occ. eigenvalues --   -0.41507  -0.41439  -0.41299  -0.41113  -0.41053
 Alpha  occ. eigenvalues --   -0.40943  -0.40739  -0.40529  -0.40379  -0.40018
 Alpha  occ. eigenvalues --   -0.39848  -0.39558  -0.39223  -0.39032  -0.38869
 Alpha  occ. eigenvalues --   -0.38736  -0.38649  -0.38404  -0.38268  -0.38021
 Alpha  occ. eigenvalues --   -0.37775  -0.37531  -0.37454  -0.37179  -0.37002
 Alpha  occ. eigenvalues --   -0.36952  -0.36661  -0.36539  -0.36168  -0.35977
 Alpha  occ. eigenvalues --   -0.35921  -0.35611  -0.35186  -0.35165  -0.35112
 Alpha  occ. eigenvalues --   -0.34451  -0.33987  -0.33414  -0.33307  -0.33216
 Alpha  occ. eigenvalues --   -0.32915  -0.32710  -0.32594  -0.31917  -0.31266
 Alpha  occ. eigenvalues --   -0.31047  -0.30885  -0.30786  -0.30371  -0.29645
 Alpha  occ. eigenvalues --   -0.28898  -0.28738  -0.28206  -0.27621  -0.27485
 Alpha  occ. eigenvalues --   -0.27012  -0.26778  -0.22481  -0.21615
 Alpha virt. eigenvalues --   -0.08284  -0.06848  -0.01741  -0.00475   0.00687
 Alpha virt. eigenvalues --    0.01834   0.02758   0.02793   0.03977   0.04311
 Alpha virt. eigenvalues --    0.04708   0.06565   0.07867   0.08134   0.09448

 Mulliken charges:
               1
     1  Mg   0.818781
     2  C    0.038775
     3  C   -0.241502
     4  C   -0.181178
     5  C   -0.196522
     6  N   -0.622282
     7  C    0.337947
     8  C   -0.167801
     9  C   -0.183247
    10  C    0.399970
    11  C   -0.290055
    12  C   -0.161257
    13  C   -0.249047
    14  C    0.609937
    15  O   -0.508852
    16  O   -0.453158
    17  N   -0.665319
    18  C    0.289149
    19  C    0.140890
    20  C   -0.027822
    21  C    0.281756
    22  C   -0.430311
    23  C    0.239755
    24  O   -0.421589
    25  N   -0.693464
    26  C    0.331425
    27  C   -0.013773
    28  C    0.078499
    29  C    0.282777
    30  C    0.205812
    31  C   -0.282439
    32  C   -0.303210
    33  N   -0.759777
    34  C    0.356279
    35  C   -0.020395
    36  C    0.094513
    37  C    0.270014
    38  C   -0.365942
    39  C    0.314600
    40  O   -0.430135
    41  C   -0.351318
    42  C    0.614308
    43  O   -0.491486
    44  O   -0.420563
    45  C   -0.087063
    46  C   -0.021946
    47  C   -0.086568
    48  C    0.163073
    49  C   -0.404863
    50  C   -0.221729
    51  C   -0.166296
    52  C   -0.145098
    53  C   -0.041086
    54  C   -0.326300
    55  C   -0.149165
    56  C   -0.154196
    57  C   -0.146935
    58  C   -0.040548
    59  C   -0.318043
    60  C   -0.148339
    61  C   -0.167862
    62  C   -0.174069
    63  C   -0.054353
    64  C   -0.315959
    65  C   -0.300046
    66  H    0.047962
    67  H    0.134104
    68  H    0.082858
    69  H    0.132570
    70  H    0.110672
    71  H    0.089099
    72  H    0.124459
    73  H    0.136660
    74  H    0.114367
    75  H    0.119281
    76  H    0.147672
    77  H    0.107427
    78  H    0.131966
    79  H    0.156128
    80  H    0.132698
    81  H    0.076720
    82  H    0.105090
    83  H    0.115721
    84  H    0.127814
    85  H    0.118767
    86  H    0.079497
    87  H    0.129371
    88  H    0.149055
    89  H    0.119439
    90  H    0.154004
    91  H    0.111442
    92  H    0.142072
    93  H    0.084978
    94  H    0.149524
    95  H    0.091831
    96  H    0.134566
    97  H    0.114561
    98  H    0.046039
    99  H    0.098910
   100  H    0.076800
   101  H    0.056906
   102  H    0.094038
   103  H    0.091401
   104  H    0.092788
   105  H    0.099285
   106  H    0.109991
   107  H    0.063093
   108  H    0.088379
   109  H    0.107420
   110  H    0.077528
   111  H    0.043470
   112  H    0.049589
   113  H    0.062643
   114  H    0.102671
   115  H    0.087401
   116  H    0.105462
   117  H    0.064989
   118  H    0.076934
   119  H    0.084806
   120  H    0.104701
   121  H    0.096585
   122  H    0.078608
   123  H    0.098363
   124  H    0.118960
   125  H    0.095628
   126  H    0.085968
   127  H    0.083822
   128  H    0.094404
   129  H    0.094640
   130  H    0.136270
   131  H    0.148370
   132  H    0.117235
   133  O   -0.417792
   134  H    0.045970
 Sum of Mulliken charges =  -0.00000

 Dipole moment (field-independent basis, Debye):
    X=              3.5407    Y=             -7.0288    Z=             -1.1457  Tot=              7.9532
 Quadrupole moment (field-independent basis, Debye-Ang):
   XX=           -377.9958   YY=           -435.6224   ZZ=           -394.2924
   XY=             14.1793   XZ=             22.7652   YZ=            -37.4542

 Normal termination of Gaussian 16 at Thu Oct  3 22:07:59 2019.
