 Gaussian 16, Revision A.03,
 Gaussian 16:  ES64L-G16RevA.03 25-Dec-2016

 ----------------------------------------------------------------------
 # td=(NStates=1) iop(3/107=0140000000,3/108=0140000000) iop(3/107=0140
 000000,3/108=0140000000) CAM-B3LYP/6-31G(d,p)
 ----------------------------------------------------------------------

 --
 TD
 --
 Symbolic Z-matrix:
 Charge =  0 Multiplicity = 1

                         Standard orientation:
 ---------------------------------------------------------------------
 Center     Atomic      Atomic             Coordinates (Angstroms)
 Number     Number       Type             X           Y           Z
 ---------------------------------------------------------------------
      1         12           0       -5.611244    1.222833    0.149156
      2          6           0       -5.152775   -2.072194   -0.316928
      3          6           0       -3.528384    1.072373    2.780617
      4          6           0       -6.044543    4.567007    0.605697
      5          6           0       -7.835990    1.216252   -2.471006
      6          7           0       -4.359061   -0.315212    1.014477
      7          6           0       -4.298036   -1.631721    0.705438
      8          6           0       -3.304864   -2.333269    1.507859
      9          6           0       -3.007606   -1.303678    2.586723
     10          6           0       -3.579076   -0.061928    2.115466
     11          6           0       -3.633335   -1.833264    4.084084
     12          6           0       -2.145811   -2.749522    0.694057
     13          6           0       -1.052684   -3.598973    1.461152
     14          6           0        0.210524   -3.918872    0.609703
     15          8           0        0.345806   -3.385370   -0.485766
     16          8           0        1.022304   -4.623085    1.339042
     17          7           0       -4.942654    2.527612    1.483953
     18          6           0       -4.032793    2.351786    2.543392
     19          6           0       -3.767003    3.604447    3.256738
     20          6           0       -4.538896    4.581119    2.616310
     21          6           0       -5.225327    3.976768    1.512674
     22          6           0       -2.843824    3.766766    4.383704
     23          6           0       -4.566737    5.969985    3.000559
     24          8           0       -4.044108    6.499380    3.948920
     25          7           0       -6.778525    2.632279   -0.770261
     26          6           0       -6.807718    3.999305   -0.416238
     27          6           0       -7.780409    4.655171   -1.297798
     28          6           0       -8.334073    3.681166   -2.097434
     29          6           0       -7.668294    2.415391   -1.792224
     30          6           0       -8.186565    6.124113   -1.194319
     31          6           0       -9.345530    3.933527   -3.265568
     32          6           0       -8.609174    4.211160   -4.581638
     33          7           0       -6.370127   -0.116607   -1.141327
     34          6           0       -7.259527    0.055328   -2.139453
     35          6           0       -7.568178   -1.266807   -2.740339
     36          6           0       -6.692638   -2.148609   -2.056799
     37          6           0       -5.996681   -1.370658   -1.146722
     38          6           0       -8.541216   -1.520747   -3.814891
     39          6           0       -6.258768   -3.523761   -1.992117
     40          8           0       -6.764323   -4.462093   -2.663186
     41          6           0       -5.179656   -3.537594   -0.857379
     42          6           0       -5.477627   -4.694482    0.078529
     43          8           0       -5.953997   -4.525684    1.233323
     44          8           0       -5.152529   -5.827151   -0.313340
     45          6           0       -5.490777   -6.960687    0.576235
     46          6           0        2.311307   -5.052396    0.615596
     47          6           0        3.395265   -4.015793    0.914055
     48          6           0        4.029217   -3.222441    0.128180
     49          6           0        3.732950   -3.014412   -1.377698
     50          6           0        5.123123   -2.362499    0.668396
     51          6           0        6.504315   -2.631786   -0.047021
     52          6           0        7.695120   -1.794136    0.451257
     53          6           0        9.022739   -2.010049   -0.331082
     54          6           0        9.533527   -3.361865   -0.021533
     55          6           0        9.985066   -0.974676    0.210607
     56          6           0       11.383931   -0.847122   -0.343381
     57          6           0       12.321084    0.156553    0.238870
     58          6           0       13.599625    0.300337   -0.556080
     59          6           0       14.579097   -0.840955   -0.268868
     60          6           0       14.249301    1.699968   -0.237552
     61          6           0       15.572527    2.049007   -0.962760
     62          6           0       16.061946    3.470954   -0.568932
     63          6           0       17.404127    3.836083   -1.115620
     64          6           0       17.453441    3.900835   -2.676190
     65          6           0       17.965232    5.349894   -0.645131
     66          1           0       -2.687482    0.915437    3.629142
     67          1           0       -6.361665    5.574552    0.894917
     68          1           0       -8.547809    1.205509   -3.292007
     69          1           0       -3.686141   -3.179247    2.063344
     70          1           0       -1.933292   -1.354959    2.890826
     71          1           0       -3.027238   -2.700381    4.411582
     72          1           0       -3.505144   -1.227612    4.850576
     73          1           0       -4.634884   -2.223320    4.103632
     74          1           0       -2.333294   -3.743299   -0.194265
     75          1           0       -1.710663   -1.966198    0.223051
     76          1           0       -0.605263   -3.029397    2.300495
     77          1           0       -1.580751   -4.642118    1.877421
     78          1           0       -1.712175    3.481469    4.345856
     79          1           0       -2.720799    4.694419    4.636122
     80          1           0       -3.010330    3.191594    5.213356
     81          1           0       -5.253099    6.306402    2.264432
     82          1           0       -9.994663    2.952497   -3.278551
     83          1           0      -10.066551    4.917544   -2.883450
     84          1           0       -9.408302    4.341223   -5.345714
     85          1           0       -8.091062    5.131475   -4.494115
     86          1           0       -7.853627    3.473508   -4.947591
     87          1           0       -8.516126   -0.814787   -4.607264
     88          1           0       -8.416362   -2.615677   -4.169199
     89          1           0       -9.633473   -1.444934   -3.418345
     90          1           0       -4.277843   -3.862746   -1.421574
     91          1           0        2.567564   -6.149863    1.132251
     92          1           0        1.858618   -5.147153   -0.475008
     93          1           0        3.597708   -4.006233    2.029083
     94          1           0        2.651826   -3.274824   -1.291975
     95          1           0        3.624898   -1.764633   -1.576752
     96          1           0        4.468844   -3.369730   -2.048061
     97          1           0        5.036059   -1.272842    0.457611
     98          1           0        5.271753   -2.515451    1.743306
     99          1           0        6.728497   -3.450924    0.182847
    100          1           0        6.486257   -2.533110   -1.165659
    101          1           0        7.295219   -0.634114    0.399625
    102          1           0        7.710131   -1.777663    1.574113
    103          1           0        8.848984   -1.895024   -1.499044
    104          1           0        9.255331   -4.305613   -0.328960
    105          1           0       10.507582   -3.737587   -0.318284
    106          1           0        9.950487   -3.554894    0.985682
    107          1           0        9.517521   -0.054430    0.142971
    108          1           0        9.851046   -0.986125    1.382045
    109          1           0       11.825348   -1.955577   -0.389380
    110          1           0       11.249891   -0.541143   -1.469388
    111          1           0       11.705674    0.958620    0.293736
    112          1           0       12.521261    0.262691    1.325999
    113          1           0       13.456870    0.249031   -1.724371
    114          1           0       14.831503   -0.867797    0.664825
    115          1           0       14.040284   -1.951084   -0.538629
    116          1           0       15.383021   -0.861067   -1.055791
    117          1           0       13.585139    2.507521   -0.299989
    118          1           0       14.418259    1.681856    0.891313
    119          1           0       16.275119    1.251884   -0.668905
    120          1           0       15.438011    1.995786   -2.050066
    121          1           0       15.221243    4.128581   -0.817193
    122          1           0       16.060734    3.575807    0.437527
    123          1           0       18.156852    3.045891   -0.748448
    124          1           0       16.672497    4.751318   -3.078317
    125          1           0       18.508030    4.187606   -3.231424
    126          1           0       17.269289    3.010118   -3.223346
    127          1           0       18.117577    5.287589    0.426895
    128          1           0       18.803768    5.613485   -1.309121
    129          1           0       17.103795    6.028840   -0.767228
    130          1           0       -5.255902   -7.895892    0.072083
    131          1           0       -6.603611   -7.194861    0.697912
    132          1           0       -5.171246   -6.641786    1.560815
    133          8           0       -7.753837    6.875467   -0.296747
    134          1           0       -8.654421    6.497247   -2.052887
 ---------------------------------------------------------------------

 SCF Done:  E(RCAM-B3LYP) =  -3043.40927184     A.U. after   15 cycles

 Excitation energies and oscillator strengths:

 Excited State   1:      Singlet-A      2.0536 eV  603.75 nm  f=0.1665  <S**2>=0.000
     243 -> 246        0.28930
     244 -> 245        0.63680
 This state for optimization and/or second-order correction.
 Total Energy, E(TD-HF/TD-DFT) =  -3043.33380424
 Copying the excited state density for this state as the 1-particle RhoCI density.

 The electronic state is 1-A.
 Alpha  occ. eigenvalues --  -46.80255 -19.24085 -19.23583 -19.17808 -19.17274
 Alpha  occ. eigenvalues --  -19.17086 -19.16669 -19.14617 -14.38066 -14.36770
 Alpha  occ. eigenvalues --  -14.36581 -14.35705 -10.35217 -10.34344 -10.31305
 Alpha  occ. eigenvalues --  -10.31112 -10.30921 -10.29084 -10.28542 -10.27210
 Alpha  occ. eigenvalues --  -10.26665 -10.26414 -10.26138 -10.26068 -10.25914
 Alpha  occ. eigenvalues --  -10.25853 -10.25481 -10.25401 -10.25100 -10.24907
 Alpha  occ. eigenvalues --  -10.24832 -10.24636 -10.24522 -10.24165 -10.24082
 Alpha  occ. eigenvalues --  -10.23895 -10.23624 -10.23396 -10.23315 -10.23305
 Alpha  occ. eigenvalues --  -10.23102 -10.23005 -10.22997 -10.22858 -10.22558
 Alpha  occ. eigenvalues --  -10.22554 -10.22527 -10.22488 -10.22452 -10.22404
 Alpha  occ. eigenvalues --  -10.22298 -10.22131 -10.21933 -10.21830 -10.21661
 Alpha  occ. eigenvalues --  -10.21382 -10.20768 -10.20688 -10.20679 -10.20626
 Alpha  occ. eigenvalues --  -10.20587 -10.19949 -10.19919 -10.19851 -10.19433
 Alpha  occ. eigenvalues --  -10.19403  -3.08995  -1.83925  -1.83459  -1.83422
 Alpha  occ. eigenvalues --   -1.16891  -1.14068  -1.07030  -1.05594  -1.04926
 Alpha  occ. eigenvalues --   -1.04375  -1.01846  -1.01314  -1.00613  -0.98053
 Alpha  occ. eigenvalues --   -0.96386  -0.88879  -0.86939  -0.86024  -0.85868
 Alpha  occ. eigenvalues --   -0.85163  -0.84661  -0.84159  -0.83544  -0.83262
 Alpha  occ. eigenvalues --   -0.82956  -0.82944  -0.81261  -0.80831  -0.79454
 Alpha  occ. eigenvalues --   -0.79054  -0.78215  -0.78009  -0.77393  -0.76319
 Alpha  occ. eigenvalues --   -0.75797  -0.75683  -0.74095  -0.73817  -0.72817
 Alpha  occ. eigenvalues --   -0.72625  -0.71262  -0.70451  -0.70143  -0.69684
 Alpha  occ. eigenvalues --   -0.69473  -0.69385  -0.68141  -0.67230  -0.66606
 Alpha  occ. eigenvalues --   -0.65579  -0.65361  -0.64701  -0.63239  -0.62609
 Alpha  occ. eigenvalues --   -0.61901  -0.60961  -0.60909  -0.60356  -0.59461
 Alpha  occ. eigenvalues --   -0.59165  -0.58524  -0.58183  -0.57843  -0.57679
 Alpha  occ. eigenvalues --   -0.56204  -0.55787  -0.55750  -0.55471  -0.54624
 Alpha  occ. eigenvalues --   -0.54268  -0.53252  -0.52600  -0.52336  -0.51940
 Alpha  occ. eigenvalues --   -0.51834  -0.51632  -0.51476  -0.50942  -0.50555
 Alpha  occ. eigenvalues --   -0.50445  -0.50094  -0.49617  -0.49251  -0.49088
 Alpha  occ. eigenvalues --   -0.48868  -0.48443  -0.47992  -0.47774  -0.47576
 Alpha  occ. eigenvalues --   -0.47451  -0.47186  -0.46968  -0.46785  -0.46597
 Alpha  occ. eigenvalues --   -0.46545  -0.46482  -0.46047  -0.45954  -0.45841
 Alpha  occ. eigenvalues --   -0.45671  -0.45320  -0.45148  -0.44949  -0.44760
 Alpha  occ. eigenvalues --   -0.44516  -0.44324  -0.44123  -0.43817  -0.43668
 Alpha  occ. eigenvalues --   -0.43562  -0.43211  -0.42966  -0.42848  -0.42533
 Alpha  occ. eigenvalues --   -0.42368  -0.42104  -0.41988  -0.41851  -0.41663
 Alpha  occ. eigenvalues --   -0.41427  -0.41263  -0.41102  -0.40985  -0.40663
 Alpha  occ. eigenvalues --   -0.40433  -0.40178  -0.39950  -0.39709  -0.39650
 Alpha  occ. eigenvalues --   -0.39523  -0.39388  -0.39317  -0.39097  -0.39009
 Alpha  occ. eigenvalues --   -0.38865  -0.38778  -0.38305  -0.38072  -0.37976
 Alpha  occ. eigenvalues --   -0.37772  -0.37665  -0.37537  -0.37083  -0.36989
 Alpha  occ. eigenvalues --   -0.36920  -0.36424  -0.36160  -0.36031  -0.35332
 Alpha  occ. eigenvalues --   -0.35300  -0.35248  -0.35127  -0.35000  -0.34578
 Alpha  occ. eigenvalues --   -0.34207  -0.34100  -0.33962  -0.33534  -0.33403
 Alpha  occ. eigenvalues --   -0.33232  -0.32598  -0.32451  -0.32029  -0.31686
 Alpha  occ. eigenvalues --   -0.31610  -0.30616  -0.30472  -0.29714  -0.28798
 Alpha  occ. eigenvalues --   -0.28772  -0.28474  -0.28297  -0.27752  -0.27328
 Alpha  occ. eigenvalues --   -0.27249  -0.27164  -0.22776  -0.21461
 Alpha virt. eigenvalues --   -0.08233  -0.06383  -0.01670  -0.01300   0.00660
 Alpha virt. eigenvalues --    0.03067   0.03942   0.04166   0.04537   0.04720
 Alpha virt. eigenvalues --    0.04808   0.06150   0.07060   0.08108   0.09479

 Mulliken charges:
               1
     1  Mg   0.820019
     2  C    0.061277
     3  C   -0.202646
     4  C   -0.200054
     5  C   -0.174351
     6  N   -0.648071
     7  C    0.337331
     8  C   -0.142634
     9  C   -0.178611
    10  C    0.411340
    11  C   -0.342627
    12  C   -0.131718
    13  C   -0.266059
    14  C    0.604168
    15  O   -0.476546
    16  O   -0.442146
    17  N   -0.706143
    18  C    0.297152
    19  C    0.074576
    20  C   -0.042687
    21  C    0.303365
    22  C   -0.384928
    23  C    0.293709
    24  O   -0.431572
    25  N   -0.707915
    26  C    0.276646
    27  C   -0.034906
    28  C   -0.001077
    29  C    0.320516
    30  C    0.259990
    31  C   -0.228491
    32  C   -0.304052
    33  N   -0.744854
    34  C    0.318769
    35  C    0.024341
    36  C    0.060742
    37  C    0.321552
    38  C   -0.401576
    39  C    0.342745
    40  O   -0.488551
    41  C   -0.331212
    42  C    0.616520
    43  O   -0.537096
    44  O   -0.387474
    45  C   -0.101664
    46  C   -0.036828
    47  C   -0.129858
    48  C    0.171980
    49  C   -0.368104
    50  C   -0.244601
    51  C   -0.149620
    52  C   -0.184132
    53  C   -0.039985
    54  C   -0.310025
    55  C   -0.172741
    56  C   -0.167228
    57  C   -0.156183
    58  C   -0.054989
    59  C   -0.285531
    60  C   -0.183019
    61  C   -0.184325
    62  C   -0.161606
    63  C   -0.054279
    64  C   -0.295933
    65  C   -0.323032
    66  H    0.069108
    67  H    0.145732
    68  H    0.085100
    69  H    0.135955
    70  H    0.106105
    71  H    0.100972
    72  H    0.123619
    73  H    0.136454
    74  H    0.065387
    75  H    0.128134
    76  H    0.124648
    77  H    0.101498
    78  H    0.102028
    79  H    0.155171
    80  H    0.134765
    81  H    0.063443
    82  H    0.100662
    83  H    0.082003
    84  H    0.112001
    85  H    0.124507
    86  H    0.118024
    87  H    0.132533
    88  H    0.149743
    89  H    0.125072
    90  H    0.159152
    91  H    0.115731
    92  H    0.138972
    93  H    0.090338
    94  H    0.150913
    95  H    0.081641
    96  H    0.133751
    97  H    0.103284
    98  H    0.089109
    99  H    0.112608
   100  H    0.083036
   101  H    0.047662
   102  H    0.093627
   103  H    0.078918
   104  H    0.104999
   105  H    0.089814
   106  H    0.096034
   107  H    0.097672
   108  H    0.069875
   109  H    0.073592
   110  H    0.081455
   111  H    0.098601
   112  H    0.082337
   113  H    0.065759
   114  H    0.115270
   115  H    0.061399
   116  H    0.104103
   117  H    0.094312
   118  H    0.069626
   119  H    0.093141
   120  H    0.097149
   121  H    0.086258
   122  H    0.099362
   123  H    0.079631
   124  H    0.075951
   125  H    0.069642
   126  H    0.109155
   127  H    0.103260
   128  H    0.112120
   129  H    0.104009
   130  H    0.134988
   131  H    0.133216
   132  H    0.155196
   133  O   -0.421647
   134  H    0.087259
 Sum of Mulliken charges =  -0.00000

 Dipole moment (field-independent basis, Debye):
    X=              3.5788    Y=             -5.7176    Z=             -1.1736  Tot=              6.8466
 Quadrupole moment (field-independent basis, Debye-Ang):
   XX=           -386.1454   YY=           -424.0726   ZZ=           -391.8212
   XY=              0.0514   XZ=             31.5519   YZ=            -38.8161

 Normal termination of Gaussian 16 at Thu Oct 10 17:21:36 2019.
