 Gaussian 16, Revision A.03,
 Gaussian 16:  ES64L-G16RevA.03 25-Dec-2016

 ----------------------------------------------------------------------
 # td=(NStates=1) iop(3/107=0140000000,3/108=0140000000) iop(3/107=0140
 000000,3/108=0140000000) CAM-B3LYP/6-31G(d,p)
 ----------------------------------------------------------------------

 --
 TD
 --
 Symbolic Z-matrix:
 Charge =  0 Multiplicity = 1

                         Standard orientation:
 ---------------------------------------------------------------------
 Center     Atomic      Atomic             Coordinates (Angstroms)
 Number     Number       Type             X           Y           Z
 ---------------------------------------------------------------------
      1         12           0       -5.647615    1.228922    0.169584
      2          6           0       -5.104422   -2.135724   -0.370665
      3          6           0       -3.423716    1.092052    2.794253
      4          6           0       -6.371023    4.503920    0.822956
      5          6           0       -7.895698    1.208555   -2.473146
      6          7           0       -4.478946   -0.289724    1.024638
      7          6           0       -4.256935   -1.556506    0.604125
      8          6           0       -3.247830   -2.344862    1.482227
      9          6           0       -2.982707   -1.333897    2.564785
     10          6           0       -3.635146    0.012460    2.028610
     11          6           0       -3.468985   -1.903847    3.934194
     12          6           0       -1.985989   -2.796677    0.693224
     13          6           0       -1.021095   -3.638495    1.479360
     14          6           0        0.200650   -3.922731    0.654139
     15          8           0        0.567316   -3.577548   -0.465976
     16          8           0        1.024775   -4.678059    1.300308
     17          7           0       -4.982992    2.621620    1.533013
     18          6           0       -4.015173    2.421055    2.489327
     19          6           0       -3.626312    3.638584    3.183357
     20          6           0       -4.591854    4.607441    2.610037
     21          6           0       -5.296702    3.942546    1.540429
     22          6           0       -2.750969    3.839776    4.348989
     23          6           0       -4.705872    5.964434    2.986225
     24          8           0       -4.076074    6.582456    3.820344
     25          7           0       -6.885226    2.635182   -0.640391
     26          6           0       -7.021602    3.882680   -0.228344
     27          6           0       -7.911789    4.561500   -1.189047
     28          6           0       -8.394154    3.668568   -2.039426
     29          6           0       -7.744122    2.492132   -1.767600
     30          6           0       -8.295618    5.971794   -1.139251
     31          6           0       -9.329983    3.860853   -3.193289
     32          6           0       -8.636850    4.077996   -4.540313
     33          7           0       -6.305799   -0.086577   -1.170424
     34          6           0       -7.183719    0.063328   -2.241951
     35          6           0       -7.430252   -1.254225   -2.900691
     36          6           0       -6.677034   -2.124540   -2.127589
     37          6           0       -5.927672   -1.388699   -1.146669
     38          6           0       -8.325346   -1.554169   -4.012339
     39          6           0       -6.221952   -3.541998   -2.042752
     40          8           0       -6.661572   -4.390089   -2.660765
     41          6           0       -5.033272   -3.576700   -0.856739
     42          6           0       -5.403464   -4.587204    0.144030
     43          8           0       -5.823093   -4.477737    1.326704
     44          8           0       -5.150443   -5.823386   -0.381716
     45          6           0       -5.459576   -6.969932    0.416489
     46          6           0        2.286565   -5.064137    0.758886
     47          6           0        3.438808   -4.131857    1.180899
     48          6           0        4.109925   -3.355897    0.270705
     49          6           0        3.722950   -3.245940   -1.226716
     50          6           0        5.183602   -2.351441    0.702335
     51          6           0        6.571133   -2.753692    0.062458
     52          6           0        7.709122   -1.760501    0.542831
     53          6           0        9.126779   -2.025119   -0.066003
     54          6           0        9.689619   -3.365582    0.236630
     55          6           0        9.971518   -0.920702    0.397310
     56          6           0       11.378492   -0.827856   -0.355419
     57          6           0       12.198101    0.344784    0.098560
     58          6           0       13.526341    0.494711   -0.665225
     59          6           0       14.438391   -0.780642   -0.311970
     60          6           0       14.227112    1.833923   -0.316070
     61          6           0       15.460346    2.215730   -1.159253
     62          6           0       16.057933    3.536805   -0.716539
     63          6           0       17.372335    3.897682   -1.289720
     64          6           0       17.335735    4.095879   -2.831196
     65          6           0       17.866105    5.226476   -0.555263
     66          1           0       -2.900722    0.947494    3.883332
     67          1           0       -6.793526    5.456207    1.208422
     68          1           0       -8.618886    1.242377   -3.225928
     69          1           0       -3.580996   -3.212672    1.784829
     70          1           0       -1.924802   -1.246103    2.478731
     71          1           0       -2.865962   -2.749230    4.147001
     72          1           0       -3.223458   -1.175027    4.794893
     73          1           0       -4.559309   -2.114929    3.747732
     74          1           0       -2.180179   -3.284536   -0.105975
     75          1           0       -1.598107   -1.835052    0.098333
     76          1           0       -0.923028   -3.290985    2.640535
     77          1           0       -1.523126   -4.604699    1.751407
     78          1           0       -1.625074    3.255102    4.123424
     79          1           0       -2.602726    4.890242    4.597039
     80          1           0       -3.374519    3.461820    5.263650
     81          1           0       -5.263252    6.635148    2.277893
     82          1           0      -10.014030    3.038384   -3.358575
     83          1           0       -9.943398    4.633151   -3.053274
     84          1           0       -9.415914    4.182659   -5.481491
     85          1           0       -7.851437    5.067055   -4.790802
     86          1           0       -7.844283    3.235299   -4.682490
     87          1           0       -7.924620   -0.965339   -4.916411
     88          1           0       -8.225258   -2.727783   -4.431821
     89          1           0       -9.406035   -1.405316   -3.785143
     90          1           0       -4.172147   -3.973576   -1.303287
     91          1           0        2.403507   -6.056344    1.193269
     92          1           0        2.006909   -5.116577   -0.334349
     93          1           0        3.905106   -4.222160    2.073922
     94          1           0        2.698413   -3.496582   -1.331308
     95          1           0        3.885109   -2.354370   -1.678044
     96          1           0        4.186221   -3.840814   -1.788211
     97          1           0        4.945286   -1.344325    0.294042
     98          1           0        5.376998   -2.111365    1.855922
     99          1           0        6.629463   -3.842845    0.379567
    100          1           0        6.533892   -2.940178   -1.195829
    101          1           0        7.296255   -0.763672    0.175167
    102          1           0        7.751107   -1.757051    1.668999
    103          1           0        8.994268   -1.759866   -1.114093
    104          1           0        8.879774   -4.163334   -0.029255
    105          1           0       10.524804   -3.567185   -0.458543
    106          1           0        9.551650   -3.530112    1.294508
    107          1           0        9.533070    0.132626    0.223576
    108          1           0       10.211768   -0.989035    1.451805
    109          1           0       11.948056   -1.788090   -0.264526
    110          1           0       11.379208   -0.826322   -1.381275
    111          1           0       11.623396    1.240055    0.022994
    112          1           0       12.318636    0.052044    1.126583
    113          1           0       13.199699    0.500086   -1.713752
    114          1           0       14.429220   -0.698072    0.770108
    115          1           0       13.902408   -1.670210   -0.613031
    116          1           0       15.308291   -0.646560   -0.836029
    117          1           0       13.520091    2.466230   -0.515191
    118          1           0       14.340452    1.844277    0.763623
    119          1           0       16.062188    1.307510   -0.985112
    120          1           0       15.565879    2.183716   -2.233492
    121          1           0       15.290642    4.370619   -0.587585
    122          1           0       16.014621    3.391296    0.465027
    123          1           0       18.045760    3.216065   -1.102176
    124          1           0       16.544908    4.884718   -2.953902
    125          1           0       18.205407    4.341596   -3.400727
    126          1           0       16.879970    2.992991   -3.102413
    127          1           0       17.890428    5.075291    0.469208
    128          1           0       18.959716    5.353804   -0.929794
    129          1           0       17.164783    6.018477   -0.862902
    130          1           0       -5.231828   -7.697909   -0.334094
    131          1           0       -6.543084   -7.136882    0.716231
    132          1           0       -4.824352   -6.913086    1.396260
    133          8           0       -7.951472    6.825004   -0.353813
    134          1           0       -9.015027    6.353606   -1.785879
 ---------------------------------------------------------------------

 SCF Done:  E(RCAM-B3LYP) =  -3043.45347667     A.U. after   15 cycles

 Excitation energies and oscillator strengths:

 Excited State   1:      Singlet-A      2.0700 eV  598.96 nm  f=0.1710  <S**2>=0.000
     243 -> 246       -0.27953
     244 -> 245        0.64170
 This state for optimization and/or second-order correction.
 Total Energy, E(TD-HF/TD-DFT) =  -3043.37740637
 Copying the excited state density for this state as the 1-particle RhoCI density.

 The electronic state is 1-A.
 Alpha  occ. eigenvalues --  -46.81066 -19.22726 -19.21278 -19.19326 -19.17285
 Alpha  occ. eigenvalues --  -19.16303 -19.16282 -19.15502 -14.39236 -14.37267
 Alpha  occ. eigenvalues --  -14.37018 -14.36722 -10.35368 -10.34989 -10.32683
 Alpha  occ. eigenvalues --  -10.28936 -10.28398 -10.28310 -10.28164 -10.27659
 Alpha  occ. eigenvalues --  -10.27060 -10.26941 -10.26718 -10.26292 -10.26168
 Alpha  occ. eigenvalues --  -10.26144 -10.25953 -10.25920 -10.25764 -10.25514
 Alpha  occ. eigenvalues --  -10.25389 -10.25165 -10.24769 -10.24390 -10.24196
 Alpha  occ. eigenvalues --  -10.23957 -10.23929 -10.23898 -10.23828 -10.23444
 Alpha  occ. eigenvalues --  -10.23268 -10.23050 -10.23008 -10.22867 -10.22842
 Alpha  occ. eigenvalues --  -10.22780 -10.22625 -10.22524 -10.22476 -10.22360
 Alpha  occ. eigenvalues --  -10.22307 -10.21319 -10.21192 -10.21174 -10.21093
 Alpha  occ. eigenvalues --  -10.20976 -10.20944 -10.20781 -10.20279 -10.20225
 Alpha  occ. eigenvalues --  -10.19908 -10.19456 -10.19221 -10.19220 -10.19136
 Alpha  occ. eigenvalues --  -10.17731  -3.09786  -1.84720  -1.84253  -1.84209
 Alpha  occ. eigenvalues --   -1.15381  -1.13534  -1.12684  -1.06799  -1.05572
 Alpha  occ. eigenvalues --   -1.03344  -1.02946  -1.01151  -1.00523  -0.99648
 Alpha  occ. eigenvalues --   -0.98941  -0.88978  -0.87115  -0.86682  -0.86001
 Alpha  occ. eigenvalues --   -0.85104  -0.84566  -0.84424  -0.83725  -0.83369
 Alpha  occ. eigenvalues --   -0.83067  -0.82314  -0.82232  -0.81044  -0.79563
 Alpha  occ. eigenvalues --   -0.79266  -0.78707  -0.78120  -0.77332  -0.76575
 Alpha  occ. eigenvalues --   -0.75100  -0.75070  -0.74287  -0.73113  -0.72499
 Alpha  occ. eigenvalues --   -0.72051  -0.71017  -0.70728  -0.70357  -0.69656
 Alpha  occ. eigenvalues --   -0.69326  -0.68842  -0.67088  -0.66201  -0.65889
 Alpha  occ. eigenvalues --   -0.65563  -0.65010  -0.64167  -0.62636  -0.62510
 Alpha  occ. eigenvalues --   -0.61732  -0.60951  -0.60727  -0.59916  -0.59222
 Alpha  occ. eigenvalues --   -0.59171  -0.58604  -0.58337  -0.57795  -0.57131
 Alpha  occ. eigenvalues --   -0.56532  -0.56167  -0.55855  -0.55134  -0.54958
 Alpha  occ. eigenvalues --   -0.54626  -0.54255  -0.53597  -0.53002  -0.52407
 Alpha  occ. eigenvalues --   -0.52139  -0.51624  -0.51219  -0.51063  -0.50820
 Alpha  occ. eigenvalues --   -0.50430  -0.50201  -0.50116  -0.49992  -0.49047
 Alpha  occ. eigenvalues --   -0.48926  -0.48744  -0.48623  -0.48124  -0.47987
 Alpha  occ. eigenvalues --   -0.47825  -0.47474  -0.47358  -0.47112  -0.46856
 Alpha  occ. eigenvalues --   -0.46585  -0.46346  -0.46185  -0.46117  -0.46006
 Alpha  occ. eigenvalues --   -0.45519  -0.45355  -0.45245  -0.45098  -0.44931
 Alpha  occ. eigenvalues --   -0.44656  -0.44614  -0.44297  -0.44133  -0.43991
 Alpha  occ. eigenvalues --   -0.43760  -0.43715  -0.43508  -0.43159  -0.43127
 Alpha  occ. eigenvalues --   -0.42916  -0.42876  -0.42697  -0.42375  -0.42003
 Alpha  occ. eigenvalues --   -0.41978  -0.41850  -0.41469  -0.41324  -0.41225
 Alpha  occ. eigenvalues --   -0.41061  -0.40997  -0.40906  -0.40547  -0.40375
 Alpha  occ. eigenvalues --   -0.40305  -0.39976  -0.39708  -0.39569  -0.39279
 Alpha  occ. eigenvalues --   -0.39180  -0.39134  -0.38891  -0.38212  -0.37891
 Alpha  occ. eigenvalues --   -0.37800  -0.37779  -0.37363  -0.37068  -0.36798
 Alpha  occ. eigenvalues --   -0.36731  -0.36013  -0.35880  -0.35666  -0.35640
 Alpha  occ. eigenvalues --   -0.35326  -0.35007  -0.34937  -0.34510  -0.34355
 Alpha  occ. eigenvalues --   -0.34219  -0.34052  -0.33754  -0.33473  -0.33184
 Alpha  occ. eigenvalues --   -0.33045  -0.32323  -0.32274  -0.32034  -0.31589
 Alpha  occ. eigenvalues --   -0.31041  -0.30691  -0.30488  -0.30374  -0.29326
 Alpha  occ. eigenvalues --   -0.29240  -0.28578  -0.28297  -0.27137  -0.27048
 Alpha  occ. eigenvalues --   -0.26999  -0.26150  -0.23160  -0.22074
 Alpha virt. eigenvalues --   -0.08788  -0.06635  -0.01370  -0.00093   0.01051
 Alpha virt. eigenvalues --    0.02259   0.02459   0.03666   0.03774   0.03998
 Alpha virt. eigenvalues --    0.04911   0.05902   0.07934   0.08158   0.09365

 Mulliken charges:
               1
     1  Mg   0.821300
     2  C    0.062942
     3  C   -0.192574
     4  C   -0.147099
     5  C   -0.161161
     6  N   -0.625199
     7  C    0.300367
     8  C   -0.123910
     9  C   -0.152045
    10  C    0.355486
    11  C   -0.302901
    12  C   -0.176742
    13  C   -0.285357
    14  C    0.613468
    15  O   -0.502111
    16  O   -0.435286
    17  N   -0.672526
    18  C    0.275730
    19  C    0.055823
    20  C   -0.029651
    21  C    0.303755
    22  C   -0.378935
    23  C    0.209713
    24  O   -0.431815
    25  N   -0.700457
    26  C    0.335624
    27  C   -0.053825
    28  C    0.067771
    29  C    0.235819
    30  C    0.240600
    31  C   -0.225179
    32  C   -0.291226
    33  N   -0.744703
    34  C    0.292288
    35  C    0.046988
    36  C   -0.005009
    37  C    0.330045
    38  C   -0.400619
    39  C    0.366257
    40  O   -0.368261
    41  C   -0.345722
    42  C    0.625101
    43  O   -0.501397
    44  O   -0.452869
    45  C   -0.077293
    46  C    0.000615
    47  C   -0.130767
    48  C    0.120742
    49  C   -0.375557
    50  C   -0.228319
    51  C   -0.172127
    52  C   -0.178299
    53  C   -0.044503
    54  C   -0.308376
    55  C   -0.157325
    56  C   -0.205387
    57  C   -0.166962
    58  C   -0.096533
    59  C   -0.308653
    60  C   -0.169326
    61  C   -0.188003
    62  C   -0.157793
    63  C   -0.060401
    64  C   -0.294390
    65  C   -0.310949
    66  H    0.100972
    67  H    0.149073
    68  H    0.084399
    69  H    0.111071
    70  H    0.111629
    71  H    0.113700
    72  H    0.096612
    73  H    0.134619
    74  H    0.120881
    75  H    0.098859
    76  H    0.129533
    77  H    0.143025
    78  H    0.087801
    79  H    0.168508
    80  H    0.127919
    81  H    0.064264
    82  H    0.118964
    83  H    0.122248
    84  H    0.092440
    85  H    0.080699
    86  H    0.103558
    87  H    0.128729
    88  H    0.126957
    89  H    0.140921
    90  H    0.166756
    91  H    0.110997
    92  H    0.126097
    93  H    0.083013
    94  H    0.151721
    95  H    0.111606
    96  H    0.128006
    97  H    0.108214
    98  H    0.083670
    99  H    0.091527
   100  H    0.061630
   101  H    0.092564
   102  H    0.086117
   103  H    0.087051
   104  H    0.086770
   105  H    0.118947
   106  H    0.112360
   107  H    0.077400
   108  H    0.085399
   109  H    0.080628
   110  H    0.088713
   111  H    0.085158
   112  H    0.087058
   113  H    0.077699
   114  H    0.105141
   115  H    0.101290
   116  H    0.107449
   117  H    0.103716
   118  H    0.091864
   119  H    0.088191
   120  H    0.092740
   121  H    0.083696
   122  H    0.065203
   123  H    0.101221
   124  H    0.099424
   125  H    0.112176
   126  H    0.072060
   127  H    0.111680
   128  H    0.080402
   129  H    0.099904
   130  H    0.132329
   131  H    0.128241
   132  H    0.116956
   133  O   -0.425639
   134  H    0.062583
 Sum of Mulliken charges =  -0.00000

 Dipole moment (field-independent basis, Debye):
    X=              0.8695    Y=             -6.7635    Z=             -2.4353  Tot=              7.2410
 Quadrupole moment (field-independent basis, Debye-Ang):
   XX=           -377.6385   YY=           -441.7045   ZZ=           -390.7709
   XY=             15.3290   XZ=             30.0375   YZ=            -31.2470

 Normal termination of Gaussian 16 at Tue Oct  8 09:02:06 2019.
