 Gaussian 16, Revision A.03,
 Gaussian 16:  ES64L-G16RevA.03 25-Dec-2016

 ----------------------------------------------------------------------
 # td=(NStates=1) iop(3/107=0140000000,3/108=0140000000) iop(3/107=0140
 000000,3/108=0140000000) CAM-B3LYP/6-31G(d,p)
 ----------------------------------------------------------------------

 --
 TD
 --
 Symbolic Z-matrix:
 Charge =  0 Multiplicity = 1

                         Standard orientation:
 ---------------------------------------------------------------------
 Center     Atomic      Atomic             Coordinates (Angstroms)
 Number     Number       Type             X           Y           Z
 ---------------------------------------------------------------------
      1         12           0       -5.714978    1.267033    0.092346
      2          6           0       -5.028855   -2.127460   -0.331764
      3          6           0       -3.455413    1.106689    2.652291
      4          6           0       -6.193643    4.428740    0.711647
      5          6           0       -8.056352    1.173926   -2.365544
      6          7           0       -4.424895   -0.261245    1.030329
      7          6           0       -4.349081   -1.625099    0.703660
      8          6           0       -3.182283   -2.288973    1.485198
      9          6           0       -2.845935   -1.293875    2.644716
     10          6           0       -3.584268   -0.098587    2.101805
     11          6           0       -3.369457   -1.722598    3.930970
     12          6           0       -1.861163   -2.721926    0.607327
     13          6           0       -0.978391   -3.593540    1.358218
     14          6           0        0.247777   -3.799939    0.578577
     15          8           0        0.532248   -3.208784   -0.506962
     16          8           0        1.035432   -4.776766    1.176159
     17          7           0       -4.910797    2.579378    1.467207
     18          6           0       -4.052307    2.304486    2.416814
     19          6           0       -3.816088    3.611462    3.156453
     20          6           0       -4.665773    4.546951    2.554300
     21          6           0       -5.254054    3.947738    1.510503
     22          6           0       -3.029469    3.705866    4.358862
     23          6           0       -4.784846    5.979558    2.976422
     24          8           0       -4.161892    6.446812    3.985381
     25          7           0       -6.952311    2.611767   -0.687729
     26          6           0       -6.938037    3.903707   -0.411846
     27          6           0       -7.968190    4.653060   -1.272731
     28          6           0       -8.490562    3.628425   -2.056840
     29          6           0       -7.811111    2.388927   -1.755391
     30          6           0       -8.343423    6.046288   -1.203403
     31          6           0       -9.508305    3.775909   -3.135584
     32          6           0       -8.886340    3.988739   -4.551381
     33          7           0       -6.358972   -0.153602   -1.105134
     34          6           0       -7.325096   -0.024790   -2.113779
     35          6           0       -7.587452   -1.371548   -2.721389
     36          6           0       -6.692895   -2.243744   -2.160573
     37          6           0       -5.895282   -1.436002   -1.157751
     38          6           0       -8.561346   -1.754461   -3.715415
     39          6           0       -6.225824   -3.599667   -1.937057
     40          8           0       -6.484802   -4.476817   -2.658243
     41          6           0       -4.979619   -3.613980   -0.884149
     42          6           0       -5.167117   -4.634803    0.126819
     43          8           0       -5.632760   -4.417232    1.306358
     44          8           0       -4.988041   -5.857121   -0.329455
     45          6           0       -5.289079   -6.930387    0.587377
     46          6           0        2.372181   -5.029185    0.550255
     47          6           0        3.347617   -4.031163    0.938226
     48          6           0        4.114852   -3.216561    0.121793
     49          6           0        3.862941   -3.011623   -1.347395
     50          6           0        5.203460   -2.428030    0.750125
     51          6           0        6.594589   -2.732504    0.127741
     52          6           0        7.575733   -1.744415    0.621075
     53          6           0        8.924371   -1.859690   -0.033810
     54          6           0        9.618620   -3.238419    0.139734
     55          6           0       10.019467   -0.835731    0.507421
     56          6           0       11.355573   -0.753943   -0.119402
     57          6           0       12.272920    0.407927    0.342065
     58          6           0       13.577193    0.420474   -0.597111
     59          6           0       14.455489   -0.777154   -0.421520
     60          6           0       14.342249    1.735150   -0.241757
     61          6           0       15.535615    2.098150   -1.052692
     62          6           0       16.099025    3.513220   -0.679111
     63          6           0       17.333350    3.842716   -1.457896
     64          6           0       17.198213    4.162017   -2.866290
     65          6           0       17.999119    5.058800   -0.693159
     66          1           0       -2.743765    1.212557    3.568697
     67          1           0       -6.263886    5.522886    0.691192
     68          1           0       -8.776309    1.162401   -3.170373
     69          1           0       -3.756649   -3.240320    1.845626
     70          1           0       -1.787835   -1.314047    2.604175
     71          1           0       -3.077633   -2.597762    4.384519
     72          1           0       -2.962083   -0.848904    4.619712
     73          1           0       -4.575974   -1.872966    3.919341
     74          1           0       -2.074296   -2.925920   -0.478508
     75          1           0       -1.033318   -1.733834    0.459017
     76          1           0       -0.687716   -3.008775    2.217167
     77          1           0       -1.256862   -4.719585    1.408151
     78          1           0       -1.836963    3.514595    4.074697
     79          1           0       -3.053878    4.663279    4.750947
     80          1           0       -3.486414    2.877674    5.074405
     81          1           0       -5.426888    6.654251    2.167448
     82          1           0      -10.177810    2.847245   -3.080154
     83          1           0      -10.439629    4.540467   -3.054430
     84          1           0       -9.663451    3.961525   -5.338325
     85          1           0       -8.481249    4.822227   -4.694010
     86          1           0       -8.202137    3.203763   -4.708690
     87          1           0       -8.519964   -0.834989   -4.604243
     88          1           0       -8.269944   -2.862318   -4.204420
     89          1           0       -9.544734   -1.703946   -3.398101
     90          1           0       -4.083605   -3.809577   -1.360662
     91          1           0        2.459718   -6.017636    1.035251
     92          1           0        2.127917   -5.126843   -0.523631
     93          1           0        3.585313   -4.092414    1.988534
     94          1           0        2.918063   -3.421893   -1.524293
     95          1           0        3.741705   -1.809221   -1.602025
     96          1           0        4.562585   -3.473446   -1.776630
     97          1           0        4.929183   -1.512279    0.610340
     98          1           0        5.147557   -2.463327    1.862632
     99          1           0        6.924211   -3.737677    0.363862
    100          1           0        6.497069   -2.741617   -0.986463
    101          1           0        7.310834   -0.569726    0.304610
    102          1           0        7.531244   -1.466923    1.736204
    103          1           0        8.892776   -1.648570   -1.145956
    104          1           0        8.918053   -3.952765   -0.186020
    105          1           0       10.696228   -3.357774   -0.102216
    106          1           0        9.693997   -3.546680    1.362676
    107          1           0        9.427244    0.236218    0.428984
    108          1           0       10.215000   -1.101591    1.662857
    109          1           0       11.834455   -1.642585    0.008198
    110          1           0       11.250220   -0.763086   -1.164354
    111          1           0       11.775968    1.271530    0.226308
    112          1           0       12.484628    0.173527    1.351253
    113          1           0       13.454879    0.491930   -1.732278
    114          1           0       14.819129   -0.860957    0.749123
    115          1           0       13.975412   -1.728360   -0.884373
    116          1           0       15.231637   -0.655756   -1.171801
    117          1           0       13.414613    2.477107   -0.394336
    118          1           0       14.672516    1.681276    0.781003
    119          1           0       16.346346    1.331647   -0.903994
    120          1           0       15.376584    2.021215   -2.192678
    121          1           0       15.438716    4.355945   -0.936464
    122          1           0       16.137845    3.476064    0.339031
    123          1           0       18.026198    3.073138   -1.248379
    124          1           0       16.514123    5.083939   -3.254311
    125          1           0       18.250488    4.367182   -3.206597
    126          1           0       17.025076    3.233866   -3.362668
    127          1           0       18.023315    4.646603    0.299969
    128          1           0       19.262105    5.319481   -1.145025
    129          1           0       17.467635    6.238889   -0.510970
    130          1           0       -5.080863   -7.987193    0.228129
    131          1           0       -6.349423   -6.977441    0.526861
    132          1           0       -4.972947   -6.688893    1.711886
    133          8           0       -7.887337    6.826956   -0.358869
    134          1           0       -9.208356    6.085530   -1.925171
 ---------------------------------------------------------------------

 SCF Done:  E(RCAM-B3LYP) =  -3043.36767994     A.U. after   15 cycles

 Excitation energies and oscillator strengths:

 Excited State   1:      Singlet-A      2.1215 eV  584.43 nm  f=0.1763  <S**2>=0.000
     243 -> 246       -0.26567
     244 -> 245        0.64598
 This state for optimization and/or second-order correction.
 Total Energy, E(TD-HF/TD-DFT) =  -3043.28971766
 Copying the excited state density for this state as the 1-particle RhoCI density.

 The electronic state is 1-A.
 Alpha  occ. eigenvalues --  -46.80698 -19.24161 -19.21526 -19.17827 -19.17734
 Alpha  occ. eigenvalues --  -19.17294 -19.17160 -19.16191 -14.38136 -14.37182
 Alpha  occ. eigenvalues --  -14.36986 -14.35976 -10.35280 -10.34860 -10.32210
 Alpha  occ. eigenvalues --  -10.31918 -10.30447 -10.28613 -10.27435 -10.26858
 Alpha  occ. eigenvalues --  -10.26852 -10.26612 -10.26584 -10.26048 -10.25958
 Alpha  occ. eigenvalues --  -10.25877 -10.25453 -10.25010 -10.24895 -10.24895
 Alpha  occ. eigenvalues --  -10.24817 -10.24682 -10.24677 -10.24643 -10.24639
 Alpha  occ. eigenvalues --  -10.24252 -10.24080 -10.23641 -10.23603 -10.23516
 Alpha  occ. eigenvalues --  -10.23034 -10.22945 -10.22789 -10.22754 -10.22723
 Alpha  occ. eigenvalues --  -10.22682 -10.22562 -10.22482 -10.22436 -10.22331
 Alpha  occ. eigenvalues --  -10.22299 -10.22125 -10.21772 -10.21493 -10.21422
 Alpha  occ. eigenvalues --  -10.21378 -10.21316 -10.21299 -10.21044 -10.20734
 Alpha  occ. eigenvalues --  -10.20570 -10.20517 -10.20395 -10.19992 -10.19816
 Alpha  occ. eigenvalues --  -10.18905  -3.09471  -1.84395  -1.83954  -1.83883
 Alpha  occ. eigenvalues --   -1.14618  -1.10733  -1.10345  -1.05620  -1.04055
 Alpha  occ. eigenvalues --   -1.02329  -1.01661  -1.00704  -0.99855  -0.99023
 Alpha  occ. eigenvalues --   -0.97878  -0.88092  -0.87049  -0.86198  -0.85864
 Alpha  occ. eigenvalues --   -0.85841  -0.85030  -0.84909  -0.84289  -0.83809
 Alpha  occ. eigenvalues --   -0.83534  -0.83361  -0.82690  -0.81146  -0.80802
 Alpha  occ. eigenvalues --   -0.79117  -0.78803  -0.78456  -0.77325  -0.77029
 Alpha  occ. eigenvalues --   -0.75829  -0.75213  -0.73837  -0.73615  -0.72575
 Alpha  occ. eigenvalues --   -0.72192  -0.71186  -0.70113  -0.70033  -0.69440
 Alpha  occ. eigenvalues --   -0.68547  -0.68304  -0.67829  -0.66991  -0.66532
 Alpha  occ. eigenvalues --   -0.65995  -0.64653  -0.64434  -0.62617  -0.62477
 Alpha  occ. eigenvalues --   -0.61254  -0.60897  -0.60801  -0.59138  -0.58709
 Alpha  occ. eigenvalues --   -0.58306  -0.57738  -0.57503  -0.57095  -0.56799
 Alpha  occ. eigenvalues --   -0.56224  -0.55954  -0.55666  -0.54922  -0.54580
 Alpha  occ. eigenvalues --   -0.54179  -0.53543  -0.53065  -0.52825  -0.52154
 Alpha  occ. eigenvalues --   -0.51896  -0.51427  -0.51396  -0.50892  -0.50693
 Alpha  occ. eigenvalues --   -0.50604  -0.50303  -0.49949  -0.49598  -0.49019
 Alpha  occ. eigenvalues --   -0.48880  -0.48689  -0.48212  -0.48055  -0.47828
 Alpha  occ. eigenvalues --   -0.47565  -0.47434  -0.47407  -0.47174  -0.47074
 Alpha  occ. eigenvalues --   -0.46664  -0.46590  -0.46436  -0.46207  -0.46142
 Alpha  occ. eigenvalues --   -0.45847  -0.45476  -0.45184  -0.45142  -0.44977
 Alpha  occ. eigenvalues --   -0.44598  -0.44395  -0.44275  -0.44106  -0.43723
 Alpha  occ. eigenvalues --   -0.43572  -0.43244  -0.42889  -0.42839  -0.42676
 Alpha  occ. eigenvalues --   -0.42364  -0.42310  -0.42188  -0.42023  -0.41723
 Alpha  occ. eigenvalues --   -0.41533  -0.41333  -0.41162  -0.41020  -0.40746
 Alpha  occ. eigenvalues --   -0.40570  -0.40385  -0.40224  -0.40147  -0.40051
 Alpha  occ. eigenvalues --   -0.39901  -0.39503  -0.39271  -0.39173  -0.39062
 Alpha  occ. eigenvalues --   -0.38860  -0.38542  -0.38380  -0.38267  -0.38007
 Alpha  occ. eigenvalues --   -0.37976  -0.37768  -0.37295  -0.36875  -0.36723
 Alpha  occ. eigenvalues --   -0.36552  -0.36391  -0.36198  -0.36025  -0.35739
 Alpha  occ. eigenvalues --   -0.35175  -0.35097  -0.34666  -0.34553  -0.34205
 Alpha  occ. eigenvalues --   -0.34060  -0.34028  -0.33861  -0.33401  -0.33267
 Alpha  occ. eigenvalues --   -0.32730  -0.32544  -0.32162  -0.31982  -0.31533
 Alpha  occ. eigenvalues --   -0.31453  -0.30405  -0.30126  -0.29880  -0.29803
 Alpha  occ. eigenvalues --   -0.29034  -0.28299  -0.28094  -0.27913  -0.27759
 Alpha  occ. eigenvalues --   -0.27183  -0.26961  -0.22978  -0.21212
 Alpha virt. eigenvalues --   -0.07749  -0.06380  -0.01831  -0.01249   0.00339
 Alpha virt. eigenvalues --    0.01860   0.02413   0.02967   0.03965   0.04445
 Alpha virt. eigenvalues --    0.04603   0.05720   0.07503   0.08295   0.09477

 Mulliken charges:
               1
     1  Mg   0.834753
     2  C    0.071950
     3  C   -0.219446
     4  C   -0.190797
     5  C   -0.164068
     6  N   -0.626235
     7  C    0.303747
     8  C   -0.175399
     9  C   -0.120497
    10  C    0.393813
    11  C   -0.286478
    12  C   -0.180868
    13  C   -0.222234
    14  C    0.596266
    15  O   -0.493172
    16  O   -0.502348
    17  N   -0.725658
    18  C    0.374124
    19  C    0.024915
    20  C    0.021525
    21  C    0.327925
    22  C   -0.383629
    23  C    0.247602
    24  O   -0.434884
    25  N   -0.691023
    26  C    0.262456
    27  C   -0.015898
    28  C    0.040300
    29  C    0.307842
    30  C    0.252084
    31  C   -0.283446
    32  C   -0.297729
    33  N   -0.725447
    34  C    0.274733
    35  C    0.026442
    36  C    0.056242
    37  C    0.235387
    38  C   -0.383188
    39  C    0.349335
    40  O   -0.400157
    41  C   -0.299556
    42  C    0.613848
    43  O   -0.522069
    44  O   -0.422496
    45  C   -0.101205
    46  C   -0.009221
    47  C   -0.109214
    48  C    0.090277
    49  C   -0.341717
    50  C   -0.212079
    51  C   -0.188003
    52  C   -0.154081
    53  C   -0.049136
    54  C   -0.306712
    55  C   -0.155437
    56  C   -0.185079
    57  C   -0.159613
    58  C   -0.070731
    59  C   -0.290460
    60  C   -0.149157
    61  C   -0.197124
    62  C   -0.150715
    63  C   -0.058347
    64  C   -0.289071
    65  C   -0.268206
    66  H    0.066571
    67  H    0.114500
    68  H    0.093058
    69  H    0.127207
    70  H    0.108876
    71  H    0.128374
    72  H    0.087300
    73  H    0.108764
    74  H    0.120818
    75  H    0.080591
    76  H    0.147527
    77  H    0.136567
    78  H    0.099253
    79  H    0.165883
    80  H    0.119590
    81  H    0.090984
    82  H    0.103764
    83  H    0.099084
    84  H    0.102247
    85  H    0.132080
    86  H    0.114948
    87  H    0.084127
    88  H    0.134606
    89  H    0.149328
    90  H    0.159458
    91  H    0.120901
    92  H    0.123266
    93  H    0.079792
    94  H    0.144800
    95  H    0.095850
    96  H    0.130277
    97  H    0.121125
    98  H    0.091501
    99  H    0.114563
   100  H    0.101966
   101  H    0.058795
   102  H    0.099575
   103  H    0.087345
   104  H    0.102661
   105  H    0.113292
   106  H    0.053939
   107  H    0.043636
   108  H    0.061585
   109  H    0.102822
   110  H    0.088775
   111  H    0.101049
   112  H    0.098281
   113  H    0.076248
   114  H    0.078900
   115  H    0.087996
   116  H    0.105126
   117  H    0.071284
   118  H    0.089140
   119  H    0.087630
   120  H    0.077205
   121  H    0.091891
   122  H    0.095562
   123  H    0.101445
   124  H    0.093667
   125  H    0.099391
   126  H    0.101554
   127  H    0.104173
   128  H    0.036312
   129  H    0.064700
   130  H    0.126675
   131  H    0.143063
   132  H    0.138232
   133  O   -0.444741
   134  H    0.069716
 Sum of Mulliken charges =  -0.00000

 Dipole moment (field-independent basis, Debye):
    X=              2.3870    Y=             -6.3338    Z=             -2.0506  Tot=              7.0725
 Quadrupole moment (field-independent basis, Debye-Ang):
   XX=           -380.4743   YY=           -435.9842   ZZ=           -396.9973
   XY=              4.5127   XZ=             26.0023   YZ=            -33.2304

 Normal termination of Gaussian 16 at Mon Oct  7 13:26:12 2019.
