 Gaussian 16, Revision A.03,
 Gaussian 16:  ES64L-G16RevA.03 25-Dec-2016

 ----------------------------------------------------------------------
 # td=(NStates=1) iop(3/107=0140000000,3/108=0140000000) iop(3/107=0140
 000000,3/108=0140000000) CAM-B3LYP/6-31G(d,p)
 ----------------------------------------------------------------------

 --
 TD
 --
 Symbolic Z-matrix:
 Charge =  0 Multiplicity = 1

                         Standard orientation:
 ---------------------------------------------------------------------
 Center     Atomic      Atomic             Coordinates (Angstroms)
 Number     Number       Type             X           Y           Z
 ---------------------------------------------------------------------
      1         12           0       -5.506160    1.244189    0.121476
      2          6           0       -5.032824   -2.138562   -0.352590
      3          6           0       -3.358379    1.253028    2.792470
      4          6           0       -6.133628    4.542878    0.606181
      5          6           0       -7.902151    1.153143   -2.432330
      6          7           0       -4.350498   -0.152977    0.995232
      7          6           0       -4.262960   -1.536820    0.694392
      8          6           0       -3.360793   -2.248181    1.485107
      9          6           0       -2.971705   -1.346782    2.641615
     10          6           0       -3.535789    0.044362    2.140250
     11          6           0       -3.563593   -1.603800    4.054400
     12          6           0       -2.030255   -2.784628    0.697175
     13          6           0       -0.981639   -3.560366    1.539844
     14          6           0        0.264711   -3.887928    0.672171
     15          8           0        0.384595   -3.746208   -0.566227
     16          8           0        1.122522   -4.673590    1.348045
     17          7           0       -4.934198    2.612756    1.476701
     18          6           0       -3.985103    2.488742    2.525151
     19          6           0       -3.852372    3.626811    3.216966
     20          6           0       -4.610922    4.635564    2.634304
     21          6           0       -5.307348    3.943910    1.522248
     22          6           0       -2.718589    3.765121    4.298922
     23          6           0       -4.656577    6.081954    2.928949
     24          8           0       -4.099434    6.585392    3.817213
     25          7           0       -6.808927    2.598624   -0.720009
     26          6           0       -6.874629    3.936273   -0.429010
     27          6           0       -7.950732    4.541810   -1.220003
     28          6           0       -8.413674    3.620939   -2.056550
     29          6           0       -7.668184    2.388968   -1.754804
     30          6           0       -8.239525    5.917951   -1.337364
     31          6           0       -9.442832    3.766786   -3.171375
     32          6           0       -8.818399    4.051005   -4.550904
     33          7           0       -6.344302   -0.161898   -1.102047
     34          6           0       -7.285520   -0.049175   -2.065961
     35          6           0       -7.577140   -1.347628   -2.717253
     36          6           0       -6.602922   -2.219254   -2.146586
     37          6           0       -5.975678   -1.377951   -1.114991
     38          6           0       -8.548873   -1.780639   -3.806595
     39          6           0       -6.151495   -3.569202   -1.994582
     40          8           0       -6.459622   -4.530893   -2.634662
     41          6           0       -4.898920   -3.578369   -0.799323
     42          6           0       -5.255018   -4.617552    0.225822
     43          8           0       -5.873849   -4.387080    1.294755
     44          8           0       -4.887925   -5.757562   -0.247483
     45          6           0       -5.157798   -6.827710    0.656466
     46          6           0        2.317206   -5.144947    0.603396
     47          6           0        3.396856   -4.116563    0.927516
     48          6           0        3.984790   -3.266312    0.143313
     49          6           0        3.596044   -3.178582   -1.331104
     50          6           0        5.081158   -2.502035    0.612861
     51          6           0        6.449254   -2.690848   -0.017136
     52          6           0        7.573140   -1.875538    0.464993
     53          6           0        9.003345   -1.963403   -0.174241
     54          6           0        9.644988   -3.320180    0.178021
     55          6           0        9.913036   -0.816753    0.208157
     56          6           0       11.325124   -0.863078   -0.374112
     57          6           0       12.148699    0.383011    0.025900
     58          6           0       13.519184    0.427079   -0.564103
     59          6           0       14.411676   -0.847190   -0.379198
     60          6           0       14.223291    1.737764   -0.184689
     61          6           0       15.546572    2.113042   -0.959754
     62          6           0       16.131963    3.462721   -0.413587
     63          6           0       17.385719    3.951654   -1.251891
     64          6           0       17.086524    4.081018   -2.747676
     65          6           0       17.852324    5.313072   -0.840273
     66          1           0       -2.886323    1.314482    3.823090
     67          1           0       -6.336822    5.574610    0.726685
     68          1           0       -8.539542    1.240846   -3.193080
     69          1           0       -3.912399   -3.202664    1.886428
     70          1           0       -1.883553   -1.395500    2.763275
     71          1           0       -3.273852   -2.635218    4.369490
     72          1           0       -2.992693   -0.918793    4.819651
     73          1           0       -4.807925   -1.429157    4.190927
     74          1           0       -2.346424   -3.355638   -0.240718
     75          1           0       -1.479047   -1.854601    0.376883
     76          1           0       -0.507676   -2.994492    2.345494
     77          1           0       -1.333939   -4.535499    1.999741
     78          1           0       -1.751176    3.590657    4.005092
     79          1           0       -2.779779    4.766230    4.890138
     80          1           0       -2.916492    3.052777    5.297627
     81          1           0       -5.341388    6.675510    2.312833
     82          1           0      -10.459270    2.978369   -3.250884
     83          1           0      -10.175571    4.480816   -2.974069
     84          1           0       -9.521784    4.205066   -5.206649
     85          1           0       -8.411300    5.210097   -4.568636
     86          1           0       -8.219851    3.072490   -4.728580
     87          1           0       -8.381829   -1.218537   -4.696427
     88          1           0       -8.357933   -2.917426   -4.094382
     89          1           0       -9.574487   -1.673081   -3.311111
     90          1           0       -4.015391   -3.796683   -1.525490
     91          1           0        2.450131   -6.228936    0.966181
     92          1           0        2.103689   -5.386400   -0.491901
     93          1           0        3.886737   -4.268547    1.922460
     94          1           0        2.498739   -3.305337   -1.458390
     95          1           0        4.008589   -2.170508   -1.617020
     96          1           0        4.045262   -4.007966   -1.928350
     97          1           0        4.756646   -1.461305    0.565407
     98          1           0        5.225090   -2.479656    1.848534
     99          1           0        6.681113   -3.646846    0.154335
    100          1           0        6.251480   -2.855295   -1.090920
    101          1           0        7.262873   -0.797125    0.139841
    102          1           0        7.702692   -1.946593    1.356452
    103          1           0        8.788765   -1.691018   -1.284905
    104          1           0        8.910138   -4.054794   -0.292211
    105          1           0       10.693648   -3.592960   -0.240871
    106          1           0        9.571114   -3.291743    1.209950
    107          1           0        9.552721    0.233287    0.088482
    108          1           0        9.777326   -0.800804    1.319229
    109          1           0       11.740684   -1.813662   -0.085018
    110          1           0       11.188184   -0.828972   -1.532952
    111          1           0       11.683401    1.287306    0.028427
    112          1           0       12.339408    0.328833    1.096251
    113          1           0       13.288551    0.489419   -1.644912
    114          1           0       14.669555   -0.744073    0.600220
    115          1           0       13.852794   -1.779587   -0.586359
    116          1           0       15.221093   -0.767170   -0.917912
    117          1           0       13.279356    2.548765   -0.146210
    118          1           0       14.478107    1.595707    0.941502
    119          1           0       16.293435    1.403107   -0.705081
    120          1           0       15.097431    2.113750   -1.985201
    121          1           0       15.228149    4.238170   -0.277409
    122          1           0       16.329278    3.522011    0.654386
    123          1           0       18.163447    3.227569   -1.031937
    124          1           0       16.565393    4.926587   -3.072112
    125          1           0       18.153037    4.105549   -3.312249
    126          1           0       16.674220    3.137359   -3.045746
    127          1           0       17.825875    5.328387    0.317289
    128          1           0       18.815391    5.575060   -1.196022
    129          1           0       17.123604    6.201151   -0.996796
    130          1           0       -5.246495   -7.927394    0.041590
    131          1           0       -6.124610   -6.559660    1.331107
    132          1           0       -4.223103   -7.014271    1.533480
    133          8           0       -7.765370    6.829142   -0.607718
    134          1           0       -8.982255    6.152739   -2.281826
 ---------------------------------------------------------------------

 SCF Done:  E(RCAM-B3LYP) =  -3043.43916665     A.U. after   16 cycles

 Excitation energies and oscillator strengths:

 Excited State   1:      Singlet-A      1.9813 eV  625.77 nm  f=0.1879  <S**2>=0.000
     243 -> 246       -0.25980
     244 -> 245        0.64917
 This state for optimization and/or second-order correction.
 Total Energy, E(TD-HF/TD-DFT) =  -3043.36635495
 Copying the excited state density for this state as the 1-particle RhoCI density.

 The electronic state is 1-A.
 Alpha  occ. eigenvalues --  -46.80622 -19.25323 -19.22441 -19.18025 -19.17199
 Alpha  occ. eigenvalues --  -19.17115 -19.16897 -19.16700 -14.38997 -14.37458
 Alpha  occ. eigenvalues --  -14.37054 -14.36078 -10.35768 -10.35476 -10.32063
 Alpha  occ. eigenvalues --  -10.31499 -10.30986 -10.29432 -10.28931 -10.27821
 Alpha  occ. eigenvalues --  -10.27309 -10.26984 -10.26488 -10.26419 -10.26306
 Alpha  occ. eigenvalues --  -10.25937 -10.25814 -10.25679 -10.25406 -10.25229
 Alpha  occ. eigenvalues --  -10.24963 -10.24928 -10.24641 -10.24610 -10.24531
 Alpha  occ. eigenvalues --  -10.24316 -10.23923 -10.23860 -10.23767 -10.23455
 Alpha  occ. eigenvalues --  -10.23215 -10.22934 -10.22934 -10.22920 -10.22711
 Alpha  occ. eigenvalues --  -10.22709 -10.22562 -10.22468 -10.22329 -10.22267
 Alpha  occ. eigenvalues --  -10.22103 -10.21790 -10.21772 -10.21662 -10.21451
 Alpha  occ. eigenvalues --  -10.21332 -10.21311 -10.21055 -10.20765 -10.20509
 Alpha  occ. eigenvalues --  -10.20265 -10.20263 -10.19930 -10.19893 -10.19400
 Alpha  occ. eigenvalues --  -10.18329  -3.09441  -1.84361  -1.83916  -1.83869
 Alpha  occ. eigenvalues --   -1.17013  -1.12518  -1.09532  -1.08744  -1.04519
 Alpha  occ. eigenvalues --   -1.04002  -1.02823  -1.02644  -1.00115  -0.98611
 Alpha  occ. eigenvalues --   -0.97694  -0.87607  -0.87510  -0.85887  -0.85746
 Alpha  occ. eigenvalues --   -0.85016  -0.84773  -0.84615  -0.83729  -0.83344
 Alpha  occ. eigenvalues --   -0.83081  -0.81892  -0.81526  -0.80572  -0.80009
 Alpha  occ. eigenvalues --   -0.79746  -0.78276  -0.77950  -0.77365  -0.76463
 Alpha  occ. eigenvalues --   -0.75389  -0.74405  -0.73446  -0.72530  -0.72084
 Alpha  occ. eigenvalues --   -0.71720  -0.71017  -0.70283  -0.70216  -0.69399
 Alpha  occ. eigenvalues --   -0.69133  -0.69083  -0.67029  -0.66917  -0.66634
 Alpha  occ. eigenvalues --   -0.65959  -0.65434  -0.64217  -0.63649  -0.62503
 Alpha  occ. eigenvalues --   -0.61250  -0.60898  -0.60108  -0.59204  -0.58990
 Alpha  occ. eigenvalues --   -0.58719  -0.58267  -0.57838  -0.57479  -0.57130
 Alpha  occ. eigenvalues --   -0.56083  -0.55686  -0.55323  -0.54795  -0.54597
 Alpha  occ. eigenvalues --   -0.53738  -0.53020  -0.52694  -0.52409  -0.51987
 Alpha  occ. eigenvalues --   -0.51912  -0.51797  -0.51558  -0.51282  -0.50880
 Alpha  occ. eigenvalues --   -0.50461  -0.49701  -0.49482  -0.49297  -0.49044
 Alpha  occ. eigenvalues --   -0.48863  -0.48466  -0.48207  -0.48006  -0.47879
 Alpha  occ. eigenvalues --   -0.47681  -0.47440  -0.47327  -0.47055  -0.46910
 Alpha  occ. eigenvalues --   -0.46631  -0.46498  -0.46262  -0.45981  -0.45954
 Alpha  occ. eigenvalues --   -0.45813  -0.45420  -0.45344  -0.45061  -0.44979
 Alpha  occ. eigenvalues --   -0.44700  -0.44332  -0.44255  -0.44081  -0.43895
 Alpha  occ. eigenvalues --   -0.43592  -0.43335  -0.43136  -0.42825  -0.42775
 Alpha  occ. eigenvalues --   -0.42642  -0.42435  -0.42161  -0.41936  -0.41724
 Alpha  occ. eigenvalues --   -0.41464  -0.41398  -0.41191  -0.41150  -0.40833
 Alpha  occ. eigenvalues --   -0.40674  -0.40569  -0.40445  -0.40414  -0.40020
 Alpha  occ. eigenvalues --   -0.39895  -0.39665  -0.39454  -0.39362  -0.39156
 Alpha  occ. eigenvalues --   -0.39031  -0.38994  -0.38869  -0.38688  -0.38031
 Alpha  occ. eigenvalues --   -0.37744  -0.37579  -0.37437  -0.37332  -0.37122
 Alpha  occ. eigenvalues --   -0.36615  -0.36450  -0.36349  -0.35754  -0.35636
 Alpha  occ. eigenvalues --   -0.35039  -0.34868  -0.34628  -0.34619  -0.34469
 Alpha  occ. eigenvalues --   -0.34419  -0.33737  -0.33540  -0.33442  -0.33004
 Alpha  occ. eigenvalues --   -0.32711  -0.32642  -0.32424  -0.32003  -0.31669
 Alpha  occ. eigenvalues --   -0.31395  -0.30948  -0.30941  -0.30257  -0.29530
 Alpha  occ. eigenvalues --   -0.29430  -0.28984  -0.27939  -0.27754  -0.27667
 Alpha  occ. eigenvalues --   -0.27545  -0.27354  -0.22738  -0.21595
 Alpha virt. eigenvalues --   -0.08725  -0.06467  -0.01444  -0.00627   0.00979
 Alpha virt. eigenvalues --    0.01992   0.02454   0.03098   0.04000   0.04266
 Alpha virt. eigenvalues --    0.05494   0.06211   0.07607   0.08206   0.08726

 Mulliken charges:
               1
     1  Mg   0.823298
     2  C    0.063712
     3  C   -0.201645
     4  C   -0.168354
     5  C   -0.130633
     6  N   -0.655567
     7  C    0.372631
     8  C   -0.187467
     9  C   -0.127238
    10  C    0.318951
    11  C   -0.296794
    12  C   -0.175478
    13  C   -0.264962
    14  C    0.589213
    15  O   -0.484424
    16  O   -0.454828
    17  N   -0.718219
    18  C    0.317965
    19  C    0.040669
    20  C   -0.032391
    21  C    0.313181
    22  C   -0.386157
    23  C    0.250682
    24  O   -0.380088
    25  N   -0.680908
    26  C    0.283384
    27  C    0.028234
    28  C    0.057538
    29  C    0.272104
    30  C    0.224957
    31  C   -0.273338
    32  C   -0.284709
    33  N   -0.705252
    34  C    0.273871
    35  C    0.011776
    36  C    0.033248
    37  C    0.323645
    38  C   -0.377955
    39  C    0.335337
    40  O   -0.432553
    41  C   -0.355758
    42  C    0.654121
    43  O   -0.514216
    44  O   -0.378397
    45  C   -0.100268
    46  C   -0.021836
    47  C   -0.125521
    48  C    0.168375
    49  C   -0.383163
    50  C   -0.241763
    51  C   -0.178772
    52  C   -0.142179
    53  C   -0.078056
    54  C   -0.306535
    55  C   -0.170259
    56  C   -0.167101
    57  C   -0.169145
    58  C   -0.064019
    59  C   -0.309531
    60  C   -0.185783
    61  C   -0.172890
    62  C   -0.180733
    63  C   -0.043944
    64  C   -0.294139
    65  C   -0.304263
    66  H    0.085953
    67  H    0.122658
    68  H    0.074058
    69  H    0.132266
    70  H    0.106414
    71  H    0.109412
    72  H    0.103118
    73  H    0.107637
    74  H    0.122242
    75  H    0.118458
    76  H    0.139408
    77  H    0.140959
    78  H    0.143650
    79  H    0.143160
    80  H    0.083367
    81  H    0.070996
    82  H    0.071556
    83  H    0.123826
    84  H    0.130306
    85  H    0.097009
    86  H    0.109490
    87  H    0.138038
    88  H    0.143745
    89  H    0.131967
    90  H    0.159173
    91  H    0.112585
    92  H    0.133207
    93  H    0.079131
    94  H    0.159155
    95  H    0.100570
    96  H    0.117016
    97  H    0.104450
    98  H    0.059282
    99  H    0.107961
   100  H    0.091507
   101  H    0.077079
   102  H    0.089011
   103  H    0.067407
   104  H    0.099762
   105  H    0.100844
   106  H    0.114265
   107  H    0.081316
   108  H    0.068589
   109  H    0.101602
   110  H    0.079601
   111  H    0.095439
   112  H    0.082665
   113  H    0.068668
   114  H    0.106953
   115  H    0.098239
   116  H    0.112726
   117  H    0.060665
   118  H    0.068179
   119  H    0.109692
   120  H    0.111370
   121  H    0.064683
   122  H    0.097002
   123  H    0.093539
   124  H    0.116928
   125  H    0.068070
   126  H    0.101829
   127  H    0.073030
   128  H    0.108932
   129  H    0.092560
   130  H    0.115625
   131  H    0.156789
   132  H    0.088588
   133  O   -0.443632
   134  H    0.048596
 Sum of Mulliken charges =  -0.00000

 Dipole moment (field-independent basis, Debye):
    X=              2.0484    Y=             -5.5414    Z=             -1.6473  Tot=              6.1332
 Quadrupole moment (field-independent basis, Debye-Ang):
   XX=           -369.7179   YY=           -436.7208   ZZ=           -394.2951
   XY=              3.6712   XZ=             33.1229   YZ=            -32.2077

 Normal termination of Gaussian 16 at Fri Oct  4 12:35:00 2019.
