 Gaussian 16, Revision A.03,
 Gaussian 16:  ES64L-G16RevA.03 25-Dec-2016

 ----------------------------------------------------------------------
 # td=(NStates=1) iop(3/107=0140000000,3/108=0140000000) iop(3/107=0140
 000000,3/108=0140000000) CAM-B3LYP/6-31G(d,p)
 ----------------------------------------------------------------------

 --
 TD
 --
 Symbolic Z-matrix:
 Charge =  0 Multiplicity = 1

                         Standard orientation:
 ---------------------------------------------------------------------
 Center     Atomic      Atomic             Coordinates (Angstroms)
 Number     Number       Type             X           Y           Z
 ---------------------------------------------------------------------
      1         12           0       -5.606472    1.196226    0.289153
      2          6           0       -5.083580   -2.148347   -0.441004
      3          6           0       -3.404795    1.140392    2.799069
      4          6           0       -6.159784    4.497907    0.770048
      5          6           0       -7.852403    1.260862   -2.361746
      6          7           0       -4.365869   -0.281950    1.022049
      7          6           0       -4.330107   -1.615016    0.658937
      8          6           0       -3.283302   -2.385094    1.452120
      9          6           0       -3.006315   -1.416385    2.632861
     10          6           0       -3.581649   -0.033794    2.129427
     11          6           0       -3.555772   -1.747838    3.953178
     12          6           0       -2.025673   -2.648190    0.581506
     13          6           0       -1.076632   -3.588892    1.361897
     14          6           0        0.194748   -3.895023    0.632518
     15          8           0        0.292372   -3.539624   -0.514193
     16          8           0        0.953575   -4.703648    1.362420
     17          7           0       -4.775298    2.658899    1.490100
     18          6           0       -3.980293    2.358886    2.483242
     19          6           0       -3.613245    3.577128    3.195699
     20          6           0       -4.429701    4.552333    2.611788
     21          6           0       -5.181995    3.948392    1.538228
     22          6           0       -2.791470    3.808302    4.469209
     23          6           0       -4.425191    6.036910    2.817897
     24          8           0       -3.956311    6.557604    3.771965
     25          7           0       -6.671154    2.692372   -0.745148
     26          6           0       -6.791643    3.976135   -0.342699
     27          6           0       -7.856737    4.700388   -1.102329
     28          6           0       -8.278369    3.749055   -2.007206
     29          6           0       -7.600606    2.513626   -1.808408
     30          6           0       -8.221056    6.044399   -1.104780
     31          6           0       -9.346528    3.974512   -3.128196
     32          6           0       -8.573477    4.204659   -4.523434
     33          7           0       -6.371010   -0.134873   -1.096656
     34          6           0       -7.325398   -0.011267   -2.114145
     35          6           0       -7.486510   -1.336399   -2.768684
     36          6           0       -6.640450   -2.215488   -2.088320
     37          6           0       -6.018591   -1.381608   -1.159437
     38          6           0       -8.468350   -1.475193   -3.879073
     39          6           0       -6.217803   -3.635758   -2.091657
     40          8           0       -6.524227   -4.534295   -2.836546
     41          6           0       -5.062275   -3.545828   -0.844114
     42          6           0       -5.368732   -4.675565    0.093728
     43          8           0       -5.759692   -4.461677    1.229442
     44          8           0       -5.005159   -5.868681   -0.343277
     45          6           0       -5.259799   -6.938299    0.513774
     46          6           0        2.235630   -5.161235    0.734050
     47          6           0        3.384299   -4.214933    1.067499
     48          6           0        4.016235   -3.353001    0.233589
     49          6           0        3.681688   -3.185503   -1.235582
     50          6           0        5.087424   -2.406943    0.715369
     51          6           0        6.426644   -2.725755    0.070758
     52          6           0        7.590420   -1.823616    0.524549
     53          6           0        8.975010   -1.963978   -0.129566
     54          6           0        9.575600   -3.412087    0.133618
     55          6           0        9.893209   -0.940336    0.253415
     56          6           0       11.279499   -0.987035   -0.353774
     57          6           0       12.040300    0.302834   -0.039456
     58          6           0       13.486878    0.429410   -0.604908
     59          6           0       14.432423   -0.709900   -0.319429
     60          6           0       14.281800    1.661809   -0.082292
     61          6           0       15.449502    2.156005   -0.957774
     62          6           0       16.120668    3.513504   -0.522770
     63          6           0       17.320433    3.887386   -1.487289
     64          6           0       16.946449    4.213436   -2.866627
     65          6           0       17.853331    5.165764   -0.655043
     66          1           0       -2.712693    1.051394    3.611991
     67          1           0       -6.640331    5.499824    1.049589
     68          1           0       -8.548399    1.037730   -3.289772
     69          1           0       -3.778825   -3.410978    1.807790
     70          1           0       -1.922299   -1.293862    2.699875
     71          1           0       -2.910350   -2.599607    4.142185
     72          1           0       -3.613337   -1.012400    4.610033
     73          1           0       -4.567328   -2.134757    3.722147
     74          1           0       -2.302984   -3.314610   -0.322853
     75          1           0       -1.482815   -1.585997    0.447444
     76          1           0       -0.704446   -2.984407    2.136571
     77          1           0       -1.813677   -4.417970    1.480888
     78          1           0       -1.746464    3.382710    4.477177
     79          1           0       -2.599182    4.829811    4.654272
     80          1           0       -3.269634    3.261984    5.355690
     81          1           0       -5.141051    6.581583    1.984498
     82          1           0      -10.157395    3.121075   -3.319593
     83          1           0      -10.000493    4.799136   -2.899655
     84          1           0       -9.304056    4.174817   -5.309603
     85          1           0       -8.078203    5.239664   -4.511093
     86          1           0       -7.892683    3.169044   -4.816180
     87          1           0       -8.259733   -0.549758   -4.657205
     88          1           0       -8.298134   -2.396959   -4.504096
     89          1           0       -9.577798   -1.486913   -3.420628
     90          1           0       -4.021135   -3.577890   -1.248608
     91          1           0        2.460872   -6.009947    0.986244
     92          1           0        2.028870   -5.298825   -0.408469
     93          1           0        3.729411   -4.264444    2.179557
     94          1           0        2.647205   -3.449474   -1.300538
     95          1           0        3.923027   -2.180810   -1.807247
     96          1           0        4.021972   -4.026949   -1.765897
     97          1           0        4.911710   -1.478670    0.464758
     98          1           0        5.146958   -2.476178    1.746935
     99          1           0        6.714948   -3.667235    0.200785
    100          1           0        6.151315   -2.598483   -1.017731
    101          1           0        7.202411   -0.846772    0.532949
    102          1           0        7.645660   -2.190014    1.559181
    103          1           0        8.882503   -1.979622   -1.114188
    104          1           0        8.587107   -4.099482   -0.200966
    105          1           0       10.369734   -3.835746   -0.493609
    106          1           0        9.862142   -3.610206    1.316686
    107          1           0        9.447958    0.093347    0.159276
    108          1           0       10.152624   -1.062489    1.412512
    109          1           0       11.979114   -1.838527    0.107960
    110          1           0       11.189140   -1.004059   -1.372546
    111          1           0       11.539012    1.026465   -0.347162
    112          1           0       12.231474    0.452851    1.075044
    113          1           0       13.236917    0.786586   -1.685906
    114          1           0       14.247740   -0.823562    0.827138
    115          1           0       14.056790   -1.458112   -0.847522
    116          1           0       15.589458   -0.680298   -0.616579
    117          1           0       13.582790    2.612941    0.109698
    118          1           0       14.612836    1.702289    1.003707
    119          1           0       16.169749    1.346576   -1.062336
    120          1           0       14.966066    2.226422   -2.060501
    121          1           0       15.205322    4.244148   -0.424566
    122          1           0       16.606849    3.449246    0.422782
    123          1           0       18.121985    3.131250   -1.494490
    124          1           0       16.027476    4.962142   -2.803933
    125          1           0       17.702317    4.781037   -3.317375
    126          1           0       16.915092    3.260827   -3.566322
    127          1           0       18.145959    4.619670    0.280502
    128          1           0       18.676013    5.731369   -1.224328
    129          1           0       17.143490    5.889540   -0.407639
    130          1           0       -5.129877   -7.857451   -0.095541
    131          1           0       -6.496873   -6.989181    0.789173
    132          1           0       -4.733759   -6.792442    1.364225
    133          8           0       -7.794947    6.926459   -0.395628
    134          1           0       -9.055723    6.340280   -1.789657
 ---------------------------------------------------------------------

 SCF Done:  E(RCAM-B3LYP) =  -3043.44416100     A.U. after   15 cycles

 Excitation energies and oscillator strengths:

 Excited State   1:      Singlet-A      2.0864 eV  594.24 nm  f=0.1562  <S**2>=0.000
     243 -> 246       -0.29922
     244 -> 245        0.62931
 This state for optimization and/or second-order correction.
 Total Energy, E(TD-HF/TD-DFT) =  -3043.36748643
 Copying the excited state density for this state as the 1-particle RhoCI density.

 The electronic state is 1-A.
 Alpha  occ. eigenvalues --  -46.81745 -19.23711 -19.23406 -19.19109 -19.17384
 Alpha  occ. eigenvalues --  -19.17121 -19.17049 -19.16145 -14.38670 -14.37259
 Alpha  occ. eigenvalues --  -14.36364 -14.36241 -10.35446 -10.34756 -10.33157
 Alpha  occ. eigenvalues --  -10.30608 -10.29211 -10.28462 -10.27720 -10.27592
 Alpha  occ. eigenvalues --  -10.27066 -10.26344 -10.26313 -10.26244 -10.26108
 Alpha  occ. eigenvalues --  -10.25974 -10.25546 -10.25342 -10.25202 -10.25106
 Alpha  occ. eigenvalues --  -10.25076 -10.24940 -10.24726 -10.24523 -10.24478
 Alpha  occ. eigenvalues --  -10.24331 -10.24042 -10.23893 -10.23607 -10.23265
 Alpha  occ. eigenvalues --  -10.23178 -10.23123 -10.22812 -10.22737 -10.22602
 Alpha  occ. eigenvalues --  -10.22467 -10.22348 -10.22345 -10.22230 -10.22136
 Alpha  occ. eigenvalues --  -10.21876 -10.21415 -10.21176 -10.21095 -10.21018
 Alpha  occ. eigenvalues --  -10.20998 -10.20964 -10.20880 -10.20666 -10.20630
 Alpha  occ. eigenvalues --  -10.20626 -10.20576 -10.20327 -10.20128 -10.19788
 Alpha  occ. eigenvalues --  -10.19419  -3.10242  -1.85189  -1.84693  -1.84661
 Alpha  occ. eigenvalues --   -1.15915  -1.13643  -1.08706  -1.08573  -1.06650
 Alpha  occ. eigenvalues --   -1.05686  -1.05443  -1.01532  -1.01101  -0.98886
 Alpha  occ. eigenvalues --   -0.98459  -0.88809  -0.87087  -0.86076  -0.85766
 Alpha  occ. eigenvalues --   -0.85547  -0.84300  -0.84156  -0.83649  -0.83547
 Alpha  occ. eigenvalues --   -0.83139  -0.82465  -0.82216  -0.81197  -0.80305
 Alpha  occ. eigenvalues --   -0.79152  -0.78528  -0.77895  -0.77277  -0.76748
 Alpha  occ. eigenvalues --   -0.75379  -0.74495  -0.74434  -0.73105  -0.72164
 Alpha  occ. eigenvalues --   -0.72055  -0.71164  -0.70369  -0.69643  -0.69625
 Alpha  occ. eigenvalues --   -0.68824  -0.68656  -0.67152  -0.66405  -0.65792
 Alpha  occ. eigenvalues --   -0.65596  -0.65280  -0.64511  -0.62463  -0.62175
 Alpha  occ. eigenvalues --   -0.61665  -0.60981  -0.60476  -0.59329  -0.59074
 Alpha  occ. eigenvalues --   -0.58818  -0.58237  -0.57693  -0.57193  -0.56774
 Alpha  occ. eigenvalues --   -0.56319  -0.56196  -0.55781  -0.55237  -0.54899
 Alpha  occ. eigenvalues --   -0.54472  -0.54051  -0.53414  -0.52801  -0.52492
 Alpha  occ. eigenvalues --   -0.52188  -0.52027  -0.51797  -0.51669  -0.51566
 Alpha  occ. eigenvalues --   -0.51110  -0.50211  -0.49944  -0.49649  -0.49396
 Alpha  occ. eigenvalues --   -0.49144  -0.48745  -0.48460  -0.48293  -0.47927
 Alpha  occ. eigenvalues --   -0.47612  -0.47572  -0.47271  -0.47217  -0.47033
 Alpha  occ. eigenvalues --   -0.46911  -0.46758  -0.46337  -0.46064  -0.45953
 Alpha  occ. eigenvalues --   -0.45554  -0.45358  -0.45084  -0.44691  -0.44554
 Alpha  occ. eigenvalues --   -0.44498  -0.44363  -0.44307  -0.43957  -0.43866
 Alpha  occ. eigenvalues --   -0.43653  -0.43558  -0.43314  -0.42876  -0.42679
 Alpha  occ. eigenvalues --   -0.42529  -0.42376  -0.42221  -0.42028  -0.41827
 Alpha  occ. eigenvalues --   -0.41600  -0.41365  -0.41057  -0.40975  -0.40740
 Alpha  occ. eigenvalues --   -0.40719  -0.40587  -0.40459  -0.40201  -0.40015
 Alpha  occ. eigenvalues --   -0.39935  -0.39720  -0.39230  -0.39070  -0.38907
 Alpha  occ. eigenvalues --   -0.38783  -0.38571  -0.38497  -0.38208  -0.38097
 Alpha  occ. eigenvalues --   -0.37974  -0.37765  -0.37571  -0.37399  -0.36996
 Alpha  occ. eigenvalues --   -0.36941  -0.36830  -0.36775  -0.36557  -0.35504
 Alpha  occ. eigenvalues --   -0.35449  -0.35282  -0.35062  -0.34895  -0.34569
 Alpha  occ. eigenvalues --   -0.34542  -0.34222  -0.33980  -0.33692  -0.33582
 Alpha  occ. eigenvalues --   -0.33337  -0.32595  -0.32022  -0.31784  -0.31598
 Alpha  occ. eigenvalues --   -0.31340  -0.31258  -0.30226  -0.29902  -0.29723
 Alpha  occ. eigenvalues --   -0.28939  -0.28385  -0.28143  -0.27773  -0.27499
 Alpha  occ. eigenvalues --   -0.27384  -0.27169  -0.22658  -0.21681
 Alpha virt. eigenvalues --   -0.08250  -0.06407  -0.01724  -0.00113   0.00849
 Alpha virt. eigenvalues --    0.02629   0.02816   0.03010   0.03997   0.04856
 Alpha virt. eigenvalues --    0.05480   0.06106   0.07607   0.07916   0.09288

 Mulliken charges:
               1
     1  Mg   0.820673
     2  C    0.059564
     3  C   -0.176187
     4  C   -0.187856
     5  C   -0.188066
     6  N   -0.657918
     7  C    0.328325
     8  C   -0.168425
     9  C   -0.155291
    10  C    0.329846
    11  C   -0.284793
    12  C   -0.172549
    13  C   -0.246739
    14  C    0.601886
    15  O   -0.454149
    16  O   -0.459303
    17  N   -0.719468
    18  C    0.341998
    19  C    0.031039
    20  C   -0.054231
    21  C    0.335474
    22  C   -0.380615
    23  C    0.242291
    24  O   -0.384884
    25  N   -0.674786
    26  C    0.299254
    27  C    0.019749
    28  C    0.034045
    29  C    0.290742
    30  C    0.218927
    31  C   -0.247439
    32  C   -0.299846
    33  N   -0.722450
    34  C    0.259474
    35  C    0.013635
    36  C    0.045309
    37  C    0.356616
    38  C   -0.383781
    39  C    0.365655
    40  O   -0.424958
    41  C   -0.357185
    42  C    0.613687
    43  O   -0.481720
    44  O   -0.412753
    45  C   -0.076206
    46  C    0.023952
    47  C   -0.178689
    48  C    0.155879
    49  C   -0.398108
    50  C   -0.217023
    51  C   -0.192716
    52  C   -0.175116
    53  C   -0.032418
    54  C   -0.309801
    55  C   -0.150359
    56  C   -0.177575
    57  C   -0.159482
    58  C   -0.069705
    59  C   -0.287856
    60  C   -0.171011
    61  C   -0.165689
    62  C   -0.158615
    63  C   -0.058220
    64  C   -0.284811
    65  C   -0.317000
    66  H    0.086556
    67  H    0.141241
    68  H    0.079919
    69  H    0.113128
    70  H    0.094369
    71  H    0.112635
    72  H    0.118926
    73  H    0.123098
    74  H    0.110658
    75  H    0.103652
    76  H    0.128901
    77  H    0.128762
    78  H    0.104594
    79  H    0.161162
    80  H    0.122669
    81  H    0.062515
    82  H    0.097067
    83  H    0.117936
    84  H    0.118353
    85  H    0.119236
    86  H    0.086421
    87  H    0.107438
    88  H    0.143077
    89  H    0.129680
    90  H    0.161053
    91  H    0.117449
    92  H    0.112721
    93  H    0.081764
    94  H    0.150149
    95  H    0.107867
    96  H    0.131246
    97  H    0.113534
    98  H    0.092157
    99  H    0.108246
   100  H    0.080228
   101  H    0.089575
   102  H    0.093297
   103  H    0.097255
   104  H    0.065224
   105  H    0.116544
   106  H    0.079429
   107  H    0.079239
   108  H    0.067930
   109  H    0.087245
   110  H    0.096852
   111  H    0.099127
   112  H    0.074121
   113  H    0.066817
   114  H    0.094436
   115  H    0.114407
   116  H    0.093486
   117  H    0.043579
   118  H    0.076104
   119  H    0.086027
   120  H    0.069231
   121  H    0.083514
   122  H    0.094060
   123  H    0.090796
   124  H    0.085835
   125  H    0.107555
   126  H    0.087800
   127  H    0.098662
   128  H    0.079813
   129  H    0.116230
   130  H    0.132056
   131  H    0.095471
   132  H    0.137602
   133  O   -0.430617
   134  H    0.050664
 Sum of Mulliken charges =  -0.00000

 Dipole moment (field-independent basis, Debye):
    X=              2.1989    Y=             -6.2520    Z=             -1.0196  Tot=              6.7054
 Quadrupole moment (field-independent basis, Debye-Ang):
   XX=           -376.7981   YY=           -438.0407   ZZ=           -395.8081
   XY=             11.7599   XZ=             17.3237   YZ=            -28.8475

 Normal termination of Gaussian 16 at Wed Oct  9 20:09:15 2019.
