 Gaussian 16, Revision A.03,
 Gaussian 16:  ES64L-G16RevA.03 25-Dec-2016

 ----------------------------------------------------------------------
 # td=(NStates=1) iop(3/107=0140000000,3/108=0140000000) iop(3/107=0140
 000000,3/108=0140000000) CAM-B3LYP/6-31G(d,p)
 ----------------------------------------------------------------------

 --
 TD
 --
 Symbolic Z-matrix:
 Charge =  0 Multiplicity = 1

                         Standard orientation:
 ---------------------------------------------------------------------
 Center     Atomic      Atomic             Coordinates (Angstroms)
 Number     Number       Type             X           Y           Z
 ---------------------------------------------------------------------
      1         12           0       -5.615089    1.153753    0.164903
      2          6           0       -5.035735   -2.138339   -0.392388
      3          6           0       -3.431466    1.183083    2.710245
      4          6           0       -6.394715    4.648553    0.770222
      5          6           0       -8.089121    1.181022   -2.317842
      6          7           0       -4.323201   -0.265098    1.049198
      7          6           0       -4.301079   -1.649504    0.682312
      8          6           0       -3.159179   -2.324665    1.422463
      9          6           0       -2.872726   -1.311530    2.591768
     10          6           0       -3.581830   -0.058101    2.150858
     11          6           0       -3.537905   -1.673104    3.932348
     12          6           0       -1.936405   -2.654178    0.551969
     13          6           0       -0.917507   -3.601434    1.360534
     14          6           0        0.287371   -3.872295    0.643465
     15          8           0        0.561885   -3.518349   -0.493792
     16          8           0        1.123874   -4.682072    1.336597
     17          7           0       -5.023879    2.665348    1.475632
     18          6           0       -4.013932    2.427488    2.431088
     19          6           0       -3.784931    3.658687    3.135822
     20          6           0       -4.655877    4.635405    2.591690
     21          6           0       -5.346320    3.964375    1.476217
     22          6           0       -2.728029    3.832041    4.275709
     23          6           0       -4.815493    5.963433    3.050427
     24          8           0       -4.060441    6.547502    3.939227
     25          7           0       -6.906857    2.684333   -0.545174
     26          6           0       -7.012878    3.970114   -0.310078
     27          6           0       -7.890894    4.569724   -1.242922
     28          6           0       -8.370851    3.591245   -2.073154
     29          6           0       -7.813366    2.407761   -1.686686
     30          6           0       -8.210438    6.047522   -1.294257
     31          6           0       -9.388410    3.940957   -3.170919
     32          6           0       -8.807018    3.997756   -4.683342
     33          7           0       -6.337358   -0.171669   -1.134555
     34          6           0       -7.352993   -0.038139   -2.084482
     35          6           0       -7.547649   -1.342441   -2.694925
     36          6           0       -6.658548   -2.181160   -2.136436
     37          6           0       -5.939728   -1.408334   -1.116908
     38          6           0       -8.491599   -1.770681   -3.816565
     39          6           0       -6.276427   -3.572368   -1.951091
     40          8           0       -6.593476   -4.591499   -2.599990
     41          6           0       -5.083250   -3.598401   -0.917469
     42          6           0       -5.368336   -4.613488    0.145161
     43          8           0       -5.668299   -4.499504    1.315569
     44          8           0       -5.161637   -5.837061   -0.454461
     45          6           0       -5.579806   -6.884313    0.386988
     46          6           0        2.355608   -5.123120    0.675652
     47          6           0        3.467698   -4.134580    1.105335
     48          6           0        4.021636   -3.247689    0.347309
     49          6           0        3.776248   -3.123366   -1.104652
     50          6           0        5.155748   -2.358109    0.777147
     51          6           0        6.502855   -2.656026    0.029816
     52          6           0        7.536822   -1.775443    0.609764
     53          6           0        9.040117   -1.989021   -0.122152
     54          6           0        9.567234   -3.445119    0.014539
     55          6           0        9.973438   -0.842065    0.404517
     56          6           0       11.295755   -0.758173   -0.346737
     57          6           0       12.196236    0.405473    0.218737
     58          6           0       13.570911    0.523583   -0.500147
     59          6           0       14.438262   -0.749270   -0.185179
     60          6           0       14.285733    1.818172   -0.149498
     61          6           0       15.548033    2.055215   -1.008704
     62          6           0       16.176691    3.461339   -0.657400
     63          6           0       17.398588    3.830351   -1.418871
     64          6           0       17.234417    3.936366   -2.957385
     65          6           0       17.935141    5.174371   -0.863421
     66          1           0       -2.742985    1.311351    3.554311
     67          1           0       -6.350398    5.720450    0.780994
     68          1           0       -9.012691    1.409389   -3.127594
     69          1           0       -3.569004   -3.340168    1.800852
     70          1           0       -1.762825   -1.295566    2.863150
     71          1           0       -3.135933   -2.594977    4.573851
     72          1           0       -3.512595   -0.597921    4.600377
     73          1           0       -4.535072   -2.118530    3.777735
     74          1           0       -2.266966   -3.256139   -0.286670
     75          1           0       -1.459360   -1.739654    0.263372
     76          1           0       -0.437517   -3.088422    2.061443
     77          1           0       -1.353908   -4.458078    1.870841
     78          1           0       -1.658427    3.424314    3.981728
     79          1           0       -2.777530    4.820244    4.480776
     80          1           0       -3.008637    3.261425    5.196190
     81          1           0       -5.422978    6.654311    2.375463
     82          1           0      -10.031398    3.086052   -3.150385
     83          1           0      -10.015794    4.793567   -3.116804
     84          1           0       -9.364877    3.968914   -5.612350
     85          1           0       -8.121613    4.702147   -4.649809
     86          1           0       -8.021232    3.285469   -4.978479
     87          1           0       -8.436981   -0.994797   -4.669862
     88          1           0       -8.221692   -2.876353   -4.013054
     89          1           0       -9.507575   -2.092487   -3.439868
     90          1           0       -4.205423   -3.909315   -1.485774
     91          1           0        2.649825   -6.129315    1.229061
     92          1           0        2.257365   -5.412152   -0.461170
     93          1           0        3.750829   -4.354731    2.207925
     94          1           0        2.744125   -3.150154   -1.327431
     95          1           0        3.986785   -2.104707   -1.449360
     96          1           0        4.482376   -3.903161   -1.701161
     97          1           0        4.985639   -1.154407    0.710728
     98          1           0        5.172412   -2.625128    1.786651
     99          1           0        6.836116   -3.577183    0.162103
    100          1           0        6.576999   -2.408885   -1.008889
    101          1           0        7.471062   -0.498021    0.524577
    102          1           0        7.771715   -1.847636    1.689719
    103          1           0        8.819694   -1.610148   -1.256751
    104          1           0        8.905868   -4.255310   -0.229261
    105          1           0       10.545549   -3.585001   -0.415636
    106          1           0        9.880877   -3.587894    0.922334
    107          1           0        9.646488    0.180085    0.359788
    108          1           0       10.330040   -1.060104    1.355165
    109          1           0       12.073156   -1.634579   -0.194873
    110          1           0       11.285693   -0.711538   -1.389921
    111          1           0       11.687068    1.285005    0.108703
    112          1           0       12.219880    0.346336    1.291527
    113          1           0       13.337395    0.391332   -1.645676
    114          1           0       14.854912   -0.728858    0.891539
    115          1           0       13.875543   -1.645185   -0.317813
    116          1           0       15.430459   -0.796652   -0.826821
    117          1           0       13.573132    2.639299   -0.390812
    118          1           0       14.641512    2.087763    1.078125
    119          1           0       16.445606    1.350039   -0.825980
    120          1           0       15.235683    2.303852   -1.980045
    121          1           0       15.434621    4.170938   -0.928232
    122          1           0       16.114591    3.472911    0.473606
    123          1           0       18.135760    3.073280   -1.059055
    124          1           0       16.550750    4.649098   -3.341308
    125          1           0       18.332575    4.157481   -3.379027
    126          1           0       17.059434    3.065937   -3.490218
    127          1           0       17.826848    5.371467    0.171542
    128          1           0       18.838994    5.137924   -1.323660
    129          1           0       17.271068    6.059879   -1.144692
    130          1           0       -5.202987   -7.857580   -0.119246
    131          1           0       -6.558834   -6.930242    0.621102
    132          1           0       -5.063671   -6.870184    1.406001
    133          8           0       -7.805824    6.857057   -0.534951
    134          1           0       -9.148664    6.199402   -2.124674
 ---------------------------------------------------------------------

 SCF Done:  E(RCAM-B3LYP) =  -3043.46184347     A.U. after   16 cycles

 Excitation energies and oscillator strengths:

 Excited State   1:      Singlet-A      2.0501 eV  604.76 nm  f=0.1772  <S**2>=0.000
     243 -> 246        0.26572
     244 -> 245        0.64432
 This state for optimization and/or second-order correction.
 Total Energy, E(TD-HF/TD-DFT) =  -3043.38650238
 Copying the excited state density for this state as the 1-particle RhoCI density.

 The electronic state is 1-A.
 Alpha  occ. eigenvalues --  -46.82203 -19.22975 -19.22097 -19.18848 -19.18507
 Alpha  occ. eigenvalues --  -19.17551 -19.16556 -19.16464 -14.39832 -14.37879
 Alpha  occ. eigenvalues --  -14.37137 -14.36829 -10.36058 -10.34690 -10.32288
 Alpha  occ. eigenvalues --  -10.31808 -10.30243 -10.29397 -10.28578 -10.28479
 Alpha  occ. eigenvalues --  -10.27781 -10.27585 -10.27364 -10.27028 -10.26827
 Alpha  occ. eigenvalues --  -10.26304 -10.26220 -10.26068 -10.25729 -10.25685
 Alpha  occ. eigenvalues --  -10.25429 -10.25405 -10.25278 -10.24783 -10.24733
 Alpha  occ. eigenvalues --  -10.24339 -10.24247 -10.24241 -10.24190 -10.23708
 Alpha  occ. eigenvalues --  -10.23632 -10.23558 -10.23453 -10.23386 -10.22690
 Alpha  occ. eigenvalues --  -10.22655 -10.22484 -10.22340 -10.22179 -10.22032
 Alpha  occ. eigenvalues --  -10.21972 -10.21803 -10.21746 -10.21627 -10.21035
 Alpha  occ. eigenvalues --  -10.20762 -10.20735 -10.20380 -10.20336 -10.20285
 Alpha  occ. eigenvalues --  -10.20284 -10.20191 -10.19404 -10.19361 -10.19268
 Alpha  occ. eigenvalues --  -10.18985  -3.10699  -1.85651  -1.85158  -1.85108
 Alpha  occ. eigenvalues --   -1.14368  -1.12970  -1.09748  -1.06033  -1.05692
 Alpha  occ. eigenvalues --   -1.03792  -1.02019  -1.01794  -1.00266  -0.99893
 Alpha  occ. eigenvalues --   -0.98848  -0.89415  -0.86738  -0.86159  -0.86049
 Alpha  occ. eigenvalues --   -0.85010  -0.84908  -0.84078  -0.84013  -0.83102
 Alpha  occ. eigenvalues --   -0.82902  -0.82652  -0.82422  -0.81017  -0.80251
 Alpha  occ. eigenvalues --   -0.78961  -0.78424  -0.77901  -0.77781  -0.76460
 Alpha  occ. eigenvalues --   -0.75484  -0.75039  -0.74300  -0.73414  -0.72353
 Alpha  occ. eigenvalues --   -0.71629  -0.71264  -0.70633  -0.70265  -0.70050
 Alpha  occ. eigenvalues --   -0.69678  -0.69002  -0.68460  -0.67315  -0.66892
 Alpha  occ. eigenvalues --   -0.65700  -0.65003  -0.64539  -0.62889  -0.62478
 Alpha  occ. eigenvalues --   -0.61906  -0.61204  -0.60764  -0.59690  -0.58712
 Alpha  occ. eigenvalues --   -0.58525  -0.58240  -0.58064  -0.57105  -0.56954
 Alpha  occ. eigenvalues --   -0.56488  -0.56267  -0.55511  -0.55160  -0.55010
 Alpha  occ. eigenvalues --   -0.54686  -0.53938  -0.53447  -0.52697  -0.52405
 Alpha  occ. eigenvalues --   -0.52002  -0.51800  -0.51219  -0.50928  -0.50681
 Alpha  occ. eigenvalues --   -0.50537  -0.49996  -0.49851  -0.49249  -0.49161
 Alpha  occ. eigenvalues --   -0.49069  -0.48846  -0.48503  -0.48445  -0.47980
 Alpha  occ. eigenvalues --   -0.47870  -0.47666  -0.47405  -0.47242  -0.46914
 Alpha  occ. eigenvalues --   -0.46717  -0.46383  -0.46113  -0.45968  -0.45866
 Alpha  occ. eigenvalues --   -0.45624  -0.45425  -0.45280  -0.45050  -0.44983
 Alpha  occ. eigenvalues --   -0.44567  -0.44476  -0.44304  -0.44213  -0.43631
 Alpha  occ. eigenvalues --   -0.43444  -0.43238  -0.43200  -0.43040  -0.42871
 Alpha  occ. eigenvalues --   -0.42848  -0.42574  -0.42339  -0.42149  -0.41969
 Alpha  occ. eigenvalues --   -0.41860  -0.41506  -0.41402  -0.40907  -0.40742
 Alpha  occ. eigenvalues --   -0.40665  -0.40464  -0.40253  -0.40148  -0.39979
 Alpha  occ. eigenvalues --   -0.39911  -0.39718  -0.39412  -0.39190  -0.39123
 Alpha  occ. eigenvalues --   -0.38920  -0.38730  -0.38677  -0.38374  -0.38138
 Alpha  occ. eigenvalues --   -0.38062  -0.37834  -0.37610  -0.37568  -0.37176
 Alpha  occ. eigenvalues --   -0.37132  -0.36991  -0.36697  -0.36637  -0.35879
 Alpha  occ. eigenvalues --   -0.35740  -0.35441  -0.35133  -0.34539  -0.34409
 Alpha  occ. eigenvalues --   -0.34367  -0.33749  -0.33670  -0.33460  -0.33185
 Alpha  occ. eigenvalues --   -0.32970  -0.32511  -0.32393  -0.32327  -0.31981
 Alpha  occ. eigenvalues --   -0.31723  -0.31115  -0.30768  -0.30271  -0.29767
 Alpha  occ. eigenvalues --   -0.29714  -0.28394  -0.28345  -0.27993  -0.27777
 Alpha  occ. eigenvalues --   -0.27682  -0.27214  -0.23531  -0.22558
 Alpha virt. eigenvalues --   -0.09438  -0.07135  -0.02950  -0.01345   0.00371
 Alpha virt. eigenvalues --    0.01987   0.02849   0.03804   0.03917   0.04290
 Alpha virt. eigenvalues --    0.04678   0.04963   0.07403   0.08314   0.08861

 Mulliken charges:
               1
     1  Mg   0.825507
     2  C    0.077564
     3  C   -0.196823
     4  C   -0.138689
     5  C   -0.162363
     6  N   -0.650958
     7  C    0.280126
     8  C   -0.158701
     9  C   -0.152345
    10  C    0.407843
    11  C   -0.303319
    12  C   -0.160960
    13  C   -0.259042
    14  C    0.594791
    15  O   -0.481746
    16  O   -0.472531
    17  N   -0.696764
    18  C    0.314733
    19  C    0.036831
    20  C   -0.005444
    21  C    0.304718
    22  C   -0.368889
    23  C    0.193127
    24  O   -0.453342
    25  N   -0.689167
    26  C    0.330831
    27  C   -0.072088
    28  C    0.062581
    29  C    0.254550
    30  C    0.270948
    31  C   -0.251383
    32  C   -0.346144
    33  N   -0.760939
    34  C    0.249523
    35  C    0.000411
    36  C    0.054358
    37  C    0.324814
    38  C   -0.393744
    39  C    0.359417
    40  O   -0.466310
    41  C   -0.315283
    42  C    0.623837
    43  O   -0.471839
    44  O   -0.429507
    45  C   -0.087650
    46  C   -0.000325
    47  C   -0.145615
    48  C    0.155811
    49  C   -0.372795
    50  C   -0.222200
    51  C   -0.153573
    52  C   -0.176042
    53  C   -0.055423
    54  C   -0.331475
    55  C   -0.174186
    56  C   -0.193772
    57  C   -0.184157
    58  C   -0.046627
    59  C   -0.309080
    60  C   -0.156026
    61  C   -0.170427
    62  C   -0.182904
    63  C   -0.058624
    64  C   -0.320074
    65  C   -0.294764
    66  H    0.085687
    67  H    0.136623
    68  H    0.114080
    69  H    0.118240
    70  H    0.111431
    71  H    0.095403
    72  H    0.088786
    73  H    0.135079
    74  H    0.122676
    75  H    0.126768
    76  H    0.150329
    77  H    0.147212
    78  H    0.107809
    79  H    0.166882
    80  H    0.122736
    81  H    0.088498
    82  H    0.109958
    83  H    0.133585
    84  H    0.120116
    85  H    0.130496
    86  H    0.100123
    87  H    0.125720
    88  H    0.147427
    89  H    0.133413
    90  H    0.181062
    91  H    0.098278
    92  H    0.130028
    93  H    0.081170
    94  H    0.149114
    95  H    0.103465
    96  H    0.097684
    97  H    0.084984
    98  H    0.097496
    99  H    0.111400
   100  H    0.111647
   101  H    0.046126
   102  H    0.089798
   103  H    0.055534
   104  H    0.108570
   105  H    0.106971
   106  H    0.120862
   107  H    0.100906
   108  H    0.102448
   109  H    0.066519
   110  H    0.095612
   111  H    0.089363
   112  H    0.090243
   113  H    0.077981
   114  H    0.090232
   115  H    0.106604
   116  H    0.085492
   117  H    0.090496
   118  H    0.048176
   119  H    0.086989
   120  H    0.105612
   121  H    0.082299
   122  H    0.074055
   123  H    0.083107
   124  H    0.116284
   125  H    0.078656
   126  H    0.118351
   127  H    0.105962
   128  H    0.107114
   129  H    0.082771
   130  H    0.110128
   131  H    0.140833
   132  H    0.109390
   133  O   -0.389071
   134  H    0.021924
 Sum of Mulliken charges =  -0.00000

 Dipole moment (field-independent basis, Debye):
    X=              1.3917    Y=             -5.2513    Z=             -1.5641  Tot=              5.6533
 Quadrupole moment (field-independent basis, Debye-Ang):
   XX=           -382.4590   YY=           -443.6836   ZZ=           -398.2239
   XY=             10.2292   XZ=             21.5774   YZ=            -41.3372

 Normal termination of Gaussian 16 at Wed Oct  9 06:46:41 2019.
