 Gaussian 16, Revision A.03,
 Gaussian 16:  ES64L-G16RevA.03 25-Dec-2016

 ----------------------------------------------------------------------
 # td=(NStates=1) iop(3/107=0140000000,3/108=0140000000) iop(3/107=0140
 000000,3/108=0140000000) CAM-B3LYP/6-31G(d,p)
 ----------------------------------------------------------------------

 --
 TD
 --
 Symbolic Z-matrix:
 Charge =  0 Multiplicity = 1

                         Standard orientation:
 ---------------------------------------------------------------------
 Center     Atomic      Atomic             Coordinates (Angstroms)
 Number     Number       Type             X           Y           Z
 ---------------------------------------------------------------------
      1         12           0       -5.704934    1.217084    0.259596
      2          6           0       -5.081981   -2.121980   -0.337590
      3          6           0       -3.421726    1.126047    2.847358
      4          6           0       -6.058906    4.578115    0.764936
      5          6           0       -7.997745    1.280687   -2.340939
      6          7           0       -4.384726   -0.263645    1.103682
      7          6           0       -4.303832   -1.578736    0.670760
      8          6           0       -3.275459   -2.401529    1.514948
      9          6           0       -2.918159   -1.333903    2.560137
     10          6           0       -3.613009   -0.075076    2.080294
     11          6           0       -3.338950   -1.827745    4.039268
     12          6           0       -2.057184   -2.729719    0.505876
     13          6           0       -1.046040   -3.702962    1.241502
     14          6           0        0.288340   -3.913424    0.478436
     15          8           0        0.428770   -3.455902   -0.616049
     16          8           0        0.971213   -4.756148    1.094841
     17          7           0       -4.862247    2.617253    1.460348
     18          6           0       -3.969790    2.403431    2.541768
     19          6           0       -3.621203    3.633966    3.249332
     20          6           0       -4.422184    4.623072    2.593320
     21          6           0       -5.188109    3.952121    1.619581
     22          6           0       -2.728013    3.767403    4.249142
     23          6           0       -4.508489    6.044069    2.981266
     24          8           0       -3.666688    6.523760    3.881054
     25          7           0       -6.882595    2.699184   -0.698229
     26          6           0       -6.850985    3.998773   -0.307878
     27          6           0       -7.868168    4.639673   -1.199756
     28          6           0       -8.350045    3.703323   -2.058909
     29          6           0       -7.751877    2.469453   -1.665393
     30          6           0       -8.151444    6.154021   -1.290108
     31          6           0       -9.330148    3.909873   -3.236240
     32          6           0       -8.746502    4.188184   -4.582982
     33          7           0       -6.331887   -0.133239   -1.028024
     34          6           0       -7.417063    0.029628   -2.014258
     35          6           0       -7.665521   -1.229356   -2.637869
     36          6           0       -6.810883   -2.085213   -2.025013
     37          6           0       -6.055285   -1.426565   -1.011254
     38          6           0       -8.657879   -1.615124   -3.676466
     39          6           0       -6.382246   -3.496459   -2.027253
     40          8           0       -6.656962   -4.497754   -2.604679
     41          6           0       -5.171860   -3.528404   -0.859392
     42          6           0       -5.447292   -4.566022    0.159160
     43          8           0       -5.865470   -4.386485    1.264508
     44          8           0       -5.198435   -5.821520   -0.397860
     45          6           0       -5.437756   -6.992987    0.440869
     46          6           0        2.299757   -5.127146    0.526317
     47          6           0        3.340542   -4.253241    0.971758
     48          6           0        4.040523   -3.412357    0.153285
     49          6           0        3.823924   -3.263226   -1.319335
     50          6           0        5.096496   -2.462825    0.666173
     51          6           0        6.502817   -2.719177   -0.014007
     52          6           0        7.644478   -1.820824    0.572619
     53          6           0        9.026599   -2.086212    0.033979
     54          6           0        9.579160   -3.480777    0.543990
     55          6           0        9.944414   -0.940081    0.406564
     56          6           0       11.333865   -0.947588   -0.305824
     57          6           0       12.250597    0.311454    0.125074
     58          6           0       13.544896    0.423797   -0.644278
     59          6           0       14.562149   -0.704941   -0.448533
     60          6           0       14.278648    1.771489   -0.216341
     61          6           0       15.500164    2.095805   -1.074560
     62          6           0       15.960290    3.490019   -0.684229
     63          6           0       17.344991    3.899719   -1.391894
     64          6           0       17.177396    4.207542   -2.919475
     65          6           0       17.926808    5.112621   -0.592157
     66          1           0       -2.510430    1.139174    3.577000
     67          1           0       -6.370135    5.698490    0.815099
     68          1           0       -8.550480    1.202444   -3.279070
     69          1           0       -3.948544   -3.234125    1.786622
     70          1           0       -1.703848   -1.216970    2.695730
     71          1           0       -2.981655   -2.644439    4.284253
     72          1           0       -2.949727   -0.986656    4.644448
     73          1           0       -4.387021   -1.897548    4.095369
     74          1           0       -2.493255   -3.033086   -0.494579
     75          1           0       -1.637363   -1.709279    0.085135
     76          1           0       -0.874622   -3.160449    2.156028
     77          1           0       -1.496304   -4.590633    1.566156
     78          1           0       -1.770468    3.389713    3.936607
     79          1           0       -2.791262    4.712641    4.964788
     80          1           0       -2.852999    2.790135    4.922850
     81          1           0       -5.231823    6.742496    2.507456
     82          1           0       -9.821985    3.046026   -3.356666
     83          1           0      -10.087956    4.588335   -2.902295
     84          1           0       -9.341986    3.706406   -5.242044
     85          1           0       -8.345404    5.144226   -4.636396
     86          1           0       -7.808637    3.455327   -4.835271
     87          1           0       -8.860594   -1.088045   -4.513043
     88          1           0       -8.672111   -2.690428   -3.958314
     89          1           0       -9.817628   -1.735887   -3.273658
     90          1           0       -4.149322   -3.769863   -1.455684
     91          1           0        2.443913   -6.092271    0.966911
     92          1           0        2.124606   -5.023963   -0.650751
     93          1           0        3.530270   -4.355595    1.920745
     94          1           0        2.889279   -3.617828   -1.592919
     95          1           0        4.242330   -2.285137   -1.718254
     96          1           0        4.539958   -4.150192   -1.838673
     97          1           0        4.697650   -1.483423    0.345577
     98          1           0        5.506413   -2.327834    1.751510
     99          1           0        6.631699   -3.737232    0.271473
    100          1           0        6.362752   -2.535494   -1.171825
    101          1           0        7.434805   -0.735443    0.618105
    102          1           0        7.542889   -1.808129    1.696801
    103          1           0        8.941240   -2.244591   -1.073058
    104          1           0        9.076107   -4.399041    0.072533
    105          1           0       10.664339   -3.535154    0.098621
    106          1           0        9.483118   -3.648750    1.590773
    107          1           0        9.536210   -0.002800    0.090356
    108          1           0       10.167920   -0.930610    1.460360
    109          1           0       11.989363   -1.827632   -0.054010
    110          1           0       11.277627   -0.798445   -1.360953
    111          1           0       11.665558    1.163357   -0.029811
    112          1           0       12.411054    0.326694    1.203693
    113          1           0       13.146791    0.488576   -1.751472
    114          1           0       14.910846   -0.753420    0.566743
    115          1           0       14.026564   -1.686660   -0.688231
    116          1           0       15.259274   -0.512927   -1.169454
    117          1           0       13.317943    2.627765   -0.287182
    118          1           0       14.470063    1.834612    0.835610
    119          1           0       16.321379    1.545418   -0.847990
    120          1           0       15.121765    1.877282   -2.192395
    121          1           0       15.178668    4.164124   -0.748667
    122          1           0       16.132310    3.529823    0.474890
    123          1           0       17.965565    3.044412   -1.258481
    124          1           0       16.640969    5.035761   -3.056233
    125          1           0       18.094417    4.374872   -3.400905
    126          1           0       16.830711    3.340884   -3.265061
    127          1           0       18.172274    4.920552    0.363774
    128          1           0       18.925345    5.262859   -1.078920
    129          1           0       17.189113    6.063715   -0.599860
    130          1           0       -5.359663   -7.734351   -0.327816
    131          1           0       -6.504970   -6.900663    0.815251
    132          1           0       -4.661816   -6.791925    1.233633
    133          8           0       -7.674833    7.029578   -0.487169
    134          1           0       -8.819171    6.510605   -2.296385
 ---------------------------------------------------------------------

 SCF Done:  E(RCAM-B3LYP) =  -3043.46606993     A.U. after   16 cycles

 Excitation energies and oscillator strengths:

 Excited State   1:      Singlet-A      2.0790 eV  596.35 nm  f=0.1687  <S**2>=0.000
     243 -> 246        0.27827
     244 -> 245        0.64049
 This state for optimization and/or second-order correction.
 Total Energy, E(TD-HF/TD-DFT) =  -3043.38966634
 Copying the excited state density for this state as the 1-particle RhoCI density.

 The electronic state is 1-A.
 Alpha  occ. eigenvalues --  -46.81319 -19.22789 -19.20555 -19.17943 -19.17772
 Alpha  occ. eigenvalues --  -19.17440 -19.16457 -19.15649 -14.38955 -14.36929
 Alpha  occ. eigenvalues --  -14.36527 -14.36498 -10.34409 -10.33706 -10.32676
 Alpha  occ. eigenvalues --  -10.31860 -10.30857 -10.28189 -10.27677 -10.27341
 Alpha  occ. eigenvalues --  -10.27229 -10.27216 -10.26958 -10.26349 -10.26061
 Alpha  occ. eigenvalues --  -10.25283 -10.25153 -10.25108 -10.25085 -10.24928
 Alpha  occ. eigenvalues --  -10.24861 -10.24748 -10.24587 -10.24004 -10.23765
 Alpha  occ. eigenvalues --  -10.23683 -10.23625 -10.23574 -10.23410 -10.23395
 Alpha  occ. eigenvalues --  -10.23326 -10.23022 -10.23007 -10.22841 -10.22551
 Alpha  occ. eigenvalues --  -10.22529 -10.22334 -10.22294 -10.22170 -10.22155
 Alpha  occ. eigenvalues --  -10.22009 -10.21942 -10.21640 -10.21629 -10.21533
 Alpha  occ. eigenvalues --  -10.21261 -10.20878 -10.20865 -10.20715 -10.20402
 Alpha  occ. eigenvalues --  -10.20375 -10.20275 -10.20156 -10.19620 -10.19597
 Alpha  occ. eigenvalues --  -10.17606  -3.09932  -1.84867  -1.84392  -1.84356
 Alpha  occ. eigenvalues --   -1.16170  -1.12000  -1.08732  -1.05362  -1.04455
 Alpha  occ. eigenvalues --   -1.03704  -1.02376  -1.01008  -1.00668  -0.99238
 Alpha  occ. eigenvalues --   -0.98451  -0.88003  -0.86973  -0.85770  -0.85175
 Alpha  occ. eigenvalues --   -0.85034  -0.84465  -0.84390  -0.84122  -0.83239
 Alpha  occ. eigenvalues --   -0.82857  -0.82586  -0.81671  -0.80175  -0.79151
 Alpha  occ. eigenvalues --   -0.79041  -0.78390  -0.77871  -0.77056  -0.76653
 Alpha  occ. eigenvalues --   -0.75770  -0.75143  -0.74421  -0.73003  -0.72055
 Alpha  occ. eigenvalues --   -0.71789  -0.71280  -0.70920  -0.70156  -0.69545
 Alpha  occ. eigenvalues --   -0.68892  -0.68741  -0.67532  -0.66813  -0.65903
 Alpha  occ. eigenvalues --   -0.65617  -0.64868  -0.63323  -0.62633  -0.62066
 Alpha  occ. eigenvalues --   -0.61485  -0.60586  -0.60362  -0.59685  -0.59592
 Alpha  occ. eigenvalues --   -0.58648  -0.57685  -0.57567  -0.57470  -0.57124
 Alpha  occ. eigenvalues --   -0.56925  -0.56552  -0.55312  -0.55154  -0.54570
 Alpha  occ. eigenvalues --   -0.54045  -0.53478  -0.53094  -0.52621  -0.52475
 Alpha  occ. eigenvalues --   -0.51612  -0.51387  -0.50953  -0.50651  -0.50472
 Alpha  occ. eigenvalues --   -0.50175  -0.49910  -0.49664  -0.49403  -0.49131
 Alpha  occ. eigenvalues --   -0.48908  -0.48689  -0.48298  -0.48065  -0.47811
 Alpha  occ. eigenvalues --   -0.47546  -0.47412  -0.47278  -0.47111  -0.46848
 Alpha  occ. eigenvalues --   -0.46702  -0.46612  -0.46280  -0.46006  -0.45949
 Alpha  occ. eigenvalues --   -0.45498  -0.45421  -0.45219  -0.45087  -0.44773
 Alpha  occ. eigenvalues --   -0.44513  -0.44285  -0.44115  -0.44013  -0.43773
 Alpha  occ. eigenvalues --   -0.43532  -0.43432  -0.43287  -0.43067  -0.42912
 Alpha  occ. eigenvalues --   -0.42864  -0.42320  -0.42247  -0.42027  -0.41979
 Alpha  occ. eigenvalues --   -0.41890  -0.41768  -0.41538  -0.41267  -0.41043
 Alpha  occ. eigenvalues --   -0.40882  -0.40394  -0.40260  -0.39962  -0.39823
 Alpha  occ. eigenvalues --   -0.39712  -0.39483  -0.39372  -0.39322  -0.39112
 Alpha  occ. eigenvalues --   -0.38811  -0.38513  -0.38248  -0.38059  -0.38025
 Alpha  occ. eigenvalues --   -0.37787  -0.37468  -0.37428  -0.37021  -0.36818
 Alpha  occ. eigenvalues --   -0.36753  -0.36350  -0.36267  -0.35936  -0.35721
 Alpha  occ. eigenvalues --   -0.35399  -0.35210  -0.35100  -0.35034  -0.34646
 Alpha  occ. eigenvalues --   -0.34113  -0.34095  -0.33695  -0.33564  -0.33348
 Alpha  occ. eigenvalues --   -0.33227  -0.32830  -0.32433  -0.32177  -0.31756
 Alpha  occ. eigenvalues --   -0.31383  -0.30868  -0.29831  -0.29692  -0.29435
 Alpha  occ. eigenvalues --   -0.28810  -0.28129  -0.27899  -0.27527  -0.27240
 Alpha  occ. eigenvalues --   -0.27104  -0.26962  -0.22904  -0.21483
 Alpha virt. eigenvalues --   -0.08265  -0.06395  -0.02082  -0.01530   0.00884
 Alpha virt. eigenvalues --    0.02047   0.03127   0.03529   0.04468   0.05013
 Alpha virt. eigenvalues --    0.05339   0.06394   0.08084   0.08478   0.08971

 Mulliken charges:
               1
     1  Mg   0.833144
     2  C    0.119208
     3  C   -0.220272
     4  C   -0.204270
     5  C   -0.141987
     6  N   -0.611112
     7  C    0.232148
     8  C   -0.141638
     9  C   -0.177536
    10  C    0.396094
    11  C   -0.289268
    12  C   -0.173917
    13  C   -0.271913
    14  C    0.593712
    15  O   -0.476301
    16  O   -0.416121
    17  N   -0.700605
    18  C    0.297966
    19  C    0.146857
    20  C    0.000004
    21  C    0.336046
    22  C   -0.447701
    23  C    0.217663
    24  O   -0.461129
    25  N   -0.704837
    26  C    0.293998
    27  C   -0.074193
    28  C    0.031125
    29  C    0.321236
    30  C    0.245843
    31  C   -0.231721
    32  C   -0.301267
    33  N   -0.742906
    34  C    0.199416
    35  C    0.090199
    36  C    0.005195
    37  C    0.312597
    38  C   -0.407494
    39  C    0.363537
    40  O   -0.423426
    41  C   -0.356599
    42  C    0.623860
    43  O   -0.466242
    44  O   -0.482229
    45  C   -0.078110
    46  C   -0.027981
    47  C   -0.101091
    48  C    0.152586
    49  C   -0.364970
    50  C   -0.244392
    51  C   -0.174267
    52  C   -0.179428
    53  C   -0.038176
    54  C   -0.319150
    55  C   -0.171068
    56  C   -0.200303
    57  C   -0.183957
    58  C   -0.061235
    59  C   -0.299943
    60  C   -0.161303
    61  C   -0.160782
    62  C   -0.178262
    63  C   -0.074673
    64  C   -0.302135
    65  C   -0.304913
    66  H    0.076422
    67  H    0.135024
    68  H    0.102118
    69  H    0.136549
    70  H    0.087723
    71  H    0.121508
    72  H    0.100165
    73  H    0.124126
    74  H    0.102912
    75  H    0.106691
    76  H    0.122164
    77  H    0.132902
    78  H    0.148532
    79  H    0.172313
    80  H    0.103348
    81  H    0.116455
    82  H    0.109314
    83  H    0.117134
    84  H    0.125526
    85  H    0.129384
    86  H    0.079295
    87  H    0.137050
    88  H    0.152318
    89  H    0.100629
    90  H    0.147358
    91  H    0.120352
    92  H    0.119304
    93  H    0.077773
    94  H    0.153101
    95  H    0.122552
    96  H    0.092525
    97  H    0.109257
    98  H    0.089177
    99  H    0.114547
   100  H    0.082330
   101  H    0.085055
   102  H    0.074999
   103  H    0.085123
   104  H    0.091594
   105  H    0.092028
   106  H    0.109488
   107  H    0.098202
   108  H    0.099020
   109  H    0.092608
   110  H    0.093934
   111  H    0.091338
   112  H    0.078319
   113  H    0.062752
   114  H    0.106449
   115  H    0.085864
   116  H    0.117501
   117  H    0.037023
   118  H    0.097502
   119  H    0.109960
   120  H    0.079522
   121  H    0.099248
   122  H    0.068700
   123  H    0.083744
   124  H    0.113324
   125  H    0.099708
   126  H    0.109827
   127  H    0.112651
   128  H    0.088172
   129  H    0.081867
   130  H    0.143089
   131  H    0.130553
   132  H    0.126787
   133  O   -0.434140
   134  H    0.058703
 Sum of Mulliken charges =  -0.00000

 Dipole moment (field-independent basis, Debye):
    X=              2.8875    Y=             -5.8899    Z=             -0.9760  Tot=              6.6318
 Quadrupole moment (field-independent basis, Debye-Ang):
   XX=           -356.6953   YY=           -443.9724   ZZ=           -391.0467
   XY=              6.0340   XZ=             27.8682   YZ=            -32.8372

 Normal termination of Gaussian 16 at Fri Oct 11 04:10:04 2019.
