 Gaussian 16, Revision A.03,
 Gaussian 16:  ES64L-G16RevA.03 25-Dec-2016

 ----------------------------------------------------------------------
 # td=(NStates=1) iop(3/107=0140000000,3/108=0140000000) iop(3/107=0140
 000000,3/108=0140000000) CAM-B3LYP/6-31G(d,p)
 ----------------------------------------------------------------------

 --
 TD
 --
 Symbolic Z-matrix:
 Charge =  0 Multiplicity = 1

                         Standard orientation:
 ---------------------------------------------------------------------
 Center     Atomic      Atomic             Coordinates (Angstroms)
 Number     Number       Type             X           Y           Z
 ---------------------------------------------------------------------
      1         12           0       -5.644794    1.214796    0.215522
      2          6           0       -5.015532   -2.116665   -0.355787
      3          6           0       -3.384389    1.232607    2.787507
      4          6           0       -6.250393    4.547480    0.686742
      5          6           0       -7.976758    1.229023   -2.440924
      6          7           0       -4.282840   -0.280634    1.005665
      7          6           0       -4.158615   -1.629675    0.639017
      8          6           0       -3.166381   -2.363555    1.505645
      9          6           0       -2.909314   -1.284041    2.632887
     10          6           0       -3.525233   -0.057136    2.145816
     11          6           0       -3.604399   -1.750338    3.969283
     12          6           0       -1.863455   -2.684821    0.589975
     13          6           0       -0.942807   -3.650062    1.327950
     14          6           0        0.236523   -3.986085    0.588659
     15          8           0        0.439547   -3.668641   -0.528403
     16          8           0        1.107463   -4.815500    1.352366
     17          7           0       -4.758080    2.645045    1.334057
     18          6           0       -3.886660    2.417437    2.439561
     19          6           0       -3.701499    3.689701    3.126459
     20          6           0       -4.520794    4.616515    2.549967
     21          6           0       -5.246796    4.012548    1.484662
     22          6           0       -2.780949    3.773943    4.343120
     23          6           0       -4.738811    5.996855    3.011827
     24          8           0       -4.176788    6.546995    3.955744
     25          7           0       -6.839981    2.595984   -0.729573
     26          6           0       -6.914304    3.940414   -0.399936
     27          6           0       -7.896622    4.619906   -1.221125
     28          6           0       -8.378860    3.662948   -2.041877
     29          6           0       -7.765110    2.435938   -1.681997
     30          6           0       -8.206900    6.010343   -1.194791
     31          6           0       -9.516769    3.731573   -3.084109
     32          6           0       -8.935700    4.129372   -4.468004
     33          7           0       -6.311107   -0.106773   -1.181390
     34          6           0       -7.320328   -0.064142   -2.202367
     35          6           0       -7.545267   -1.380988   -2.730212
     36          6           0       -6.636613   -2.189122   -2.023259
     37          6           0       -5.903088   -1.365387   -1.066816
     38          6           0       -8.574798   -1.714525   -3.710133
     39          6           0       -6.260048   -3.569406   -2.036268
     40          8           0       -6.522484   -4.496130   -2.666341
     41          6           0       -5.027332   -3.565316   -0.969404
     42          6           0       -5.273758   -4.657254    0.120946
     43          8           0       -5.807080   -4.468569    1.194899
     44          8           0       -4.917922   -5.849915   -0.390398
     45          6           0       -5.339851   -6.917188    0.525024
     46          6           0        2.393635   -5.143192    0.603423
     47          6           0        3.350756   -4.087323    1.083569
     48          6           0        4.011252   -3.246884    0.184332
     49          6           0        3.800364   -3.126885   -1.268834
     50          6           0        5.141942   -2.325235    0.722933
     51          6           0        6.555688   -2.623041    0.082588
     52          6           0        7.645954   -1.713719    0.648960
     53          6           0        9.087887   -1.950926   -0.069743
     54          6           0        9.538783   -3.400547    0.215531
     55          6           0       10.038565   -0.911904    0.500977
     56          6           0       11.321672   -0.820908   -0.286132
     57          6           0       12.121942    0.404811    0.246100
     58          6           0       13.472467    0.524551   -0.475315
     59          6           0       14.383563   -0.723190   -0.356533
     60          6           0       14.151043    1.784502   -0.037852
     61          6           0       15.435548    2.071842   -0.876661
     62          6           0       16.064809    3.635874   -0.656987
     63          6           0       17.319078    3.953938   -1.497649
     64          6           0       17.040067    3.917442   -2.957796
     65          6           0       17.920054    5.266547   -1.009237
     66          1           0       -2.677639    1.238882    3.621488
     67          1           0       -6.484403    5.531436    0.984332
     68          1           0       -8.620937    1.095697   -3.122208
     69          1           0       -3.591775   -3.325224    1.921749
     70          1           0       -1.811586   -1.240973    2.819389
     71          1           0       -3.054367   -2.684224    4.368539
     72          1           0       -3.410762   -0.911987    4.690309
     73          1           0       -4.669017   -1.778005    3.775198
     74          1           0       -2.232529   -3.158447   -0.304981
     75          1           0       -1.198402   -1.916514    0.289529
     76          1           0       -0.558522   -3.314237    2.438570
     77          1           0       -1.494414   -4.600510    1.537704
     78          1           0       -1.699176    4.155267    3.918244
     79          1           0       -3.062448    4.662524    5.106306
     80          1           0       -2.746945    2.610722    4.793441
     81          1           0       -5.533740    6.467567    2.305666
     82          1           0      -10.017939    2.842454   -3.325000
     83          1           0      -10.289084    4.621252   -3.046800
     84          1           0       -9.685175    3.931377   -5.254696
     85          1           0       -8.492020    4.922497   -4.404015
     86          1           0       -8.199876    3.320230   -4.782554
     87          1           0       -8.136842   -1.361536   -4.802375
     88          1           0       -8.738308   -2.843591   -3.887324
     89          1           0       -9.552747   -1.202583   -3.681180
     90          1           0       -4.155649   -3.875581   -1.290055
     91          1           0        2.526767   -6.052412    1.098327
     92          1           0        2.197877   -5.139710   -0.362246
     93          1           0        3.534372   -4.185275    2.098343
     94          1           0        2.937653   -3.443327   -1.759130
     95          1           0        3.893634   -2.053542   -1.720360
     96          1           0        4.473040   -3.630246   -1.894737
     97          1           0        4.894541   -1.244378    0.482426
     98          1           0        5.246271   -2.539700    1.803931
     99          1           0        6.741533   -3.782289    0.211419
    100          1           0        6.736401   -2.498007   -1.020554
    101          1           0        7.258624   -0.593629    0.492499
    102          1           0        7.686018   -1.898647    1.758559
    103          1           0        8.849609   -1.846517   -1.039235
    104          1           0        8.712219   -3.988968   -0.212020
    105          1           0       10.464526   -3.507329   -0.340717
    106          1           0        9.728592   -3.673005    1.149108
    107          1           0        9.506484    0.134136    0.426628
    108          1           0       10.464689   -1.078817    1.528414
    109          1           0       11.926548   -1.878451   -0.125568
    110          1           0       10.976785   -0.593679   -1.378936
    111          1           0       11.432875    1.387705    0.146388
    112          1           0       12.243281    0.183578    1.427077
    113          1           0       13.055904    0.509719   -1.627459
    114          1           0       14.421986   -1.194902    0.816367
    115          1           0       13.926805   -1.705368   -0.933880
    116          1           0       15.380971   -0.654684   -0.864817
    117          1           0       13.393620    2.691338    0.038495
    118          1           0       14.589985    1.552013    0.936051
    119          1           0       16.244690    1.572849   -0.974855
    120          1           0       15.103374    2.090156   -1.896693
    121          1           0       15.320848    4.227974   -0.802545
    122          1           0       16.258085    3.866776    0.364960
    123          1           0       17.857982    3.184733   -1.217580
    124          1           0       16.227333    4.570180   -3.115893
    125          1           0       17.765174    4.307215   -3.576658
    126          1           0       16.656882    2.941609   -3.560268
    127          1           0       18.009915    5.177469    0.020559
    128          1           0       18.812330    5.351594   -1.566025
    129          1           0       17.338014    6.281995   -1.035313
    130          1           0       -5.142125   -7.785336   -0.007176
    131          1           0       -6.298776   -7.031384    0.743406
    132          1           0       -4.812207   -6.720340    1.379513
    133          8           0       -7.849799    6.899788   -0.385983
    134          1           0       -8.711499    6.245380   -2.264000
 ---------------------------------------------------------------------

 SCF Done:  E(RCAM-B3LYP) =  -3043.43239787     A.U. after   16 cycles

 Excitation energies and oscillator strengths:

 Excited State   1:      Singlet-A      2.0513 eV  604.42 nm  f=0.1426  <S**2>=0.000
     243 -> 246        0.30882
     244 -> 245        0.62772
 This state for optimization and/or second-order correction.
 Total Energy, E(TD-HF/TD-DFT) =  -3043.35701418
 Copying the excited state density for this state as the 1-particle RhoCI density.

 The electronic state is 1-A.
 Alpha  occ. eigenvalues --  -46.81318 -19.23176 -19.19915 -19.17687 -19.17627
 Alpha  occ. eigenvalues --  -19.17617 -19.17564 -19.17233 -14.39577 -14.37110
 Alpha  occ. eigenvalues --  -14.36625 -14.36427 -10.34726 -10.33914 -10.31163
 Alpha  occ. eigenvalues --  -10.31034 -10.30855 -10.28563 -10.27700 -10.26765
 Alpha  occ. eigenvalues --  -10.26610 -10.26514 -10.26465 -10.26309 -10.25665
 Alpha  occ. eigenvalues --  -10.25649 -10.25524 -10.25416 -10.25385 -10.25255
 Alpha  occ. eigenvalues --  -10.24910 -10.24789 -10.24740 -10.24600 -10.24442
 Alpha  occ. eigenvalues --  -10.24403 -10.24189 -10.23960 -10.23956 -10.23592
 Alpha  occ. eigenvalues --  -10.23443 -10.23390 -10.23243 -10.23192 -10.22950
 Alpha  occ. eigenvalues --  -10.22941 -10.22848 -10.22835 -10.22698 -10.22575
 Alpha  occ. eigenvalues --  -10.22319 -10.22213 -10.22178 -10.21889 -10.21784
 Alpha  occ. eigenvalues --  -10.21630 -10.21227 -10.21050 -10.20635 -10.20368
 Alpha  occ. eigenvalues --  -10.20047 -10.19787 -10.19318 -10.19286 -10.19063
 Alpha  occ. eigenvalues --  -10.18450  -3.09862  -1.84793  -1.84355  -1.84249
 Alpha  occ. eigenvalues --   -1.13706  -1.12108  -1.11057  -1.06233  -1.04916
 Alpha  occ. eigenvalues --   -1.04886  -1.03358  -1.00757  -0.99719  -0.98701
 Alpha  occ. eigenvalues --   -0.96797  -0.87807  -0.85609  -0.85553  -0.85372
 Alpha  occ. eigenvalues --   -0.84847  -0.84779  -0.84309  -0.83991  -0.83584
 Alpha  occ. eigenvalues --   -0.83294  -0.82471  -0.81979  -0.80203  -0.79857
 Alpha  occ. eigenvalues --   -0.79585  -0.78468  -0.78061  -0.77597  -0.76227
 Alpha  occ. eigenvalues --   -0.74851  -0.74746  -0.74162  -0.73590  -0.72026
 Alpha  occ. eigenvalues --   -0.71738  -0.71509  -0.70314  -0.69998  -0.69508
 Alpha  occ. eigenvalues --   -0.68946  -0.68393  -0.68071  -0.66676  -0.66294
 Alpha  occ. eigenvalues --   -0.66120  -0.65115  -0.64125  -0.62564  -0.62523
 Alpha  occ. eigenvalues --   -0.62113  -0.61492  -0.61039  -0.59586  -0.59379
 Alpha  occ. eigenvalues --   -0.58530  -0.58219  -0.58166  -0.57546  -0.56679
 Alpha  occ. eigenvalues --   -0.56573  -0.56326  -0.55480  -0.54950  -0.54502
 Alpha  occ. eigenvalues --   -0.54198  -0.54057  -0.53006  -0.52714  -0.52073
 Alpha  occ. eigenvalues --   -0.51884  -0.51318  -0.50544  -0.50423  -0.50382
 Alpha  occ. eigenvalues --   -0.50164  -0.49944  -0.49406  -0.49375  -0.49205
 Alpha  occ. eigenvalues --   -0.48538  -0.48479  -0.48309  -0.48038  -0.47804
 Alpha  occ. eigenvalues --   -0.47755  -0.47446  -0.47402  -0.47307  -0.46910
 Alpha  occ. eigenvalues --   -0.46597  -0.46464  -0.46289  -0.46148  -0.46026
 Alpha  occ. eigenvalues --   -0.45399  -0.45241  -0.45129  -0.44969  -0.44759
 Alpha  occ. eigenvalues --   -0.44675  -0.44215  -0.44062  -0.44019  -0.43878
 Alpha  occ. eigenvalues --   -0.43749  -0.43600  -0.43264  -0.43107  -0.42880
 Alpha  occ. eigenvalues --   -0.42735  -0.42399  -0.42097  -0.41909  -0.41844
 Alpha  occ. eigenvalues --   -0.41771  -0.41640  -0.41153  -0.40982  -0.40765
 Alpha  occ. eigenvalues --   -0.40684  -0.40669  -0.40604  -0.40426  -0.40101
 Alpha  occ. eigenvalues --   -0.39951  -0.39800  -0.39420  -0.39381  -0.39199
 Alpha  occ. eigenvalues --   -0.39093  -0.38785  -0.38693  -0.38648  -0.38528
 Alpha  occ. eigenvalues --   -0.38506  -0.38168  -0.38039  -0.37813  -0.37539
 Alpha  occ. eigenvalues --   -0.37062  -0.36506  -0.36496  -0.36305  -0.36009
 Alpha  occ. eigenvalues --   -0.35757  -0.35367  -0.35044  -0.34963  -0.34841
 Alpha  occ. eigenvalues --   -0.34514  -0.34067  -0.34009  -0.33755  -0.33654
 Alpha  occ. eigenvalues --   -0.32782  -0.32400  -0.32336  -0.32065  -0.31709
 Alpha  occ. eigenvalues --   -0.31294  -0.30872  -0.30748  -0.29865  -0.29755
 Alpha  occ. eigenvalues --   -0.29312  -0.28198  -0.28072  -0.27871  -0.27502
 Alpha  occ. eigenvalues --   -0.27436  -0.26469  -0.23042  -0.21633
 Alpha virt. eigenvalues --   -0.08337  -0.07012  -0.02276  -0.01262   0.00693
 Alpha virt. eigenvalues --    0.02630   0.02747   0.03625   0.03822   0.04387
 Alpha virt. eigenvalues --    0.05419   0.05983   0.08044   0.08374   0.09294

 Mulliken charges:
               1
     1  Mg   0.824106
     2  C    0.089401
     3  C   -0.209904
     4  C   -0.169636
     5  C   -0.094439
     6  N   -0.622881
     7  C    0.288507
     8  C   -0.151963
     9  C   -0.169457
    10  C    0.353180
    11  C   -0.303946
    12  C   -0.180104
    13  C   -0.270917
    14  C    0.618499
    15  O   -0.446719
    16  O   -0.530819
    17  N   -0.733022
    18  C    0.356042
    19  C    0.060001
    20  C   -0.007653
    21  C    0.284374
    22  C   -0.361898
    23  C    0.261750
    24  O   -0.429789
    25  N   -0.677200
    26  C    0.279702
    27  C    0.024231
    28  C    0.047526
    29  C    0.291557
    30  C    0.234930
    31  C   -0.253422
    32  C   -0.306146
    33  N   -0.760475
    34  C    0.197490
    35  C    0.109763
    36  C   -0.047809
    37  C    0.377276
    38  C   -0.407467
    39  C    0.370744
    40  O   -0.403241
    41  C   -0.322101
    42  C    0.589248
    43  O   -0.479652
    44  O   -0.450048
    45  C   -0.086794
    46  C    0.013022
    47  C   -0.124759
    48  C    0.141123
    49  C   -0.391747
    50  C   -0.224229
    51  C   -0.180162
    52  C   -0.167460
    53  C   -0.054503
    54  C   -0.310285
    55  C   -0.148529
    56  C   -0.167837
    57  C   -0.158311
    58  C   -0.015195
    59  C   -0.302846
    60  C   -0.167217
    61  C   -0.196107
    62  C   -0.201059
    63  C   -0.050971
    64  C   -0.309329
    65  C   -0.315037
    66  H    0.083234
    67  H    0.120972
    68  H    0.047810
    69  H    0.128050
    70  H    0.110488
    71  H    0.110996
    72  H    0.106412
    73  H    0.137527
    74  H    0.127922
    75  H    0.132933
    76  H    0.115992
    77  H    0.139109
    78  H    0.121866
    79  H    0.152520
    80  H    0.092480
    81  H    0.073785
    82  H    0.117233
    83  H    0.111149
    84  H    0.106508
    85  H    0.125234
    86  H    0.091773
    87  H    0.110997
    88  H    0.146759
    89  H    0.133946
    90  H    0.139330
    91  H    0.120769
    92  H    0.127860
    93  H    0.088378
    94  H    0.142076
    95  H    0.099417
    96  H    0.129842
    97  H    0.098759
    98  H    0.100440
    99  H    0.081893
   100  H    0.087866
   101  H    0.067413
   102  H    0.084175
   103  H    0.092033
   104  H    0.096760
   105  H    0.098620
   106  H    0.116004
   107  H    0.069252
   108  H    0.086987
   109  H    0.079080
   110  H    0.076394
   111  H    0.077584
   112  H    0.064072
   113  H    0.062435
   114  H    0.072485
   115  H    0.081719
   116  H    0.114720
   117  H    0.084217
   118  H    0.103177
   119  H    0.101136
   120  H    0.094242
   121  H    0.095649
   122  H    0.075180
   123  H    0.102366
   124  H    0.108967
   125  H    0.101736
   126  H    0.075958
   127  H    0.111124
   128  H    0.106020
   129  H    0.087020
   130  H    0.124212
   131  H    0.143979
   132  H    0.131421
   133  O   -0.439788
   134  H    0.041940
 Sum of Mulliken charges =  -0.00000

 Dipole moment (field-independent basis, Debye):
    X=              2.0955    Y=             -6.0921    Z=             -1.0029  Tot=              6.5200
 Quadrupole moment (field-independent basis, Debye-Ang):
   XX=           -372.6209   YY=           -441.2324   ZZ=           -392.5859
   XY=             21.6233   XZ=             22.6315   YZ=            -31.1939

 Normal termination of Gaussian 16 at Thu Oct 10 13:35:17 2019.
