 Gaussian 16, Revision A.03,
 Gaussian 16:  ES64L-G16RevA.03 25-Dec-2016

 ----------------------------------------------------------------------
 # td=(NStates=1) iop(3/107=0140000000,3/108=0140000000) iop(3/107=0140
 000000,3/108=0140000000) CAM-B3LYP/6-31G(d,p)
 ----------------------------------------------------------------------

 --
 TD
 --
 Symbolic Z-matrix:
 Charge =  0 Multiplicity = 1

                         Standard orientation:
 ---------------------------------------------------------------------
 Center     Atomic      Atomic             Coordinates (Angstroms)
 Number     Number       Type             X           Y           Z
 ---------------------------------------------------------------------
      1         12           0       -5.583107    1.259561    0.111148
      2          6           0       -4.966040   -2.181201   -0.435571
      3          6           0       -3.346735    1.215676    2.762294
      4          6           0       -6.263669    4.517353    0.739870
      5          6           0       -7.890229    1.270681   -2.424591
      6          7           0       -4.283334   -0.241435    1.072958
      7          6           0       -4.299657   -1.556514    0.657107
      8          6           0       -3.190737   -2.359906    1.409128
      9          6           0       -2.825346   -1.306142    2.608889
     10          6           0       -3.482451   -0.085113    2.187027
     11          6           0       -3.422202   -1.764933    4.039014
     12          6           0       -1.912157   -2.661263    0.630998
     13          6           0       -0.951648   -3.518682    1.338705
     14          6           0        0.288041   -3.866186    0.586871
     15          8           0        0.454557   -3.488501   -0.551979
     16          8           0        1.190091   -4.657629    1.277046
     17          7           0       -4.855968    2.659404    1.499860
     18          6           0       -3.975355    2.370222    2.403446
     19          6           0       -3.746971    3.617949    3.139569
     20          6           0       -4.396567    4.572414    2.611756
     21          6           0       -5.263507    3.992232    1.577233
     22          6           0       -2.788712    3.700367    4.433020
     23          6           0       -4.617737    6.045367    3.007571
     24          8           0       -3.927358    6.471901    3.880943
     25          7           0       -6.818584    2.628502   -0.722622
     26          6           0       -6.936659    3.907413   -0.346312
     27          6           0       -7.905317    4.570877   -1.224351
     28          6           0       -8.415182    3.645097   -2.030924
     29          6           0       -7.693098    2.449560   -1.761629
     30          6           0       -8.300623    6.004133   -1.092966
     31          6           0       -9.542945    3.735438   -2.994043
     32          6           0       -8.876632    3.823084   -4.503356
     33          7           0       -6.260384   -0.107573   -1.193419
     34          6           0       -7.303277    0.000701   -2.182874
     35          6           0       -7.463828   -1.246760   -2.871835
     36          6           0       -6.568473   -2.148938   -2.113266
     37          6           0       -5.834562   -1.377092   -1.185902
     38          6           0       -8.486262   -1.681952   -3.887422
     39          6           0       -6.199313   -3.423318   -2.079804
     40          8           0       -6.605938   -4.405116   -2.665007
     41          6           0       -5.043531   -3.531363   -0.985690
     42          6           0       -5.328941   -4.585867    0.138883
     43          8           0       -5.674712   -4.374507    1.289034
     44          8           0       -5.140095   -5.794992   -0.380365
     45          6           0       -5.617992   -6.968986    0.453552
     46          6           0        2.345719   -5.085532    0.636163
     47          6           0        3.465285   -4.091946    1.063906
     48          6           0        4.081480   -3.294297    0.268800
     49          6           0        3.810748   -3.274181   -1.246114
     50          6           0        5.189758   -2.359918    0.733163
     51          6           0        6.566534   -2.777611    0.192883
     52          6           0        7.631246   -1.972750    0.699649
     53          6           0        9.018249   -2.105905    0.080313
     54          6           0        9.705009   -3.478608    0.138549
     55          6           0        9.994000   -1.103299    0.589946
     56          6           0       11.287998   -0.959359   -0.171710
     57          6           0       12.157580    0.223412    0.141235
     58          6           0       13.400283    0.419604   -0.649770
     59          6           0       14.454623   -0.694092   -0.428169
     60          6           0       13.995997    1.830769   -0.293716
     61          6           0       15.288429    2.263453   -1.132944
     62          6           0       15.727890    3.732425   -0.781588
     63          6           0       17.140829    4.053021   -1.344009
     64          6           0       17.181054    4.089805   -2.946997
     65          6           0       17.689237    5.388756   -0.888598
     66          1           0       -2.659956    1.048421    3.644243
     67          1           0       -6.696231    5.606209    0.920477
     68          1           0       -8.480596    1.179692   -3.225837
     69          1           0       -3.530207   -3.135917    1.912486
     70          1           0       -1.808098   -1.173540    2.720773
     71          1           0       -2.945086   -2.690471    4.402371
     72          1           0       -3.262271   -0.933651    4.745349
     73          1           0       -4.455154   -2.070586    3.792905
     74          1           0       -2.100801   -3.135399   -0.188045
     75          1           0       -1.426803   -1.741943    0.377405
     76          1           0       -0.840977   -3.231448    2.507709
     77          1           0       -1.202481   -4.313636    1.685730
     78          1           0       -1.870483    3.230385    4.126643
     79          1           0       -2.706317    4.759683    4.756868
     80          1           0       -3.257041    3.231114    5.409995
     81          1           0       -5.344937    6.830326    2.340284
     82          1           0      -10.202362    2.911690   -3.106203
     83          1           0      -10.211589    4.558106   -2.777159
     84          1           0       -9.744215    3.860247   -5.358321
     85          1           0       -8.023484    4.613187   -4.626390
     86          1           0       -8.556749    2.692318   -4.654411
     87          1           0       -8.256772   -1.035308   -4.724996
     88          1           0       -8.342468   -2.803246   -4.189775
     89          1           0       -9.399557   -1.419743   -3.598981
     90          1           0       -4.126256   -3.799198   -1.453969
     91          1           0        2.631757   -6.092356    0.956977
     92          1           0        2.437918   -5.220355   -0.383346
     93          1           0        3.517533   -4.177416    2.264955
     94          1           0        2.703402   -3.231454   -1.569273
     95          1           0        4.282370   -2.318975   -1.616464
     96          1           0        4.301403   -4.101633   -1.919067
     97          1           0        4.842637   -1.348400    0.573906
     98          1           0        5.353510   -2.199850    1.761603
     99          1           0        6.564980   -3.881316    0.538380
    100          1           0        6.686538   -2.737773   -0.909914
    101          1           0        7.294007   -0.797670    0.679206
    102          1           0        7.641568   -2.187268    1.901163
    103          1           0        8.699118   -1.910708   -1.024893
    104          1           0        8.671297   -4.336901    0.059328
    105          1           0       10.600518   -3.851031   -0.647959
    106          1           0       10.157656   -3.587404    1.229167
    107          1           0        9.432431    0.006406    0.686355
    108          1           0       10.180065   -1.352668    1.599100
    109          1           0       11.978326   -1.825090    0.013941
    110          1           0       11.221865   -0.973057   -1.220446
    111          1           0       11.402448    1.021793    0.125882
    112          1           0       12.447884    0.233081    1.211342
    113          1           0       13.156581    0.278849   -1.643932
    114          1           0       15.163172   -0.720650    0.625920
    115          1           0       14.153180   -1.855459   -0.492213
    116          1           0       15.227153   -0.599319   -0.999329
    117          1           0       13.219539    2.681412   -0.305054
    118          1           0       14.277945    1.594960    0.922233
    119          1           0       16.133032    1.622439   -0.779470
    120          1           0       15.083670    2.092795   -2.130039
    121          1           0       15.014477    4.531271   -1.179400
    122          1           0       15.752641    3.881855    0.370449
    123          1           0       17.825291    3.380611   -0.975994
    124          1           0       16.736706    5.012706   -3.229042
    125          1           0       18.160094    4.221154   -3.412657
    126          1           0       16.677768    3.313919   -3.423177
    127          1           0       17.820363    5.488067    0.186169
    128          1           0       18.740602    5.691944   -1.373351
    129          1           0       16.883185    6.225068   -1.189305
    130          1           0       -5.248669   -7.866644   -0.003552
    131          1           0       -6.635351   -6.871948    0.746211
    132          1           0       -4.971312   -6.729419    1.462299
    133          8           0       -7.864255    6.816576   -0.413759
    134          1           0       -9.083343    6.361693   -1.936709
 ---------------------------------------------------------------------

 SCF Done:  E(RCAM-B3LYP) =  -3043.41123296     A.U. after   15 cycles

 Excitation energies and oscillator strengths:

 Excited State   1:      Singlet-A      2.1556 eV  575.16 nm  f=0.1703  <S**2>=0.000
     243 -> 245       -0.10394
     243 -> 246        0.29233
     244 -> 245        0.62564
 This state for optimization and/or second-order correction.
 Total Energy, E(TD-HF/TD-DFT) =  -3043.33201466
 Copying the excited state density for this state as the 1-particle RhoCI density.

 The electronic state is 1-A.
 Alpha  occ. eigenvalues --  -46.81405 -19.22683 -19.22226 -19.18532 -19.18355
 Alpha  occ. eigenvalues --  -19.17561 -19.16764 -19.14722 -14.38928 -14.36903
 Alpha  occ. eigenvalues --  -14.36486 -14.35980 -10.35584 -10.34698 -10.32461
 Alpha  occ. eigenvalues --  -10.31330 -10.28515 -10.28474 -10.27721 -10.27519
 Alpha  occ. eigenvalues --  -10.26872 -10.26667 -10.26461 -10.26416 -10.26096
 Alpha  occ. eigenvalues --  -10.25550 -10.25505 -10.25453 -10.24676 -10.24600
 Alpha  occ. eigenvalues --  -10.24165 -10.24159 -10.23938 -10.23681 -10.23652
 Alpha  occ. eigenvalues --  -10.23599 -10.23521 -10.23263 -10.23174 -10.23151
 Alpha  occ. eigenvalues --  -10.23024 -10.22801 -10.22800 -10.22744 -10.22741
 Alpha  occ. eigenvalues --  -10.22700 -10.22641 -10.22625 -10.22235 -10.22197
 Alpha  occ. eigenvalues --  -10.22179 -10.21985 -10.21672 -10.21434 -10.21431
 Alpha  occ. eigenvalues --  -10.21393 -10.21375 -10.21332 -10.21312 -10.21226
 Alpha  occ. eigenvalues --  -10.21163 -10.20813 -10.20321 -10.19821 -10.19603
 Alpha  occ. eigenvalues --  -10.19150  -3.09918  -1.84871  -1.84403  -1.84298
 Alpha  occ. eigenvalues --   -1.13481  -1.12531  -1.12226  -1.09270  -1.05703
 Alpha  occ. eigenvalues --   -1.05409  -1.03686  -1.01572  -1.00870  -0.99037
 Alpha  occ. eigenvalues --   -0.97922  -0.88863  -0.87093  -0.86622  -0.86027
 Alpha  occ. eigenvalues --   -0.85374  -0.84425  -0.84125  -0.83807  -0.83303
 Alpha  occ. eigenvalues --   -0.83032  -0.82939  -0.81998  -0.80779  -0.79673
 Alpha  occ. eigenvalues --   -0.78619  -0.78012  -0.77439  -0.76974  -0.76488
 Alpha  occ. eigenvalues --   -0.75293  -0.74549  -0.73654  -0.72701  -0.71726
 Alpha  occ. eigenvalues --   -0.70743  -0.70582  -0.69911  -0.69671  -0.69395
 Alpha  occ. eigenvalues --   -0.68983  -0.68332  -0.67829  -0.67091  -0.66223
 Alpha  occ. eigenvalues --   -0.65326  -0.65267  -0.63970  -0.62988  -0.62342
 Alpha  occ. eigenvalues --   -0.62097  -0.61112  -0.61023  -0.59918  -0.59320
 Alpha  occ. eigenvalues --   -0.58829  -0.58595  -0.58195  -0.57639  -0.57444
 Alpha  occ. eigenvalues --   -0.56115  -0.55987  -0.55269  -0.54776  -0.54645
 Alpha  occ. eigenvalues --   -0.54317  -0.53565  -0.53404  -0.52675  -0.52060
 Alpha  occ. eigenvalues --   -0.51744  -0.51530  -0.50865  -0.50840  -0.50465
 Alpha  occ. eigenvalues --   -0.50173  -0.49927  -0.49505  -0.49351  -0.49256
 Alpha  occ. eigenvalues --   -0.48735  -0.48329  -0.48221  -0.48059  -0.47980
 Alpha  occ. eigenvalues --   -0.47719  -0.47637  -0.47513  -0.47306  -0.46795
 Alpha  occ. eigenvalues --   -0.46762  -0.46648  -0.46370  -0.45988  -0.45680
 Alpha  occ. eigenvalues --   -0.45554  -0.45485  -0.45395  -0.44879  -0.44793
 Alpha  occ. eigenvalues --   -0.44691  -0.44546  -0.44324  -0.44083  -0.43781
 Alpha  occ. eigenvalues --   -0.43614  -0.43455  -0.43219  -0.42937  -0.42934
 Alpha  occ. eigenvalues --   -0.42762  -0.42537  -0.42163  -0.41785  -0.41710
 Alpha  occ. eigenvalues --   -0.41468  -0.41367  -0.41330  -0.40866  -0.40432
 Alpha  occ. eigenvalues --   -0.40157  -0.39940  -0.39909  -0.39718  -0.39698
 Alpha  occ. eigenvalues --   -0.39380  -0.39226  -0.39165  -0.38612  -0.38537
 Alpha  occ. eigenvalues --   -0.38480  -0.38363  -0.38292  -0.38187  -0.38085
 Alpha  occ. eigenvalues --   -0.37896  -0.37529  -0.37314  -0.37290  -0.37102
 Alpha  occ. eigenvalues --   -0.36928  -0.36435  -0.36152  -0.35774  -0.35332
 Alpha  occ. eigenvalues --   -0.35249  -0.34885  -0.34524  -0.34504  -0.34358
 Alpha  occ. eigenvalues --   -0.34240  -0.34078  -0.33791  -0.33682  -0.33484
 Alpha  occ. eigenvalues --   -0.33263  -0.32719  -0.31918  -0.31775  -0.31523
 Alpha  occ. eigenvalues --   -0.31457  -0.31097  -0.30994  -0.30711  -0.30174
 Alpha  occ. eigenvalues --   -0.29239  -0.28845  -0.28245  -0.28003  -0.27952
 Alpha  occ. eigenvalues --   -0.26795  -0.26342  -0.22665  -0.21668
 Alpha virt. eigenvalues --   -0.08098  -0.05902  -0.01516  -0.00160   0.01422
 Alpha virt. eigenvalues --    0.02924   0.03799   0.04134   0.04407   0.05081
 Alpha virt. eigenvalues --    0.05737   0.06179   0.08086   0.08971   0.08996

 Mulliken charges:
               1
     1  Mg   0.822180
     2  C    0.124167
     3  C   -0.198604
     4  C   -0.215048
     5  C   -0.135014
     6  N   -0.631519
     7  C    0.287066
     8  C   -0.148490
     9  C   -0.197542
    10  C    0.364002
    11  C   -0.322177
    12  C   -0.139320
    13  C   -0.246782
    14  C    0.608060
    15  O   -0.457575
    16  O   -0.462622
    17  N   -0.729293
    18  C    0.410924
    19  C   -0.007852
    20  C   -0.010089
    21  C    0.290381
    22  C   -0.372621
    23  C    0.246305
    24  O   -0.367908
    25  N   -0.715027
    26  C    0.333718
    27  C   -0.060464
    28  C    0.083257
    29  C    0.306350
    30  C    0.254318
    31  C   -0.251372
    32  C   -0.310515
    33  N   -0.771242
    34  C    0.234085
    35  C    0.036447
    36  C    0.061294
    37  C    0.328045
    38  C   -0.372841
    39  C    0.278185
    40  O   -0.483241
    41  C   -0.348623
    42  C    0.616713
    43  O   -0.485438
    44  O   -0.446811
    45  C   -0.090183
    46  C   -0.002813
    47  C   -0.136698
    48  C    0.141873
    49  C   -0.388495
    50  C   -0.234796
    51  C   -0.151962
    52  C   -0.154364
    53  C   -0.029133
    54  C   -0.277691
    55  C   -0.158340
    56  C   -0.178605
    57  C   -0.159847
    58  C   -0.057480
    59  C   -0.304525
    60  C   -0.163844
    61  C   -0.178126
    62  C   -0.170068
    63  C   -0.045858
    64  C   -0.326011
    65  C   -0.301608
    66  H    0.085729
    67  H    0.130570
    68  H    0.060500
    69  H    0.115666
    70  H    0.116245
    71  H    0.110229
    72  H    0.115740
    73  H    0.137372
    74  H    0.121189
    75  H    0.121566
    76  H    0.101715
    77  H    0.137355
    78  H    0.123609
    79  H    0.155095
    80  H    0.108939
    81  H    0.080150
    82  H    0.123511
    83  H    0.116565
    84  H    0.091858
    85  H    0.124352
    86  H    0.100325
    87  H    0.124097
    88  H    0.153288
    89  H    0.142700
    90  H    0.159913
    91  H    0.105822
    92  H    0.128645
    93  H    0.072501
    94  H    0.148395
    95  H    0.102913
    96  H    0.103662
    97  H    0.098603
    98  H    0.100027
    99  H    0.098856
   100  H    0.089865
   101  H    0.076211
   102  H    0.055713
   103  H    0.072964
   104  H    0.049127
   105  H    0.100697
   106  H    0.092163
   107  H    0.047489
   108  H    0.103879
   109  H    0.086621
   110  H    0.093794
   111  H    0.081191
   112  H    0.081450
   113  H    0.093752
   114  H    0.053058
   115  H    0.087370
   116  H    0.123848
   117  H    0.089606
   118  H    0.060126
   119  H    0.098776
   120  H    0.109984
   121  H    0.082796
   122  H    0.085433
   123  H    0.096976
   124  H    0.105537
   125  H    0.099917
   126  H    0.102889
   127  H    0.100513
   128  H    0.083892
   129  H    0.075590
   130  H    0.142948
   131  H    0.156559
   132  H    0.111816
   133  O   -0.362571
   134  H    0.023423
 Sum of Mulliken charges =  -0.00000

 Dipole moment (field-independent basis, Debye):
    X=              0.5633    Y=             -2.9896    Z=             -0.2941  Tot=              3.0564
 Quadrupole moment (field-independent basis, Debye-Ang):
   XX=           -368.7531   YY=           -424.7935   ZZ=           -393.9693
   XY=             -2.8862   XZ=              9.4986   YZ=            -30.6073

 Normal termination of Gaussian 16 at Fri Oct 11 10:17:02 2019.
