 Gaussian 16, Revision A.03,
 Gaussian 16:  ES64L-G16RevA.03 25-Dec-2016

 ----------------------------------------------------------------------
 # td=(NStates=1) iop(3/107=0140000000,3/108=0140000000) iop(3/107=0140
 000000,3/108=0140000000) CAM-B3LYP/6-31G(d,p)
 ----------------------------------------------------------------------

 --
 TD
 --
 Symbolic Z-matrix:
 Charge =  0 Multiplicity = 1

                         Standard orientation:
 ---------------------------------------------------------------------
 Center     Atomic      Atomic             Coordinates (Angstroms)
 Number     Number       Type             X           Y           Z
 ---------------------------------------------------------------------
      1         12           0       -5.759966    1.267634    0.180697
      2          6           0       -5.010551   -2.200396   -0.324065
      3          6           0       -3.386333    1.172740    2.848789
      4          6           0       -6.166958    4.570603    0.557833
      5          6           0       -8.040330    1.093921   -2.396861
      6          7           0       -4.435963   -0.280323    0.984479
      7          6           0       -4.240549   -1.621146    0.609431
      8          6           0       -3.241234   -2.351017    1.479206
      9          6           0       -3.013852   -1.348759    2.650606
     10          6           0       -3.693129   -0.004643    2.148084
     11          6           0       -3.702531   -1.835606    3.931960
     12          6           0       -1.890875   -2.523583    0.722878
     13          6           0       -0.777784   -3.387973    1.467639
     14          6           0        0.386428   -3.747883    0.652090
     15          8           0        0.609825   -3.250086   -0.416875
     16          8           0        1.116904   -4.733234    1.233304
     17          7           0       -5.040960    2.676846    1.462839
     18          6           0       -4.035827    2.376596    2.471937
     19          6           0       -3.757241    3.659287    3.143806
     20          6           0       -4.574395    4.594077    2.560607
     21          6           0       -5.243195    3.946534    1.439792
     22          6           0       -2.932500    3.861312    4.391253
     23          6           0       -4.613500    6.033075    2.907201
     24          8           0       -4.068350    6.549690    3.771785
     25          7           0       -6.917881    2.619389   -0.715184
     26          6           0       -6.999162    3.877144   -0.417502
     27          6           0       -7.895722    4.584706   -1.247316
     28          6           0       -8.513617    3.608485   -2.094533
     29          6           0       -7.830115    2.402132   -1.800911
     30          6           0       -8.487938    5.895239   -0.945114
     31          6           0       -9.480322    3.839997   -3.115965
     32          6           0       -8.781324    3.974312   -4.581760
     33          7           0       -6.401167   -0.164827   -1.166156
     34          6           0       -7.320337   -0.087050   -2.139859
     35          6           0       -7.551428   -1.318572   -2.771036
     36          6           0       -6.670565   -2.155367   -2.102393
     37          6           0       -5.997276   -1.430261   -1.113001
     38          6           0       -8.476423   -1.606078   -3.901996
     39          6           0       -6.156515   -3.523057   -2.048797
     40          8           0       -6.466985   -4.487543   -2.877240
     41          6           0       -5.148812   -3.617681   -0.968262
     42          6           0       -5.350000   -4.653317    0.151934
     43          8           0       -5.865071   -4.506716    1.193727
     44          8           0       -4.920797   -5.912089   -0.208984
     45          6           0       -5.339735   -7.057388    0.638668
     46          6           0        2.387772   -5.052518    0.580471
     47          6           0        3.526697   -4.126157    1.049678
     48          6           0        4.129944   -3.384477    0.205986
     49          6           0        3.730965   -3.306255   -1.332551
     50          6           0        5.215207   -2.484890    0.668102
     51          6           0        6.694496   -2.700948    0.066507
     52          6           0        7.801277   -1.865344    0.638022
     53          6           0        9.160787   -2.100849    0.010205
     54          6           0        9.617632   -3.531687    0.278653
     55          6           0       10.072294   -0.927055    0.427751
     56          6           0       11.379475   -0.847226   -0.278472
     57          6           0       12.191171    0.361528    0.156493
     58          6           0       13.544225    0.565155   -0.544840
     59          6           0       14.442772   -0.680276   -0.352153
     60          6           0       14.263028    1.806788   -0.126487
     61          6           0       15.479984    2.183865   -0.968520
     62          6           0       16.098767    3.580327   -0.713807
     63          6           0       17.393872    3.998117   -1.439813
     64          6           0       17.038397    4.122861   -2.855825
     65          6           0       18.003223    5.286971   -0.770785
     66          1           0       -2.629641    1.300472    3.535522
     67          1           0       -6.368887    5.704887    0.684155
     68          1           0       -8.966455    0.938896   -2.936803
     69          1           0       -3.546489   -3.451698    1.622703
     70          1           0       -1.910726   -1.068156    2.560496
     71          1           0       -3.236397   -2.600085    4.387820
     72          1           0       -3.813854   -1.057596    4.798900
     73          1           0       -4.765214   -2.217105    3.769687
     74          1           0       -2.026417   -3.098702   -0.261394
     75          1           0       -1.268472   -1.642236    0.356492
     76          1           0       -0.389522   -2.532921    2.284646
     77          1           0       -1.230877   -4.357380    1.955238
     78          1           0       -1.811605    3.762439    4.145702
     79          1           0       -3.007599    4.970743    4.560962
     80          1           0       -3.204825    3.123911    5.118707
     81          1           0       -4.967931    6.622282    2.125387
     82          1           0      -10.395845    3.159688   -3.212851
     83          1           0      -10.030290    4.810523   -2.771882
     84          1           0       -9.583513    3.832724   -5.316575
     85          1           0       -8.200402    4.951212   -4.647615
     86          1           0       -8.236050    2.986256   -4.573593
     87          1           0       -8.295745   -0.838773   -4.727449
     88          1           0       -8.591144   -2.579683   -4.273915
     89          1           0       -9.509428   -1.258119   -3.580881
     90          1           0       -4.143302   -3.875124   -1.407926
     91          1           0        2.640380   -6.204964    0.661231
     92          1           0        2.415101   -4.917649   -0.418084
     93          1           0        3.799850   -4.202043    2.118126
     94          1           0        2.750281   -3.591936   -1.687839
     95          1           0        3.958784   -2.448863   -1.898171
     96          1           0        4.348877   -3.924391   -1.859466
     97          1           0        4.995957   -1.414781   -0.057880
     98          1           0        5.343930   -2.298636    1.674648
     99          1           0        6.871672   -3.784203    0.506735
    100          1           0        6.683161   -2.876131   -0.843915
    101          1           0        7.526854   -0.740440    0.795670
    102          1           0        7.805953   -2.119645    1.654731
    103          1           0        9.019216   -2.162538   -1.138709
    104          1           0        8.813974   -4.132586   -0.174451
    105          1           0       10.510621   -3.788379   -0.334787
    106          1           0        9.748058   -3.624155    1.299922
    107          1           0        9.362061    0.063619    0.542517
    108          1           0       10.283445   -1.092939    1.545465
    109          1           0       11.881914   -1.802778   -0.222070
    110          1           0       11.243438   -0.672741   -1.238323
    111          1           0       11.585445    1.256524    0.240721
    112          1           0       12.385367    0.083260    1.093746
    113          1           0       13.336171    0.943432   -1.659212
    114          1           0       14.304819   -1.017401    0.814910
    115          1           0       14.083143   -1.470447   -1.049893
    116          1           0       15.524624   -0.487152   -0.806474
    117          1           0       13.605869    2.745244   -0.476436
    118          1           0       14.605419    1.818947    1.096151
    119          1           0       16.069066    1.255044   -0.702219
    120          1           0       15.294460    2.074952   -2.103450
    121          1           0       15.355493    4.387177   -0.953828
    122          1           0       16.343408    3.525039    0.427957
    123          1           0       17.951001    3.091747   -1.269676
    124          1           0       16.313521    4.882428   -3.097621
    125          1           0       17.768499    4.683701   -3.618516
    126          1           0       16.549916    3.359791   -3.391256
    127          1           0       18.280014    5.073137    0.227775
    128          1           0       18.865756    5.573879   -1.221907
    129          1           0       17.294405    6.111931   -1.108400
    130          1           0       -4.856490   -7.980153    0.325333
    131          1           0       -6.416113   -6.869272    0.646122
    132          1           0       -4.852822   -6.840163    1.822365
    133          8           0       -7.991444    6.731035   -0.194604
    134          1           0       -9.315152    6.140553   -1.513930
 ---------------------------------------------------------------------

 SCF Done:  E(RCAM-B3LYP) =  -3043.42667111     A.U. after   16 cycles

 Excitation energies and oscillator strengths:

 Excited State   1:      Singlet-A      2.0689 eV  599.28 nm  f=0.1373  <S**2>=0.000
     243 -> 246        0.28058
     244 -> 245        0.63981
 This state for optimization and/or second-order correction.
 Total Energy, E(TD-HF/TD-DFT) =  -3043.35064143
 Copying the excited state density for this state as the 1-particle RhoCI density.

 The electronic state is 1-A.
 Alpha  occ. eigenvalues --  -46.81474 -19.22404 -19.21323 -19.17852 -19.17471
 Alpha  occ. eigenvalues --  -19.16984 -19.16483 -19.15806 -14.39408 -14.36957
 Alpha  occ. eigenvalues --  -14.36810 -14.36242 -10.35399 -10.34694 -10.31033
 Alpha  occ. eigenvalues --  -10.29382 -10.29279 -10.29247 -10.28916 -10.27758
 Alpha  occ. eigenvalues --  -10.27290 -10.27248 -10.26479 -10.26239 -10.26135
 Alpha  occ. eigenvalues --  -10.26031 -10.25669 -10.25508 -10.25506 -10.25400
 Alpha  occ. eigenvalues --  -10.25346 -10.25110 -10.24596 -10.24483 -10.24468
 Alpha  occ. eigenvalues --  -10.24300 -10.24259 -10.24022 -10.23729 -10.23701
 Alpha  occ. eigenvalues --  -10.23642 -10.23288 -10.23169 -10.23084 -10.22890
 Alpha  occ. eigenvalues --  -10.22552 -10.22502 -10.22488 -10.22377 -10.22113
 Alpha  occ. eigenvalues --  -10.22108 -10.22042 -10.22002 -10.21552 -10.21398
 Alpha  occ. eigenvalues --  -10.21364 -10.21283 -10.21059 -10.20790 -10.20532
 Alpha  occ. eigenvalues --  -10.20060 -10.20005 -10.19898 -10.19808 -10.19117
 Alpha  occ. eigenvalues --  -10.19022  -3.10045  -1.84989  -1.84515  -1.84450
 Alpha  occ. eigenvalues --   -1.13946  -1.13120  -1.11506  -1.05867  -1.05100
 Alpha  occ. eigenvalues --   -1.04696  -1.02224  -1.00973  -1.00567  -0.99702
 Alpha  occ. eigenvalues --   -0.97862  -0.88619  -0.86665  -0.85980  -0.85866
 Alpha  occ. eigenvalues --   -0.85018  -0.84872  -0.84761  -0.83917  -0.83848
 Alpha  occ. eigenvalues --   -0.83187  -0.82476  -0.81191  -0.80615  -0.79485
 Alpha  occ. eigenvalues --   -0.78678  -0.78248  -0.77335  -0.76585  -0.76152
 Alpha  occ. eigenvalues --   -0.75416  -0.74940  -0.74174  -0.72984  -0.72967
 Alpha  occ. eigenvalues --   -0.72441  -0.72168  -0.70851  -0.70039  -0.69540
 Alpha  occ. eigenvalues --   -0.69493  -0.69176  -0.67427  -0.67305  -0.66475
 Alpha  occ. eigenvalues --   -0.65920  -0.64926  -0.64389  -0.63132  -0.62106
 Alpha  occ. eigenvalues --   -0.61508  -0.61268  -0.60963  -0.59113  -0.58740
 Alpha  occ. eigenvalues --   -0.58590  -0.58447  -0.57704  -0.57364  -0.56769
 Alpha  occ. eigenvalues --   -0.56449  -0.55834  -0.55769  -0.55599  -0.54771
 Alpha  occ. eigenvalues --   -0.53849  -0.53344  -0.52800  -0.52495  -0.52096
 Alpha  occ. eigenvalues --   -0.51583  -0.51371  -0.51162  -0.50701  -0.50285
 Alpha  occ. eigenvalues --   -0.50200  -0.50100  -0.49635  -0.49489  -0.49281
 Alpha  occ. eigenvalues --   -0.49200  -0.48688  -0.48681  -0.48589  -0.48004
 Alpha  occ. eigenvalues --   -0.47947  -0.47629  -0.47406  -0.47388  -0.46902
 Alpha  occ. eigenvalues --   -0.46661  -0.46613  -0.46428  -0.46281  -0.46256
 Alpha  occ. eigenvalues --   -0.45825  -0.45427  -0.45295  -0.45104  -0.44753
 Alpha  occ. eigenvalues --   -0.44643  -0.44453  -0.44347  -0.44092  -0.43657
 Alpha  occ. eigenvalues --   -0.43560  -0.43181  -0.43029  -0.42838  -0.42763
 Alpha  occ. eigenvalues --   -0.42531  -0.42394  -0.42158  -0.42089  -0.41854
 Alpha  occ. eigenvalues --   -0.41738  -0.41457  -0.41379  -0.41122  -0.41021
 Alpha  occ. eigenvalues --   -0.40961  -0.40809  -0.40340  -0.40316  -0.39943
 Alpha  occ. eigenvalues --   -0.39871  -0.39681  -0.39530  -0.39323  -0.39275
 Alpha  occ. eigenvalues --   -0.38893  -0.38730  -0.38462  -0.38209  -0.38101
 Alpha  occ. eigenvalues --   -0.37961  -0.37852  -0.37531  -0.37323  -0.37082
 Alpha  occ. eigenvalues --   -0.36970  -0.36923  -0.36683  -0.36453  -0.35806
 Alpha  occ. eigenvalues --   -0.35517  -0.35017  -0.34837  -0.34748  -0.34283
 Alpha  occ. eigenvalues --   -0.33849  -0.33755  -0.33573  -0.32857  -0.32506
 Alpha  occ. eigenvalues --   -0.32421  -0.32239  -0.31852  -0.31549  -0.31359
 Alpha  occ. eigenvalues --   -0.31298  -0.31184  -0.30619  -0.30201  -0.29875
 Alpha  occ. eigenvalues --   -0.28679  -0.28050  -0.27717  -0.27552  -0.27498
 Alpha  occ. eigenvalues --   -0.27310  -0.27090  -0.23080  -0.21987
 Alpha virt. eigenvalues --   -0.08597  -0.07096  -0.01693   0.00222   0.00423
 Alpha virt. eigenvalues --    0.03220   0.03253   0.03615   0.04394   0.04740
 Alpha virt. eigenvalues --    0.04995   0.05476   0.07742   0.08323   0.09166

 Mulliken charges:
               1
     1  Mg   0.833035
     2  C    0.083381
     3  C   -0.150012
     4  C   -0.196092
     5  C   -0.163513
     6  N   -0.625426
     7  C    0.307129
     8  C   -0.140679
     9  C   -0.139030
    10  C    0.304370
    11  C   -0.316351
    12  C   -0.201765
    13  C   -0.264501
    14  C    0.629842
    15  O   -0.457991
    16  O   -0.469706
    17  N   -0.723765
    18  C    0.281853
    19  C    0.021630
    20  C   -0.058425
    21  C    0.360618
    22  C   -0.397956
    23  C    0.269590
    24  O   -0.371529
    25  N   -0.698440
    26  C    0.342240
    27  C   -0.065773
    28  C    0.080065
    29  C    0.248598
    30  C    0.257989
    31  C   -0.297228
    32  C   -0.300403
    33  N   -0.722599
    34  C    0.274777
    35  C    0.063646
    36  C    0.009208
    37  C    0.288960
    38  C   -0.382860
    39  C    0.352595
    40  O   -0.511135
    41  C   -0.292135
    42  C    0.605781
    43  O   -0.430305
    44  O   -0.479793
    45  C   -0.063177
    46  C    0.000487
    47  C   -0.160309
    48  C    0.199989
    49  C   -0.405792
    50  C   -0.226396
    51  C   -0.169703
    52  C   -0.160165
    53  C   -0.055634
    54  C   -0.305434
    55  C   -0.169503
    56  C   -0.177578
    57  C   -0.172719
    58  C   -0.033186
    59  C   -0.314581
    60  C   -0.146856
    61  C   -0.180970
    62  C   -0.150748
    63  C   -0.051479
    64  C   -0.319995
    65  C   -0.309274
    66  H    0.101489
    67  H    0.147704
    68  H    0.100271
    69  H    0.117056
    70  H    0.107995
    71  H    0.130137
    72  H    0.095057
    73  H    0.130510
    74  H    0.103492
    75  H    0.122749
    76  H    0.112748
    77  H    0.119069
    78  H    0.109513
    79  H    0.167188
    80  H    0.131936
    81  H    0.068714
    82  H    0.110041
    83  H    0.094436
    84  H    0.116158
    85  H    0.128172
    86  H    0.114629
    87  H    0.122983
    88  H    0.158908
    89  H    0.115674
    90  H    0.174189
    91  H    0.100796
    92  H    0.127574
    93  H    0.085049
    94  H    0.155888
    95  H    0.113553
    96  H    0.124028
    97  H    0.054529
    98  H    0.099697
    99  H    0.070338
   100  H    0.095488
   101  H    0.073094
   102  H    0.098426
   103  H    0.067326
   104  H    0.107397
   105  H    0.097002
   106  H    0.108241
   107  H    0.070184
   108  H    0.072590
   109  H    0.096142
   110  H    0.106167
   111  H    0.092112
   112  H    0.097476
   113  H    0.063919
   114  H    0.094891
   115  H    0.110648
   116  H    0.098059
   117  H    0.066957
   118  H    0.050554
   119  H    0.081620
   120  H    0.074841
   121  H    0.081793
   122  H    0.069583
   123  H    0.092802
   124  H    0.097617
   125  H    0.069155
   126  H    0.114603
   127  H    0.111818
   128  H    0.114742
   129  H    0.097552
   130  H    0.145007
   131  H    0.148783
   132  H    0.082691
   133  O   -0.437525
   134  H    0.071106
 Sum of Mulliken charges =  -0.00000

 Dipole moment (field-independent basis, Debye):
    X=              1.7242    Y=             -3.8681    Z=             -0.2936  Tot=              4.2451
 Quadrupole moment (field-independent basis, Debye-Ang):
   XX=           -373.4324   YY=           -434.2246   ZZ=           -393.9079
   XY=             -0.8799   XZ=             16.3097   YZ=            -35.9735

 Normal termination of Gaussian 16 at Tue Oct  8 16:53:41 2019.
