 Gaussian 16, Revision A.03,
 Gaussian 16:  ES64L-G16RevA.03 25-Dec-2016

 ----------------------------------------------------------------------
 # td=(NStates=1) iop(3/107=0140000000,3/108=0140000000) iop(3/107=0140
 000000,3/108=0140000000) CAM-B3LYP/6-31G(d,p)
 ----------------------------------------------------------------------

 --
 TD
 --
 Symbolic Z-matrix:
 Charge =  0 Multiplicity = 1

                         Standard orientation:
 ---------------------------------------------------------------------
 Center     Atomic      Atomic             Coordinates (Angstroms)
 Number     Number       Type             X           Y           Z
 ---------------------------------------------------------------------
      1         12           0       -5.612129    1.274977    0.192720
      2          6           0       -5.130223   -2.135696   -0.317278
      3          6           0       -3.299887    1.112869    2.771052
      4          6           0       -6.102014    4.619303    0.656484
      5          6           0       -8.037204    1.133830   -2.295715
      6          7           0       -4.306872   -0.260432    0.987432
      7          6           0       -4.307170   -1.665197    0.670003
      8          6           0       -3.222297   -2.375695    1.442914
      9          6           0       -2.867969   -1.302451    2.496825
     10          6           0       -3.507846   -0.065386    2.131526
     11          6           0       -3.369735   -1.826081    3.926591
     12          6           0       -1.914737   -2.655666    0.583296
     13          6           0       -0.991816   -3.507065    1.259891
     14          6           0        0.143418   -3.881256    0.471282
     15          8           0        0.521239   -3.531267   -0.605207
     16          8           0        1.058019   -4.706917    1.089925
     17          7           0       -4.928143    2.550170    1.500376
     18          6           0       -3.816967    2.426427    2.475128
     19          6           0       -3.646051    3.705321    3.125302
     20          6           0       -4.470802    4.581279    2.605620
     21          6           0       -5.201183    3.986521    1.473043
     22          6           0       -2.609929    3.854535    4.191191
     23          6           0       -4.451947    6.069019    2.734123
     24          8           0       -3.795031    6.632808    3.603302
     25          7           0       -6.801121    2.597471   -0.714177
     26          6           0       -6.901657    3.904157   -0.368599
     27          6           0       -7.947313    4.618506   -1.125546
     28          6           0       -8.464040    3.633824   -2.019674
     29          6           0       -7.762519    2.370048   -1.654338
     30          6           0       -8.224917    6.013602   -1.196252
     31          6           0       -9.488809    3.894706   -3.084287
     32          6           0       -9.013352    4.247674   -4.421413
     33          7           0       -6.387963   -0.172216   -1.027883
     34          6           0       -7.472130   -0.010908   -1.949098
     35          6           0       -7.731321   -1.453301   -2.553193
     36          6           0       -6.778134   -2.150777   -2.063977
     37          6           0       -6.075547   -1.411322   -1.043078
     38          6           0       -8.718662   -1.754259   -3.624849
     39          6           0       -6.363982   -3.539470   -1.916756
     40          8           0       -6.675889   -4.517641   -2.592885
     41          6           0       -5.150611   -3.584760   -0.838929
     42          6           0       -5.362775   -4.661656    0.258350
     43          8           0       -5.889647   -4.441679    1.318142
     44          8           0       -5.115000   -5.886831   -0.184868
     45          6           0       -5.350664   -6.869698    0.824763
     46          6           0        2.258952   -5.044739    0.462496
     47          6           0        3.466223   -4.076983    0.913931
     48          6           0        4.047954   -3.122631    0.140563
     49          6           0        3.649247   -2.936839   -1.341834
     50          6           0        5.099093   -2.448699    0.727920
     51          6           0        6.464805   -2.683336   -0.091334
     52          6           0        7.639993   -1.848787    0.549029
     53          6           0        8.994716   -2.140455   -0.151052
     54          6           0        9.561200   -3.525003    0.103355
     55          6           0        9.894894   -0.924714    0.365435
     56          6           0       11.337981   -0.884718   -0.342897
     57          6           0       12.284815    0.250164    0.167421
     58          6           0       13.590061    0.448363   -0.553513
     59          6           0       14.522813   -0.750472   -0.603112
     60          6           0       14.299679    1.680082   -0.116616
     61          6           0       15.413984    2.140068   -1.063004
     62          6           0       16.108436    3.456586   -0.519558
     63          6           0       17.434063    3.873705   -1.240618
     64          6           0       17.211500    4.004179   -2.780719
     65          6           0       18.021714    5.128484   -0.477699
     66          1           0       -2.752507    1.156487    3.838375
     67          1           0       -6.077822    5.511110    0.663961
     68          1           0       -8.896626    1.006440   -3.029158
     69          1           0       -3.584431   -3.268044    1.810079
     70          1           0       -1.943722   -1.100399    2.325717
     71          1           0       -2.801118   -2.758735    4.228967
     72          1           0       -3.140484   -1.069931    4.657907
     73          1           0       -4.432385   -2.075740    3.826291
     74          1           0       -2.316580   -2.894251   -0.331842
     75          1           0       -1.579523   -1.765077    0.203683
     76          1           0       -0.651017   -2.737053    2.066967
     77          1           0       -1.475047   -4.430583    1.873007
     78          1           0       -1.707010    3.652402    3.897373
     79          1           0       -2.735120    4.911546    4.520843
     80          1           0       -2.688871    3.227609    5.275319
     81          1           0       -5.077438    6.551170    2.171069
     82          1           0      -10.119248    2.918002   -3.237710
     83          1           0      -10.105691    4.774652   -2.611972
     84          1           0       -9.848151    4.580421   -5.164902
     85          1           0       -8.195262    5.047002   -4.514673
     86          1           0       -8.427305    3.296841   -4.967834
     87          1           0       -8.575933   -1.026107   -4.384627
     88          1           0       -8.620122   -2.696971   -4.137865
     89          1           0       -9.707481   -1.836674   -3.013586
     90          1           0       -4.155965   -3.766419   -1.333456
     91          1           0        2.507796   -6.012727    0.700581
     92          1           0        2.065731   -4.811566   -0.667795
     93          1           0        3.586352   -4.191659    1.993447
     94          1           0        2.604589   -3.175241   -1.452089
     95          1           0        3.798293   -1.813158   -1.725849
     96          1           0        4.335316   -3.593306   -2.026191
     97          1           0        4.899569   -1.388366    0.679390
     98          1           0        5.221228   -2.943674    1.829927
     99          1           0        6.455258   -3.796485    0.005440
    100          1           0        6.161040   -2.454162   -1.136767
    101          1           0        7.284321   -0.883843    0.396889
    102          1           0        7.620569   -1.861605    1.560892
    103          1           0        8.904185   -1.899620   -1.114907
    104          1           0        8.984629   -4.144015   -0.567608
    105          1           0       10.464547   -3.561463   -0.289490
    106          1           0        9.769872   -3.674690    1.150546
    107          1           0        9.347892    0.023074    0.127752
    108          1           0       10.145708   -0.995624    1.371228
    109          1           0       11.928131   -1.888957   -0.005267
    110          1           0       11.240442   -0.720334   -1.474165
    111          1           0       11.712381    1.391401    0.138213
    112          1           0       12.540450    0.303031    1.221742
    113          1           0       13.399304    0.587589   -1.561278
    114          1           0       15.008396   -1.114101    0.347392
    115          1           0       14.161267   -1.677860   -1.060900
    116          1           0       15.505945   -0.526349   -1.036728
    117          1           0       13.597416    2.576584   -0.068681
    118          1           0       14.641291    1.730782    0.916258
    119          1           0       16.280828    1.208560   -1.230354
    120          1           0       15.077952    2.293848   -2.014009
    121          1           0       15.345784    4.255494   -0.512040
    122          1           0       16.326000    3.244183    0.504123
    123          1           0       18.226230    3.111991   -1.034428
    124          1           0       16.573213    4.956173   -3.059415
    125          1           0       18.177675    4.118271   -3.406882
    126          1           0       16.891364    3.187142   -3.207890
    127          1           0       17.906598    4.813643    0.543037
    128          1           0       18.814660    5.585165   -1.032306
    129          1           0       17.373488    5.959767   -0.678776
    130          1           0       -5.088109   -7.706601    0.386541
    131          1           0       -6.459201   -6.848080    1.056863
    132          1           0       -4.629714   -6.442705    1.716122
    133          8           0       -7.839383    6.869657   -0.524533
    134          1           0       -9.042047    6.430680   -1.913980
 ---------------------------------------------------------------------

 SCF Done:  E(RCAM-B3LYP) =  -3043.38487058     A.U. after   15 cycles

 Excitation energies and oscillator strengths:

 Excited State   1:      Singlet-A      2.0823 eV  595.41 nm  f=0.1404  <S**2>=0.000
     243 -> 246        0.27766
     244 -> 245        0.63598
 This state for optimization and/or second-order correction.
 Total Energy, E(TD-HF/TD-DFT) =  -3043.30834614
 Copying the excited state density for this state as the 1-particle RhoCI density.

 The electronic state is 1-A.
 Alpha  occ. eigenvalues --  -46.80387 -19.23231 -19.20142 -19.18046 -19.17607
 Alpha  occ. eigenvalues --  -19.17556 -19.17266 -19.16230 -14.38463 -14.37786
 Alpha  occ. eigenvalues --  -14.37340 -14.37011 -10.35353 -10.35107 -10.32440
 Alpha  occ. eigenvalues --  -10.29771 -10.29387 -10.28013 -10.27912 -10.27770
 Alpha  occ. eigenvalues --  -10.27311 -10.27114 -10.26766 -10.26457 -10.26445
 Alpha  occ. eigenvalues --  -10.26430 -10.26125 -10.25905 -10.25899 -10.25816
 Alpha  occ. eigenvalues --  -10.24669 -10.24551 -10.24504 -10.24261 -10.23935
 Alpha  occ. eigenvalues --  -10.23926 -10.23836 -10.23702 -10.23409 -10.23242
 Alpha  occ. eigenvalues --  -10.23069 -10.22896 -10.22771 -10.22769 -10.22427
 Alpha  occ. eigenvalues --  -10.22338 -10.22220 -10.22177 -10.22110 -10.21896
 Alpha  occ. eigenvalues --  -10.21727 -10.21679 -10.21384 -10.21372 -10.20985
 Alpha  occ. eigenvalues --  -10.20703 -10.20633 -10.20619 -10.20610 -10.20493
 Alpha  occ. eigenvalues --  -10.20436 -10.20273 -10.19695 -10.19615 -10.19374
 Alpha  occ. eigenvalues --  -10.18719  -3.09230  -1.84148  -1.83704  -1.83662
 Alpha  occ. eigenvalues --   -1.15578  -1.14191  -1.10006  -1.07023  -1.06772
 Alpha  occ. eigenvalues --   -1.05920  -1.04246  -1.01626  -0.99660  -0.98136
 Alpha  occ. eigenvalues --   -0.95968  -0.88530  -0.88303  -0.86167  -0.86041
 Alpha  occ. eigenvalues --   -0.85427  -0.84902  -0.84347  -0.83973  -0.83882
 Alpha  occ. eigenvalues --   -0.83283  -0.82909  -0.82348  -0.80849  -0.79023
 Alpha  occ. eigenvalues --   -0.78423  -0.78334  -0.77600  -0.77316  -0.76333
 Alpha  occ. eigenvalues --   -0.75683  -0.75001  -0.74060  -0.73151  -0.72553
 Alpha  occ. eigenvalues --   -0.71736  -0.71710  -0.70681  -0.70279  -0.70172
 Alpha  occ. eigenvalues --   -0.69663  -0.69338  -0.68326  -0.67249  -0.66509
 Alpha  occ. eigenvalues --   -0.65444  -0.64791  -0.64539  -0.63462  -0.62390
 Alpha  occ. eigenvalues --   -0.62245  -0.61106  -0.60813  -0.59808  -0.59607
 Alpha  occ. eigenvalues --   -0.59039  -0.58765  -0.57989  -0.57920  -0.56985
 Alpha  occ. eigenvalues --   -0.56798  -0.56418  -0.55579  -0.55239  -0.54854
 Alpha  occ. eigenvalues --   -0.54350  -0.53986  -0.53393  -0.52977  -0.52562
 Alpha  occ. eigenvalues --   -0.52290  -0.51943  -0.51519  -0.51320  -0.50678
 Alpha  occ. eigenvalues --   -0.50199  -0.49902  -0.49786  -0.49726  -0.49429
 Alpha  occ. eigenvalues --   -0.49336  -0.48810  -0.48543  -0.48394  -0.48113
 Alpha  occ. eigenvalues --   -0.48025  -0.47852  -0.47572  -0.47457  -0.47240
 Alpha  occ. eigenvalues --   -0.47059  -0.46781  -0.46399  -0.46173  -0.46114
 Alpha  occ. eigenvalues --   -0.45921  -0.45811  -0.45547  -0.45514  -0.45202
 Alpha  occ. eigenvalues --   -0.45033  -0.44812  -0.44537  -0.44451  -0.44268
 Alpha  occ. eigenvalues --   -0.44101  -0.43824  -0.43473  -0.43339  -0.43180
 Alpha  occ. eigenvalues --   -0.42900  -0.42808  -0.42457  -0.42405  -0.42340
 Alpha  occ. eigenvalues --   -0.41679  -0.41560  -0.41354  -0.41151  -0.40978
 Alpha  occ. eigenvalues --   -0.40879  -0.40783  -0.40450  -0.40355  -0.40111
 Alpha  occ. eigenvalues --   -0.39528  -0.39247  -0.39241  -0.38931  -0.38863
 Alpha  occ. eigenvalues --   -0.38811  -0.38641  -0.38515  -0.38383  -0.38148
 Alpha  occ. eigenvalues --   -0.37926  -0.37774  -0.37457  -0.37001  -0.36827
 Alpha  occ. eigenvalues --   -0.36528  -0.36357  -0.36260  -0.35909  -0.35248
 Alpha  occ. eigenvalues --   -0.35150  -0.35068  -0.34946  -0.34881  -0.34680
 Alpha  occ. eigenvalues --   -0.34461  -0.34349  -0.34060  -0.33568  -0.33411
 Alpha  occ. eigenvalues --   -0.32907  -0.32441  -0.32439  -0.31825  -0.31558
 Alpha  occ. eigenvalues --   -0.31501  -0.31166  -0.30743  -0.30641  -0.29917
 Alpha  occ. eigenvalues --   -0.29637  -0.28545  -0.28308  -0.28195  -0.28005
 Alpha  occ. eigenvalues --   -0.26868  -0.25613  -0.23391  -0.21735
 Alpha virt. eigenvalues --   -0.08191  -0.06734  -0.01762  -0.00616   0.00316
 Alpha virt. eigenvalues --    0.01896   0.02729   0.03513   0.04268   0.04428
 Alpha virt. eigenvalues --    0.04753   0.05581   0.07579   0.07717   0.08924

 Mulliken charges:
               1
     1  Mg   0.826473
     2  C    0.084719
     3  C   -0.223663
     4  C   -0.055639
     5  C   -0.172814
     6  N   -0.633096
     7  C    0.271447
     8  C   -0.155576
     9  C   -0.128870
    10  C    0.375749
    11  C   -0.314041
    12  C   -0.184503
    13  C   -0.255567
    14  C    0.621312
    15  O   -0.461113
    16  O   -0.480461
    17  N   -0.696066
    18  C    0.273050
    19  C    0.059369
    20  C   -0.041148
    21  C    0.265814
    22  C   -0.383018
    23  C    0.285523
    24  O   -0.420481
    25  N   -0.692415
    26  C    0.269144
    27  C   -0.007021
    28  C    0.029750
    29  C    0.265624
    30  C    0.216867
    31  C   -0.229641
    32  C   -0.286717
    33  N   -0.714971
    34  C    0.259907
    35  C   -0.003038
    36  C    0.054048
    37  C    0.324503
    38  C   -0.375191
    39  C    0.381784
    40  O   -0.450980
    41  C   -0.323176
    42  C    0.599239
    43  O   -0.468980
    44  O   -0.428269
    45  C   -0.063837
    46  C    0.007280
    47  C   -0.165188
    48  C    0.172795
    49  C   -0.374034
    50  C   -0.239570
    51  C   -0.203200
    52  C   -0.162793
    53  C   -0.053928
    54  C   -0.307820
    55  C   -0.187492
    56  C   -0.183301
    57  C   -0.163023
    58  C   -0.019368
    59  C   -0.330152
    60  C   -0.183825
    61  C   -0.166804
    62  C   -0.178642
    63  C   -0.058557
    64  C   -0.311507
    65  C   -0.313908
    66  H    0.087093
    67  H    0.051162
    68  H    0.102115
    69  H    0.110805
    70  H    0.109409
    71  H    0.103503
    72  H    0.117513
    73  H    0.138746
    74  H    0.111055
    75  H    0.129713
    76  H    0.152671
    77  H    0.134440
    78  H    0.140867
    79  H    0.157812
    80  H    0.086853
    81  H    0.095905
    82  H    0.097011
    83  H    0.109912
    84  H    0.106426
    85  H    0.111416
    86  H    0.075238
    87  H    0.137704
    88  H    0.154699
    89  H    0.130558
    90  H    0.152356
    91  H    0.109657
    92  H    0.108160
    93  H    0.082962
    94  H    0.157184
    95  H    0.087215
    96  H    0.110462
    97  H    0.093349
    98  H    0.077995
    99  H    0.095977
   100  H    0.094415
   101  H    0.095306
   102  H    0.099545
   103  H    0.091269
   104  H    0.109968
   105  H    0.115356
   106  H    0.104883
   107  H    0.088614
   108  H    0.098803
   109  H    0.080732
   110  H    0.085969
   111  H    0.035269
   112  H    0.092313
   113  H    0.095091
   114  H    0.084192
   115  H    0.102222
   116  H    0.099942
   117  H    0.079313
   118  H    0.090680
   119  H    0.044151
   120  H    0.109871
   121  H    0.091219
   122  H    0.092077
   123  H    0.086981
   124  H    0.084898
   125  H    0.079307
   126  H    0.123493
   127  H    0.109193
   128  H    0.105754
   129  H    0.097487
   130  H    0.132137
   131  H    0.136640
   132  H    0.104267
   133  O   -0.389238
   134  H    0.028944
 Sum of Mulliken charges =  -0.00000

 Dipole moment (field-independent basis, Debye):
    X=              0.6141    Y=             -4.7995    Z=             -1.0027  Tot=              4.9414
 Quadrupole moment (field-independent basis, Debye-Ang):
   XX=           -390.1237   YY=           -439.7492   ZZ=           -392.7476
   XY=             19.2777   XZ=             18.3262   YZ=            -30.2690

 Normal termination of Gaussian 16 at Fri Oct 11 04:28:57 2019.
