 Gaussian 16, Revision A.03,
 Gaussian 16:  ES64L-G16RevA.03 25-Dec-2016

 ----------------------------------------------------------------------
 # td=(NStates=1) iop(3/107=0140000000,3/108=0140000000) iop(3/107=0140
 000000,3/108=0140000000) CAM-B3LYP/6-31G(d,p)
 ----------------------------------------------------------------------

 --
 TD
 --
 Symbolic Z-matrix:
 Charge =  0 Multiplicity = 1

                         Standard orientation:
 ---------------------------------------------------------------------
 Center     Atomic      Atomic             Coordinates (Angstroms)
 Number     Number       Type             X           Y           Z
 ---------------------------------------------------------------------
      1         12           0       -5.578489    1.310983    0.095934
      2          6           0       -5.049259   -2.126502   -0.394260
      3          6           0       -3.327699    1.136508    2.837648
      4          6           0       -6.085661    4.552699    0.706362
      5          6           0       -7.948930    1.277308   -2.454669
      6          7           0       -4.384935   -0.291766    1.011095
      7          6           0       -4.274519   -1.608876    0.588573
      8          6           0       -3.212411   -2.350452    1.395761
      9          6           0       -2.996467   -1.343374    2.557396
     10          6           0       -3.616016   -0.092178    2.046055
     11          6           0       -3.367599   -1.747801    3.938384
     12          6           0       -2.019812   -2.784700    0.548421
     13          6           0       -1.056650   -3.610712    1.437723
     14          6           0        0.198658   -3.973331    0.650750
     15          8           0        0.516252   -3.575796   -0.475721
     16          8           0        0.981354   -4.796980    1.313720
     17          7           0       -4.868456    2.625962    1.571695
     18          6           0       -4.002268    2.368077    2.497861
     19          6           0       -3.741348    3.546604    3.307529
     20          6           0       -4.413527    4.554603    2.668981
     21          6           0       -5.150379    4.019661    1.591797
     22          6           0       -2.725187    3.601143    4.511508
     23          6           0       -4.500016    5.976476    3.086337
     24          8           0       -3.857867    6.597635    3.955071
     25          7           0       -6.789364    2.669391   -0.762610
     26          6           0       -6.811312    3.974092   -0.405282
     27          6           0       -7.759187    4.650052   -1.181547
     28          6           0       -8.342878    3.725806   -2.081937
     29          6           0       -7.659414    2.535944   -1.826452
     30          6           0       -8.116781    6.094330   -1.117055
     31          6           0       -9.283986    4.025873   -3.167238
     32          6           0       -8.490469    4.528945   -4.485076
     33          7           0       -6.346427   -0.142260   -1.148324
     34          6           0       -7.300371   -0.021862   -2.123608
     35          6           0       -7.492908   -1.287932   -2.754266
     36          6           0       -6.636773   -2.100642   -2.103733
     37          6           0       -6.062220   -1.366708   -1.136158
     38          6           0       -8.543356   -1.597925   -3.833054
     39          6           0       -6.269827   -3.549525   -2.096793
     40          8           0       -6.577929   -4.528636   -2.686147
     41          6           0       -5.055350   -3.533300   -0.900701
     42          6           0       -5.425330   -4.640794    0.080457
     43          8           0       -5.969729   -4.466229    1.156315
     44          8           0       -4.977719   -5.829087   -0.421160
     45          6           0       -5.287489   -6.909944    0.450668
     46          6           0        2.273903   -5.322652    0.720721
     47          6           0        3.302344   -4.256266    1.125565
     48          6           0        3.994237   -3.440518    0.370735
     49          6           0        3.662795   -3.347551   -1.214042
     50          6           0        5.157023   -2.523509    0.709236
     51          6           0        6.450489   -2.811035    0.041608
     52          6           0        7.600549   -1.856109    0.574237
     53          6           0        9.047114   -2.101754   -0.028586
     54          6           0        9.576037   -3.492287    0.168831
     55          6           0       10.006978   -1.000811    0.416832
     56          6           0       11.250956   -0.878878   -0.384902
     57          6           0       12.097045    0.306983    0.044992
     58          6           0       13.461262    0.406340   -0.704791
     59          6           0       14.374323   -0.735975   -0.515330
     60          6           0       14.114454    1.778004   -0.338744
     61          6           0       15.378447    2.192849   -1.053093
     62          6           0       15.910520    3.629239   -0.643011
     63          6           0       17.166529    4.070321   -1.289052
     64          6           0       17.087035    4.257820   -2.731565
     65          6           0       17.663939    5.388740   -0.560746
     66          1           0       -2.643921    1.045312    3.759829
     67          1           0       -6.333138    5.619240    0.857567
     68          1           0       -8.731810    1.445765   -3.235491
     69          1           0       -3.782017   -3.195165    1.944546
     70          1           0       -1.870235   -1.079507    2.414136
     71          1           0       -2.814057   -2.520752    4.326473
     72          1           0       -3.524741   -0.738747    4.650925
     73          1           0       -4.454644   -2.285892    3.921581
     74          1           0       -2.191302   -3.285583   -0.355077
     75          1           0       -1.461700   -1.913253    0.252858
     76          1           0       -0.639929   -3.293183    2.343894
     77          1           0       -1.492699   -4.476700    1.644781
     78          1           0       -1.752323    3.512493    4.106946
     79          1           0       -2.914861    4.523676    5.121351
     80          1           0       -2.898687    2.638462    5.209016
     81          1           0       -5.236793    6.460996    2.386531
     82          1           0       -9.822707    3.176728   -3.375558
     83          1           0      -10.148763    4.810492   -2.963650
     84          1           0       -9.185779    4.629152   -5.551871
     85          1           0       -7.875741    5.511397   -4.137892
     86          1           0       -7.884108    3.530121   -4.758247
     87          1           0       -8.658383   -0.984362   -4.951731
     88          1           0       -8.156991   -2.584165   -4.331515
     89          1           0       -9.497723   -1.731575   -3.210014
     90          1           0       -4.220770   -3.941314   -1.196129
     91          1           0        2.456191   -6.283439    1.249930
     92          1           0        2.079007   -5.169984   -0.242023
     93          1           0        3.595187   -4.369045    2.214709
     94          1           0        2.587888   -3.745678   -1.546745
     95          1           0        3.796639   -2.405169   -1.803902
     96          1           0        4.433160   -4.006470   -1.734104
     97          1           0        4.896503   -1.488569    0.526255
     98          1           0        5.206002   -2.620907    1.793598
     99          1           0        6.777085   -3.930951   -0.193099
    100          1           0        6.342051   -2.491571   -1.008403
    101          1           0        7.448484   -0.848195    0.473491
    102          1           0        7.759002   -2.175506    1.601920
    103          1           0        8.898101   -2.107844   -1.154346
    104          1           0        8.933841   -4.204880   -0.403066
    105          1           0       10.519058   -3.615737   -0.589608
    106          1           0        9.817057   -3.767449    1.032576
    107          1           0        9.587222   -0.010462    0.108808
    108          1           0       10.274323   -1.050932    1.522915
    109          1           0       11.909651   -1.654678   -0.304866
    110          1           0       10.882601   -0.908529   -1.458901
    111          1           0       11.481366    1.116214    0.269601
    112          1           0       12.434652    0.081009    1.074998
    113          1           0       13.372419    0.489254   -1.744181
    114          1           0       14.670897   -0.952576    0.512444
    115          1           0       14.026896   -1.569713   -1.099575
    116          1           0       15.235358   -0.592556   -0.997910
    117          1           0       13.286972    2.578747   -0.419646
    118          1           0       14.304232    1.823268    0.857915
    119          1           0       16.282745    1.399963   -0.786704
    120          1           0       15.277880    2.264179   -2.215366
    121          1           0       15.207374    4.453226   -0.925998
    122          1           0       16.125397    3.731303    0.509120
    123          1           0       17.825337    3.178979   -1.008108
    124          1           0       16.064002    5.035309   -3.070272
    125          1           0       17.949196    4.593391   -3.179953
    126          1           0       16.674870    3.357395   -3.190374
    127          1           0       17.553029    5.306174    0.491579
    128          1           0       18.739554    5.373239   -0.964519
    129          1           0       16.969584    6.140989   -0.846473
    130          1           0       -5.036275   -7.800798   -0.004698
    131          1           0       -6.387937   -6.771227    0.657682
    132          1           0       -4.753586   -6.899771    1.415216
    133          8           0       -7.771841    6.881517   -0.282102
    134          1           0       -8.878644    6.518791   -1.922844
 ---------------------------------------------------------------------

 SCF Done:  E(RCAM-B3LYP) =  -3043.47537066     A.U. after   15 cycles

 Excitation energies and oscillator strengths:

 Excited State   1:      Singlet-A      2.1762 eV  569.72 nm  f=0.0991  <S**2>=0.000
     243 -> 245        0.21886
     243 -> 246       -0.27257
     244 -> 245        0.57760
     244 -> 246        0.17841
 This state for optimization and/or second-order correction.
 Total Energy, E(TD-HF/TD-DFT) =  -3043.39539624
 Copying the excited state density for this state as the 1-particle RhoCI density.

 The electronic state is 1-A.
 Alpha  occ. eigenvalues --  -46.82476 -19.22863 -19.21242 -19.18831 -19.17549
 Alpha  occ. eigenvalues --  -19.17374 -19.17057 -19.15743 -14.38728 -14.36917
 Alpha  occ. eigenvalues --  -14.36689 -14.36509 -10.34635 -10.34160 -10.32658
 Alpha  occ. eigenvalues --  -10.30941 -10.30635 -10.28062 -10.27881 -10.26910
 Alpha  occ. eigenvalues --  -10.26810 -10.26748 -10.26607 -10.26584 -10.26528
 Alpha  occ. eigenvalues --  -10.26516 -10.26302 -10.26089 -10.25666 -10.24940
 Alpha  occ. eigenvalues --  -10.24839 -10.24744 -10.24374 -10.24214 -10.24211
 Alpha  occ. eigenvalues --  -10.24023 -10.23981 -10.23862 -10.23827 -10.23773
 Alpha  occ. eigenvalues --  -10.23700 -10.23249 -10.23171 -10.23079 -10.22889
 Alpha  occ. eigenvalues --  -10.22863 -10.22746 -10.22415 -10.22388 -10.21964
 Alpha  occ. eigenvalues --  -10.21934 -10.21825 -10.21777 -10.21743 -10.21593
 Alpha  occ. eigenvalues --  -10.21136 -10.21104 -10.21031 -10.21026 -10.20905
 Alpha  occ. eigenvalues --  -10.20574 -10.20051 -10.19986 -10.19745 -10.19300
 Alpha  occ. eigenvalues --  -10.18601  -3.10878  -1.85834  -1.85336  -1.85283
 Alpha  occ. eigenvalues --   -1.13415  -1.12554  -1.09780  -1.08100  -1.05033
 Alpha  occ. eigenvalues --   -1.04813  -1.03921  -1.02379  -1.01204  -1.00666
 Alpha  occ. eigenvalues --   -1.00145  -0.87952  -0.86300  -0.86080  -0.85529
 Alpha  occ. eigenvalues --   -0.85438  -0.84871  -0.84603  -0.83785  -0.83762
 Alpha  occ. eigenvalues --   -0.83157  -0.82877  -0.82031  -0.80865  -0.79770
 Alpha  occ. eigenvalues --   -0.78999  -0.78488  -0.77013  -0.76740  -0.76510
 Alpha  occ. eigenvalues --   -0.75677  -0.74173  -0.73801  -0.72898  -0.71862
 Alpha  occ. eigenvalues --   -0.71720  -0.71357  -0.70786  -0.69732  -0.69540
 Alpha  occ. eigenvalues --   -0.69352  -0.68712  -0.68079  -0.66844  -0.66287
 Alpha  occ. eigenvalues --   -0.65558  -0.64983  -0.64372  -0.62622  -0.62035
 Alpha  occ. eigenvalues --   -0.61407  -0.60870  -0.60665  -0.59055  -0.58782
 Alpha  occ. eigenvalues --   -0.58710  -0.58402  -0.57995  -0.56991  -0.56987
 Alpha  occ. eigenvalues --   -0.56384  -0.55993  -0.55403  -0.55070  -0.54606
 Alpha  occ. eigenvalues --   -0.53562  -0.53430  -0.53004  -0.52833  -0.52191
 Alpha  occ. eigenvalues --   -0.52109  -0.51626  -0.51293  -0.50923  -0.50548
 Alpha  occ. eigenvalues --   -0.50344  -0.49956  -0.49800  -0.49459  -0.49130
 Alpha  occ. eigenvalues --   -0.49060  -0.48673  -0.48217  -0.48124  -0.47803
 Alpha  occ. eigenvalues --   -0.47672  -0.47432  -0.47385  -0.47252  -0.47029
 Alpha  occ. eigenvalues --   -0.46804  -0.46645  -0.46304  -0.46190  -0.46045
 Alpha  occ. eigenvalues --   -0.45983  -0.45515  -0.45337  -0.45117  -0.44919
 Alpha  occ. eigenvalues --   -0.44516  -0.44511  -0.44377  -0.44165  -0.43828
 Alpha  occ. eigenvalues --   -0.43648  -0.43442  -0.43262  -0.43025  -0.42935
 Alpha  occ. eigenvalues --   -0.42747  -0.42188  -0.42154  -0.42113  -0.41980
 Alpha  occ. eigenvalues --   -0.41692  -0.41490  -0.41416  -0.41338  -0.41075
 Alpha  occ. eigenvalues --   -0.40725  -0.40635  -0.40317  -0.40253  -0.40195
 Alpha  occ. eigenvalues --   -0.40114  -0.40027  -0.39849  -0.39655  -0.39342
 Alpha  occ. eigenvalues --   -0.39051  -0.38916  -0.38765  -0.38747  -0.38606
 Alpha  occ. eigenvalues --   -0.38019  -0.37917  -0.37421  -0.37089  -0.36990
 Alpha  occ. eigenvalues --   -0.36649  -0.36607  -0.36166  -0.35647  -0.35480
 Alpha  occ. eigenvalues --   -0.35429  -0.35045  -0.34662  -0.34575  -0.34522
 Alpha  occ. eigenvalues --   -0.34446  -0.33743  -0.33314  -0.33304  -0.33265
 Alpha  occ. eigenvalues --   -0.32921  -0.32319  -0.32164  -0.31976  -0.31522
 Alpha  occ. eigenvalues --   -0.31402  -0.30829  -0.30259  -0.29784  -0.29598
 Alpha  occ. eigenvalues --   -0.29530  -0.28465  -0.28076  -0.27992  -0.27898
 Alpha  occ. eigenvalues --   -0.27769  -0.27636  -0.22846  -0.22206
 Alpha virt. eigenvalues --   -0.08415  -0.06607  -0.00981  -0.00745   0.01136
 Alpha virt. eigenvalues --    0.02852   0.03773   0.03900   0.04202   0.04838
 Alpha virt. eigenvalues --    0.05264   0.05903   0.07614   0.07949   0.09282

 Mulliken charges:
               1
     1  Mg   0.843117
     2  C    0.095370
     3  C   -0.202543
     4  C   -0.207755
     5  C   -0.151386
     6  N   -0.623609
     7  C    0.265394
     8  C   -0.163419
     9  C   -0.138550
    10  C    0.364085
    11  C   -0.305893
    12  C   -0.177050
    13  C   -0.252873
    14  C    0.574480
    15  O   -0.502777
    16  O   -0.477347
    17  N   -0.719406
    18  C    0.362806
    19  C    0.016804
    20  C   -0.019015
    21  C    0.303168
    22  C   -0.363913
    23  C    0.260498
    24  O   -0.433944
    25  N   -0.729868
    26  C    0.336890
    27  C   -0.046378
    28  C    0.058745
    29  C    0.279379
    30  C    0.241633
    31  C   -0.265004
    32  C   -0.276140
    33  N   -0.693684
    34  C    0.224236
    35  C    0.013852
    36  C    0.016763
    37  C    0.326649
    38  C   -0.374757
    39  C    0.391970
    40  O   -0.416150
    41  C   -0.335724
    42  C    0.603571
    43  O   -0.478923
    44  O   -0.446663
    45  C   -0.085052
    46  C    0.029071
    47  C   -0.152916
    48  C    0.157050
    49  C   -0.391819
    50  C   -0.216470
    51  C   -0.189261
    52  C   -0.161963
    53  C   -0.070405
    54  C   -0.295177
    55  C   -0.166914
    56  C   -0.165642
    57  C   -0.181143
    58  C   -0.053598
    59  C   -0.314490
    60  C   -0.158397
    61  C   -0.168249
    62  C   -0.153465
    63  C   -0.057974
    64  C   -0.273775
    65  C   -0.303619
    66  H    0.097700
    67  H    0.133566
    68  H    0.100469
    69  H    0.117405
    70  H    0.102755
    71  H    0.129483
    72  H    0.097286
    73  H    0.104522
    74  H    0.135594
    75  H    0.127387
    76  H    0.142070
    77  H    0.144267
    78  H    0.148307
    79  H    0.155050
    80  H    0.097760
    81  H    0.076101
    82  H    0.114912
    83  H    0.108375
    84  H    0.086133
    85  H    0.114603
    86  H    0.099326
    87  H    0.099829
    88  H    0.134989
    89  H    0.140503
    90  H    0.138505
    91  H    0.135673
    92  H    0.130537
    93  H    0.073692
    94  H    0.134460
    95  H    0.109247
    96  H    0.101104
    97  H    0.117283
    98  H    0.093145
    99  H    0.087708
   100  H    0.099004
   101  H    0.099922
   102  H    0.092057
   103  H    0.068056
   104  H    0.097273
   105  H    0.073908
   106  H    0.111124
   107  H    0.086357
   108  H    0.080742
   109  H    0.101791
   110  H    0.073408
   111  H    0.089603
   112  H    0.085045
   113  H    0.089443
   114  H    0.099430
   115  H    0.102283
   116  H    0.112090
   117  H    0.083157
   118  H    0.059493
   119  H    0.069057
   120  H    0.083058
   121  H    0.078095
   122  H    0.070298
   123  H    0.074085
   124  H    0.037912
   125  H    0.112566
   126  H    0.106650
   127  H    0.103098
   128  H    0.096966
   129  H    0.111233
   130  H    0.127312
   131  H    0.130696
   132  H    0.117013
   133  O   -0.400918
   134  H    0.046520
 Sum of Mulliken charges =  -0.00000

 Dipole moment (field-independent basis, Debye):
    X=              2.7251    Y=             -5.5371    Z=             -1.3604  Tot=              6.3195
 Quadrupole moment (field-independent basis, Debye-Ang):
   XX=           -374.6887   YY=           -439.9253   ZZ=           -393.4511
   XY=              0.6975   XZ=             23.7004   YZ=            -36.9124

 Normal termination of Gaussian 16 at Fri Oct 11 11:55:39 2019.
