 Gaussian 16, Revision A.03,
 Gaussian 16:  ES64L-G16RevA.03 25-Dec-2016

 ----------------------------------------------------------------------
 # td=(NStates=1) iop(3/107=0140000000,3/108=0140000000) iop(3/107=0140
 000000,3/108=0140000000) CAM-B3LYP/6-31G(d,p)
 ----------------------------------------------------------------------

 --
 TD
 --
 Symbolic Z-matrix:
 Charge =  0 Multiplicity = 1

                         Standard orientation:
 ---------------------------------------------------------------------
 Center     Atomic      Atomic             Coordinates (Angstroms)
 Number     Number       Type             X           Y           Z
 ---------------------------------------------------------------------
      1         12           0       -5.600420    1.186243    0.145048
      2          6           0       -5.017585   -2.106246   -0.406757
      3          6           0       -3.409572    1.147496    2.712544
      4          6           0       -6.120252    4.580069    0.659148
      5          6           0       -7.947352    1.204514   -2.350269
      6          7           0       -4.356968   -0.256274    1.049275
      7          6           0       -4.257039   -1.589350    0.572357
      8          6           0       -3.218533   -2.351129    1.453974
      9          6           0       -2.943352   -1.316412    2.562373
     10          6           0       -3.564584   -0.041518    2.109113
     11          6           0       -3.556964   -1.755626    3.939846
     12          6           0       -1.955043   -2.739328    0.633548
     13          6           0       -0.857984   -3.521739    1.494898
     14          6           0        0.307112   -3.897906    0.617632
     15          8           0        0.480600   -3.458369   -0.464387
     16          8           0        1.076800   -4.885824    1.158215
     17          7           0       -4.900230    2.568082    1.479991
     18          6           0       -4.010872    2.405829    2.477279
     19          6           0       -3.767020    3.730670    3.177888
     20          6           0       -4.555775    4.596543    2.595079
     21          6           0       -5.351222    3.905076    1.555253
     22          6           0       -2.864405    3.793219    4.351954
     23          6           0       -4.591253    5.972428    2.896906
     24          8           0       -3.929680    6.465602    3.885565
     25          7           0       -6.748791    2.699170   -0.793227
     26          6           0       -6.824490    4.037320   -0.442748
     27          6           0       -7.935932    4.668408   -1.262340
     28          6           0       -8.374866    3.581684   -2.030064
     29          6           0       -7.768853    2.382296   -1.709472
     30          6           0       -8.202254    6.086704   -1.226516
     31          6           0       -9.459389    3.756150   -3.143948
     32          6           0       -8.806359    4.042989   -4.577473
     33          7           0       -6.337782   -0.144579   -1.099486
     34          6           0       -7.296005    0.055356   -2.056080
     35          6           0       -7.549232   -1.370193   -2.697742
     36          6           0       -6.721599   -2.220559   -1.998209
     37          6           0       -5.958274   -1.375627   -1.112849
     38          6           0       -8.633167   -1.708953   -3.690724
     39          6           0       -6.244457   -3.523915   -1.997389
     40          8           0       -6.461711   -4.465037   -2.715487
     41          6           0       -5.094300   -3.506390   -0.893581
     42          6           0       -5.291739   -4.611184    0.144120
     43          8           0       -5.735834   -4.438873    1.205983
     44          8           0       -5.054166   -5.855431   -0.340223
     45          6           0       -5.462699   -6.924962    0.598441
     46          6           0        2.399402   -5.178715    0.457673
     47          6           0        3.368799   -4.235371    0.929407
     48          6           0        3.909999   -3.360219    0.208837
     49          6           0        3.803273   -3.102748   -1.244284
     50          6           0        5.161931   -2.463836    0.712768
     51          6           0        6.493374   -2.690837   -0.094557
     52          6           0        7.564936   -1.760600    0.499207
     53          6           0        9.049700   -1.887619   -0.148011
     54          6           0        9.534863   -3.421148    0.179775
     55          6           0       10.032699   -0.943029    0.523063
     56          6           0       11.328042   -0.755619   -0.282232
     57          6           0       12.237802    0.308672    0.293023
     58          6           0       13.569501    0.434008   -0.543060
     59          6           0       14.518776   -0.686577   -0.389788
     60          6           0       14.274678    1.793929   -0.082446
     61          6           0       15.460787    2.111358   -0.992328
     62          6           0       16.094334    3.477386   -0.508171
     63          6           0       17.303300    3.928798   -1.331159
     64          6           0       17.098665    3.872929   -2.874384
     65          6           0       17.753609    5.508097   -0.932722
     66          1           0       -2.582899    1.254326    3.677666
     67          1           0       -6.490630    5.635876    0.579725
     68          1           0       -8.774770    1.221938   -3.057682
     69          1           0       -3.977757   -3.249050    1.813352
     70          1           0       -1.778811   -1.218674    2.958991
     71          1           0       -2.906969   -2.627546    4.393174
     72          1           0       -3.643520   -1.056643    4.743818
     73          1           0       -4.709487   -2.232568    3.714739
     74          1           0       -2.278251   -3.407271   -0.252273
     75          1           0       -1.522312   -1.966162    0.167287
     76          1           0       -0.555234   -2.959594    2.425989
     77          1           0       -1.352849   -4.456452    1.757816
     78          1           0       -1.929391    3.390840    4.143940
     79          1           0       -2.985179    4.885102    4.763651
     80          1           0       -3.340100    3.217370    5.232662
     81          1           0       -5.406310    6.926643    2.466917
     82          1           0       -9.958946    2.890432   -3.204390
     83          1           0      -10.189000    4.618915   -2.793428
     84          1           0       -9.749017    4.116385   -5.377185
     85          1           0       -8.454606    5.136683   -4.497547
     86          1           0       -7.961631    3.392546   -4.727567
     87          1           0       -8.476160   -1.230314   -4.706124
     88          1           0       -8.519421   -2.694779   -3.789281
     89          1           0       -9.673242   -1.317478   -3.276314
     90          1           0       -4.126996   -3.800963   -1.407904
     91          1           0        2.480677   -6.166281    0.829562
     92          1           0        2.405704   -4.961752   -0.611366
     93          1           0        3.787334   -4.354320    1.904236
     94          1           0        2.742642   -3.465108   -1.396913
     95          1           0        4.077492   -2.032588   -1.499536
     96          1           0        4.666896   -3.568000   -1.926556
     97          1           0        4.994307   -1.367016    0.955620
     98          1           0        5.264235   -2.556679    1.789151
     99          1           0        6.840451   -3.738357    0.066094
    100          1           0        6.239872   -2.610053   -1.146006
    101          1           0        7.189432   -0.773747    0.639937
    102          1           0        7.752257   -2.053817    1.644418
    103          1           0        8.713409   -1.803291   -1.122241
    104          1           0        8.990439   -4.295592   -0.377969
    105          1           0       10.571741   -3.541718   -0.122724
    106          1           0        9.501431   -3.334666    1.314007
    107          1           0        9.514367   -0.044806    0.568219
    108          1           0       10.095446   -0.972945    1.702558
    109          1           0       11.975853   -1.453917   -0.047719
    110          1           0       11.114892   -0.608511   -1.127744
    111          1           0       11.691763    1.204617    0.380455
    112          1           0       12.515343   -0.170171    1.311357
    113          1           0       13.193654    0.683071   -1.519617
    114          1           0       14.695431   -1.056579    0.721669
    115          1           0       14.301972   -1.734628   -0.953395
    116          1           0       15.559062   -0.483461   -0.881461
    117          1           0       13.421169    2.501698   -0.166076
    118          1           0       14.483766    1.801381    0.954320
    119          1           0       16.248743    1.286949   -1.055008
    120          1           0       15.070280    2.193344   -2.105507
    121          1           0       15.324657    4.273370   -0.666326
    122          1           0       16.222766    3.404231    0.495233
    123          1           0       18.125095    3.281360   -1.048323
    124          1           0       16.143466    4.483376   -3.231286
    125          1           0       18.030103    4.076384   -3.331437
    126          1           0       16.751097    2.917527   -3.346055
    127          1           0       18.050838    5.547203    0.188934
    128          1           0       18.707587    5.715600   -1.639105
    129          1           0       16.864036    6.080048   -1.329113
    130          1           0       -5.542973   -7.879761   -0.110024
    131          1           0       -6.468316   -6.654372    1.182235
    132          1           0       -4.689013   -6.790252    1.277962
    133          8           0       -7.820299    6.869205   -0.370916
    134          1           0       -9.029107    6.395332   -2.001752
 ---------------------------------------------------------------------

 SCF Done:  E(RCAM-B3LYP) =  -3043.39711252     A.U. after   15 cycles

 Excitation energies and oscillator strengths:

 Excited State   1:      Singlet-A      2.1658 eV  572.46 nm  f=0.1513  <S**2>=0.000
     243 -> 246        0.30079
     244 -> 245        0.62991
 This state for optimization and/or second-order correction.
 Total Energy, E(TD-HF/TD-DFT) =  -3043.31752091
 Copying the excited state density for this state as the 1-particle RhoCI density.

 The electronic state is 1-A.
 Alpha  occ. eigenvalues --  -46.81166 -19.21994 -19.21035 -19.17631 -19.17409
 Alpha  occ. eigenvalues --  -19.17380 -19.16999 -19.16830 -14.38445 -14.37576
 Alpha  occ. eigenvalues --  -14.37471 -14.36508 -10.34849 -10.34254 -10.31825
 Alpha  occ. eigenvalues --  -10.31277 -10.30804 -10.28639 -10.27603 -10.27508
 Alpha  occ. eigenvalues --  -10.27356 -10.26963 -10.26923 -10.26805 -10.26734
 Alpha  occ. eigenvalues --  -10.26192 -10.26186 -10.25699 -10.25329 -10.24924
 Alpha  occ. eigenvalues --  -10.24885 -10.24830 -10.24303 -10.24137 -10.24071
 Alpha  occ. eigenvalues --  -10.24041 -10.23909 -10.23724 -10.23547 -10.23450
 Alpha  occ. eigenvalues --  -10.23276 -10.23259 -10.23089 -10.22988 -10.22748
 Alpha  occ. eigenvalues --  -10.22745 -10.22702 -10.22671 -10.22327 -10.22250
 Alpha  occ. eigenvalues --  -10.22146 -10.22055 -10.21967 -10.21943 -10.21892
 Alpha  occ. eigenvalues --  -10.21789 -10.21702 -10.21654 -10.21324 -10.20944
 Alpha  occ. eigenvalues --  -10.20940 -10.20467 -10.20460 -10.19990 -10.19970
 Alpha  occ. eigenvalues --  -10.17049  -3.09855  -1.84796  -1.84323  -1.84269
 Alpha  occ. eigenvalues --   -1.14919  -1.12755  -1.08094  -1.06885  -1.05887
 Alpha  occ. eigenvalues --   -1.04380  -1.03379  -1.02268  -1.00048  -0.99061
 Alpha  occ. eigenvalues --   -0.97833  -0.90107  -0.87251  -0.85880  -0.85790
 Alpha  occ. eigenvalues --   -0.85271  -0.84580  -0.84460  -0.83688  -0.83531
 Alpha  occ. eigenvalues --   -0.82879  -0.82288  -0.81252  -0.80656  -0.79771
 Alpha  occ. eigenvalues --   -0.78585  -0.78093  -0.77283  -0.77025  -0.76152
 Alpha  occ. eigenvalues --   -0.75810  -0.74798  -0.73978  -0.73269  -0.72269
 Alpha  occ. eigenvalues --   -0.70882  -0.69992  -0.69823  -0.69587  -0.69266
 Alpha  occ. eigenvalues --   -0.68869  -0.68632  -0.67386  -0.66786  -0.66423
 Alpha  occ. eigenvalues --   -0.65852  -0.65309  -0.64895  -0.62993  -0.62814
 Alpha  occ. eigenvalues --   -0.61256  -0.61157  -0.60951  -0.59941  -0.58977
 Alpha  occ. eigenvalues --   -0.58586  -0.58224  -0.57955  -0.57352  -0.56806
 Alpha  occ. eigenvalues --   -0.56349  -0.55984  -0.55494  -0.55127  -0.54548
 Alpha  occ. eigenvalues --   -0.54103  -0.53517  -0.53088  -0.52689  -0.52471
 Alpha  occ. eigenvalues --   -0.52005  -0.51911  -0.51006  -0.50753  -0.50169
 Alpha  occ. eigenvalues --   -0.50083  -0.50035  -0.49707  -0.49413  -0.49234
 Alpha  occ. eigenvalues --   -0.49018  -0.48720  -0.48337  -0.48214  -0.48122
 Alpha  occ. eigenvalues --   -0.47778  -0.47407  -0.47093  -0.46889  -0.46603
 Alpha  occ. eigenvalues --   -0.46567  -0.46363  -0.46047  -0.45960  -0.45795
 Alpha  occ. eigenvalues --   -0.45567  -0.45528  -0.45142  -0.44747  -0.44646
 Alpha  occ. eigenvalues --   -0.44493  -0.44264  -0.44072  -0.44006  -0.43807
 Alpha  occ. eigenvalues --   -0.43480  -0.43052  -0.42918  -0.42825  -0.42616
 Alpha  occ. eigenvalues --   -0.42306  -0.42248  -0.41855  -0.41719  -0.41468
 Alpha  occ. eigenvalues --   -0.41388  -0.41339  -0.41117  -0.40830  -0.40555
 Alpha  occ. eigenvalues --   -0.40416  -0.40176  -0.40032  -0.39958  -0.39888
 Alpha  occ. eigenvalues --   -0.39692  -0.39497  -0.39152  -0.39044  -0.38901
 Alpha  occ. eigenvalues --   -0.38880  -0.38852  -0.38549  -0.38506  -0.38357
 Alpha  occ. eigenvalues --   -0.38088  -0.37769  -0.37452  -0.37334  -0.36831
 Alpha  occ. eigenvalues --   -0.36400  -0.36387  -0.36297  -0.35942  -0.35838
 Alpha  occ. eigenvalues --   -0.35610  -0.35466  -0.35162  -0.34816  -0.34657
 Alpha  occ. eigenvalues --   -0.34265  -0.33773  -0.33556  -0.33447  -0.33386
 Alpha  occ. eigenvalues --   -0.32679  -0.32484  -0.31900  -0.31857  -0.31596
 Alpha  occ. eigenvalues --   -0.31556  -0.31118  -0.30640  -0.30210  -0.29678
 Alpha  occ. eigenvalues --   -0.29439  -0.29064  -0.28575  -0.28294  -0.28017
 Alpha  occ. eigenvalues --   -0.27414  -0.26713  -0.23402  -0.21891
 Alpha virt. eigenvalues --   -0.08010  -0.06884  -0.02196  -0.01568   0.00146
 Alpha virt. eigenvalues --    0.03317   0.03805   0.03981   0.04278   0.04415
 Alpha virt. eigenvalues --    0.04931   0.06097   0.07694   0.08268   0.09113

 Mulliken charges:
               1
     1  Mg   0.817639
     2  C    0.154791
     3  C   -0.227850
     4  C   -0.137623
     5  C   -0.151134
     6  N   -0.670261
     7  C    0.263011
     8  C   -0.167499
     9  C   -0.150318
    10  C    0.436661
    11  C   -0.297197
    12  C   -0.167328
    13  C   -0.275966
    14  C    0.605195
    15  O   -0.444396
    16  O   -0.496982
    17  N   -0.684236
    18  C    0.326646
    19  C    0.088236
    20  C    0.016730
    21  C    0.288299
    22  C   -0.400606
    23  C    0.192794
    24  O   -0.437124
    25  N   -0.691555
    26  C    0.231785
    27  C   -0.010249
    28  C   -0.005186
    29  C    0.314560
    30  C    0.236534
    31  C   -0.237338
    32  C   -0.302644
    33  N   -0.752801
    34  C    0.274930
    35  C   -0.014064
    36  C    0.087261
    37  C    0.301770
    38  C   -0.369230
    39  C    0.337352
    40  O   -0.444311
    41  C   -0.360610
    42  C    0.605396
    43  O   -0.443780
    44  O   -0.464186
    45  C   -0.088857
    46  C   -0.011488
    47  C   -0.083953
    48  C    0.140598
    49  C   -0.382531
    50  C   -0.247368
    51  C   -0.165173
    52  C   -0.191576
    53  C   -0.066529
    54  C   -0.307362
    55  C   -0.198136
    56  C   -0.104677
    57  C   -0.213742
    58  C   -0.041665
    59  C   -0.306406
    60  C   -0.176920
    61  C   -0.174979
    62  C   -0.156126
    63  C   -0.068447
    64  C   -0.307364
    65  C   -0.307245
    66  H    0.064331
    67  H    0.144980
    68  H    0.097514
    69  H    0.132409
    70  H    0.091074
    71  H    0.095925
    72  H    0.125190
    73  H    0.091482
    74  H    0.099495
    75  H    0.137591
    76  H    0.130108
    77  H    0.139902
    78  H    0.131089
    79  H    0.170035
    80  H    0.120342
    81  H    0.082980
    82  H    0.113608
    83  H    0.098664
    84  H    0.092498
    85  H    0.111680
    86  H    0.126299
    87  H    0.128280
    88  H    0.155848
    89  H    0.122141
    90  H    0.154800
    91  H    0.122411
    92  H    0.126446
    93  H    0.082651
    94  H    0.133486
    95  H    0.120336
    96  H    0.109867
    97  H    0.089347
    98  H    0.084654
    99  H    0.108360
   100  H    0.091547
   101  H    0.092165
   102  H    0.063544
   103  H    0.097120
   104  H    0.088123
   105  H    0.104497
   106  H    0.099609
   107  H    0.095790
   108  H    0.074203
   109  H    0.113118
   110  H    0.078917
   111  H    0.085456
   112  H    0.072122
   113  H    0.091908
   114  H    0.094363
   115  H    0.079638
   116  H    0.096883
   117  H    0.086793
   118  H    0.096551
   119  H    0.089696
   120  H    0.075574
   121  H    0.080343
   122  H    0.098509
   123  H    0.087146
   124  H    0.081898
   125  H    0.109509
   126  H    0.097768
   127  H    0.101218
   128  H    0.084065
   129  H    0.110334
   130  H    0.132149
   131  H    0.132729
   132  H    0.142718
   133  O   -0.424116
   134  H    0.047120
 Sum of Mulliken charges =  -0.00000

 Dipole moment (field-independent basis, Debye):
    X=              2.2009    Y=             -5.3201    Z=             -0.9755  Tot=              5.8394
 Quadrupole moment (field-independent basis, Debye-Ang):
   XX=           -365.6910   YY=           -447.4246   ZZ=           -395.5213
   XY=             14.0566   XZ=             18.7574   YZ=            -31.6789

 Normal termination of Gaussian 16 at Sat Oct  5 02:25:58 2019.
