 Gaussian 16, Revision A.03,
 Gaussian 16:  ES64L-G16RevA.03 25-Dec-2016

 ----------------------------------------------------------------------
 # td=(NStates=1) iop(3/107=0140000000,3/108=0140000000) iop(3/107=0140
 000000,3/108=0140000000) CAM-B3LYP/6-31G(d,p)
 ----------------------------------------------------------------------

 --
 TD
 --
 Symbolic Z-matrix:
 Charge =  0 Multiplicity = 1

                         Standard orientation:
 ---------------------------------------------------------------------
 Center     Atomic      Atomic             Coordinates (Angstroms)
 Number     Number       Type             X           Y           Z
 ---------------------------------------------------------------------
      1         12           0       -5.729557    1.162165    0.283291
      2          6           0       -5.076241   -2.146860   -0.402687
      3          6           0       -3.319112    1.221645    2.707140
      4          6           0       -6.103135    4.591109    0.616623
      5          6           0       -8.039598    1.191407   -2.302327
      6          7           0       -4.416193   -0.199688    1.066001
      7          6           0       -4.209653   -1.560911    0.666868
      8          6           0       -3.147781   -2.350510    1.465835
      9          6           0       -2.804782   -1.234475    2.590382
     10          6           0       -3.575847   -0.011757    2.063193
     11          6           0       -3.226841   -1.696557    3.983440
     12          6           0       -1.904559   -2.693008    0.571772
     13          6           0       -1.005881   -3.597018    1.510804
     14          6           0        0.253506   -4.028470    0.691691
     15          8           0        0.492548   -3.631830   -0.437608
     16          8           0        1.008815   -4.819833    1.424195
     17          7           0       -4.938836    2.599328    1.453059
     18          6           0       -3.990450    2.416670    2.422229
     19          6           0       -3.738412    3.588285    3.159800
     20          6           0       -4.416505    4.634601    2.479994
     21          6           0       -5.236588    3.955269    1.480994
     22          6           0       -2.725568    3.759572    4.274877
     23          6           0       -4.526273    6.053726    2.955661
     24          8           0       -3.750844    6.578913    3.704293
     25          7           0       -6.894296    2.593574   -0.634906
     26          6           0       -6.912037    3.898396   -0.311413
     27          6           0       -7.868894    4.651546   -1.167662
     28          6           0       -8.392308    3.733388   -2.052693
     29          6           0       -7.737371    2.446557   -1.715892
     30          6           0       -8.335121    6.067296   -1.066737
     31          6           0       -9.412246    3.826458   -3.114428
     32          6           0       -8.690742    4.048492   -4.549111
     33          7           0       -6.337173   -0.146773   -1.105588
     34          6           0       -7.437976   -0.048278   -2.069102
     35          6           0       -7.541005   -1.298615   -2.663411
     36          6           0       -6.631132   -2.161475   -2.061710
     37          6           0       -6.071546   -1.424877   -1.061082
     38          6           0       -8.546692   -1.515046   -3.808427
     39          6           0       -6.178785   -3.523696   -2.042117
     40          8           0       -6.584327   -4.452688   -2.654541
     41          6           0       -5.092510   -3.523806   -0.997389
     42          6           0       -5.410206   -4.591006    0.027738
     43          8           0       -5.759100   -4.389251    1.216860
     44          8           0       -5.119309   -5.813488   -0.399449
     45          6           0       -5.430516   -6.905537    0.471959
     46          6           0        2.320922   -5.123855    0.730447
     47          6           0        3.341228   -4.096934    1.096936
     48          6           0        3.928097   -3.322723    0.130160
     49          6           0        3.658403   -3.202069   -1.319533
     50          6           0        5.089462   -2.388809    0.701185
     51          6           0        6.435967   -2.732342    0.002993
     52          6           0        7.643499   -1.957336    0.496843
     53          6           0        8.975716   -2.114673   -0.112503
     54          6           0        9.637593   -3.536582    0.157312
     55          6           0        9.882893   -0.963077    0.389701
     56          6           0       11.246709   -0.891900   -0.317879
     57          6           0       12.166065    0.302088    0.195705
     58          6           0       13.519338    0.572245   -0.605395
     59          6           0       14.538043   -0.625965   -0.543324
     60          6           0       14.064523    1.934708   -0.265819
     61          6           0       15.449835    2.127492   -1.010047
     62          6           0       16.058772    3.520622   -0.559870
     63          6           0       17.336377    3.947074   -1.352646
     64          6           0       17.165337    4.041537   -2.764931
     65          6           0       17.956129    5.226901   -0.771102
     66          1           0       -2.585157    1.018040    3.530661
     67          1           0       -6.197193    5.693363    0.539923
     68          1           0       -8.683267    1.315187   -3.048011
     69          1           0       -3.639959   -3.240435    1.851450
     70          1           0       -1.764421   -1.265246    2.545296
     71          1           0       -2.837706   -2.566740    4.335037
     72          1           0       -3.343127   -0.880500    4.744088
     73          1           0       -4.238264   -1.910794    4.204918
     74          1           0       -2.309722   -3.217288   -0.217691
     75          1           0       -1.469720   -1.758828    0.122107
     76          1           0       -0.869265   -3.001668    2.316524
     77          1           0       -1.452865   -4.526998    1.989454
     78          1           0       -1.809518    3.413328    3.962132
     79          1           0       -2.670919    4.791037    4.669408
     80          1           0       -2.967106    3.294153    5.245865
     81          1           0       -5.247621    6.587837    2.539516
     82          1           0       -9.973659    2.940871   -3.322040
     83          1           0      -10.056429    4.705820   -2.958961
     84          1           0       -9.658913    4.413253   -5.123835
     85          1           0       -7.998348    4.841131   -4.623965
     86          1           0       -8.406575    2.944718   -5.045139
     87          1           0       -8.378493   -0.865316   -4.786142
     88          1           0       -8.476897   -2.430521   -4.211077
     89          1           0       -9.548372   -1.420848   -3.482262
     90          1           0       -4.075764   -3.702529   -1.552405
     91          1           0        2.514084   -6.152443    1.225451
     92          1           0        2.093230   -5.106358   -0.192323
     93          1           0        3.915930   -4.198525    1.996059
     94          1           0        2.634511   -3.468873   -1.688868
     95          1           0        3.872536   -2.409895   -1.940135
     96          1           0        4.336794   -3.897026   -1.886121
     97          1           0        4.813948   -1.367291    0.291110
     98          1           0        5.255306   -2.180323    1.870315
     99          1           0        6.656836   -3.863028    0.356592
    100          1           0        6.498994   -2.779784   -1.072687
    101          1           0        7.155164   -0.901452    0.519122
    102          1           0        7.763201   -2.073028    1.574220
    103          1           0        8.953292   -2.075172   -1.097104
    104          1           0        8.733039   -4.149397   -0.066136
    105          1           0       10.370846   -3.695481   -0.589283
    106          1           0        9.975370   -3.854217    1.249833
    107          1           0        9.317423    0.088874    0.229097
    108          1           0        9.961630   -0.807059    1.475752
    109          1           0       11.844223   -1.700489    0.015619
    110          1           0       11.155607   -1.042146   -1.433537
    111          1           0       11.626726    1.219731    0.366506
    112          1           0       12.528815   -0.068813    1.200360
    113          1           0       13.166970    0.428027   -1.532984
    114          1           0       14.809588   -0.733300    0.477716
    115          1           0       14.038317   -1.372274   -0.988042
    116          1           0       15.456772   -0.464925   -1.209077
    117          1           0       13.322695    2.752113   -0.411636
    118          1           0       14.332664    1.725240    0.723736
    119          1           0       16.023127    1.440671   -0.720138
    120          1           0       15.230422    2.033448   -2.078261
    121          1           0       15.212942    4.520636   -0.647758
    122          1           0       16.402329    3.202188    0.415747
    123          1           0       17.992724    3.211759   -1.204146
    124          1           0       16.410003    4.775952   -3.020510
    125          1           0       18.089202    4.348825   -3.345917
    126          1           0       16.942822    2.970660   -3.104189
    127          1           0       18.203335    5.141782    0.330986
    128          1           0       18.889911    5.284657   -1.180420
    129          1           0       17.528179    6.094506   -0.863839
    130          1           0       -5.383538   -8.119133    0.000600
    131          1           0       -6.393381   -6.705946    0.945557
    132          1           0       -4.819118   -6.831453    1.437672
    133          8           0       -7.812221    6.849074   -0.366699
    134          1           0       -9.311118    6.236016   -1.597955
 ---------------------------------------------------------------------

 SCF Done:  E(RCAM-B3LYP) =  -3043.46095864     A.U. after   16 cycles

 Excitation energies and oscillator strengths:

 Excited State   1:      Singlet-A      2.0526 eV  604.04 nm  f=0.1584  <S**2>=0.000
     243 -> 246        0.29368
     244 -> 245        0.63634
 This state for optimization and/or second-order correction.
 Total Energy, E(TD-HF/TD-DFT) =  -3043.38552775
 Copying the excited state density for this state as the 1-particle RhoCI density.

 The electronic state is 1-A.
 Alpha  occ. eigenvalues --  -46.80106 -19.23513 -19.22043 -19.17924 -19.16899
 Alpha  occ. eigenvalues --  -19.16685 -19.16678 -19.16467 -14.39318 -14.36716
 Alpha  occ. eigenvalues --  -14.36315 -14.35132 -10.35606 -10.34543 -10.30885
 Alpha  occ. eigenvalues --  -10.30203 -10.29383 -10.28981 -10.28283 -10.27249
 Alpha  occ. eigenvalues --  -10.26851 -10.26144 -10.25929 -10.25906 -10.25863
 Alpha  occ. eigenvalues --  -10.25222 -10.25215 -10.25183 -10.24406 -10.24360
 Alpha  occ. eigenvalues --  -10.24127 -10.24089 -10.24067 -10.24002 -10.23805
 Alpha  occ. eigenvalues --  -10.23788 -10.23742 -10.23734 -10.23493 -10.23446
 Alpha  occ. eigenvalues --  -10.22790 -10.22770 -10.22630 -10.22548 -10.22535
 Alpha  occ. eigenvalues --  -10.22280 -10.22135 -10.21762 -10.21588 -10.21518
 Alpha  occ. eigenvalues --  -10.21498 -10.21238 -10.21178 -10.20943 -10.20927
 Alpha  occ. eigenvalues --  -10.20856 -10.20812 -10.20564 -10.20480 -10.19944
 Alpha  occ. eigenvalues --  -10.19915 -10.19599 -10.19556 -10.19456 -10.19164
 Alpha  occ. eigenvalues --  -10.17644  -3.08927  -1.83846  -1.83423  -1.83333
 Alpha  occ. eigenvalues --   -1.14256  -1.13203  -1.10154  -1.08504  -1.07417
 Alpha  occ. eigenvalues --   -1.04058  -1.03110  -1.00283  -0.99432  -0.99344
 Alpha  occ. eigenvalues --   -0.98312  -0.89029  -0.86092  -0.85389  -0.85312
 Alpha  occ. eigenvalues --   -0.85185  -0.84738  -0.84030  -0.83670  -0.82976
 Alpha  occ. eigenvalues --   -0.82612  -0.82096  -0.81084  -0.80200  -0.79304
 Alpha  occ. eigenvalues --   -0.78588  -0.78002  -0.77395  -0.77012  -0.76344
 Alpha  occ. eigenvalues --   -0.75358  -0.74441  -0.74188  -0.72511  -0.72125
 Alpha  occ. eigenvalues --   -0.71786  -0.71776  -0.70911  -0.69991  -0.69284
 Alpha  occ. eigenvalues --   -0.69191  -0.68744  -0.67784  -0.66526  -0.66148
 Alpha  occ. eigenvalues --   -0.66051  -0.65143  -0.63821  -0.62815  -0.62184
 Alpha  occ. eigenvalues --   -0.61481  -0.60646  -0.60252  -0.60113  -0.59570
 Alpha  occ. eigenvalues --   -0.59437  -0.58789  -0.58282  -0.58211  -0.57512
 Alpha  occ. eigenvalues --   -0.57424  -0.56355  -0.55786  -0.55574  -0.54697
 Alpha  occ. eigenvalues --   -0.54334  -0.53691  -0.52810  -0.52482  -0.51770
 Alpha  occ. eigenvalues --   -0.51401  -0.51358  -0.51213  -0.50770  -0.50443
 Alpha  occ. eigenvalues --   -0.50343  -0.49821  -0.49662  -0.49390  -0.48865
 Alpha  occ. eigenvalues --   -0.48478  -0.48161  -0.48022  -0.47732  -0.47710
 Alpha  occ. eigenvalues --   -0.47356  -0.47293  -0.47015  -0.46986  -0.46701
 Alpha  occ. eigenvalues --   -0.46487  -0.46305  -0.46212  -0.45835  -0.45734
 Alpha  occ. eigenvalues --   -0.45413  -0.45298  -0.45257  -0.44858  -0.44765
 Alpha  occ. eigenvalues --   -0.44639  -0.44193  -0.44076  -0.43783  -0.43609
 Alpha  occ. eigenvalues --   -0.43326  -0.43141  -0.42877  -0.42779  -0.42715
 Alpha  occ. eigenvalues --   -0.42549  -0.42468  -0.42095  -0.41964  -0.41769
 Alpha  occ. eigenvalues --   -0.41567  -0.41523  -0.41445  -0.41288  -0.40969
 Alpha  occ. eigenvalues --   -0.40894  -0.40680  -0.40549  -0.40258  -0.40181
 Alpha  occ. eigenvalues --   -0.40101  -0.40071  -0.39570  -0.39391  -0.39284
 Alpha  occ. eigenvalues --   -0.39216  -0.39073  -0.39026  -0.38656  -0.38557
 Alpha  occ. eigenvalues --   -0.38030  -0.37939  -0.37919  -0.37360  -0.37260
 Alpha  occ. eigenvalues --   -0.36890  -0.36752  -0.36426  -0.36271  -0.35809
 Alpha  occ. eigenvalues --   -0.35580  -0.35203  -0.35102  -0.34814  -0.34718
 Alpha  occ. eigenvalues --   -0.34423  -0.33752  -0.33336  -0.33108  -0.32898
 Alpha  occ. eigenvalues --   -0.32750  -0.32451  -0.32171  -0.31988  -0.31219
 Alpha  occ. eigenvalues --   -0.30990  -0.30618  -0.30513  -0.29644  -0.29057
 Alpha  occ. eigenvalues --   -0.28545  -0.28386  -0.27739  -0.27551  -0.27507
 Alpha  occ. eigenvalues --   -0.27295  -0.27106  -0.22248  -0.21275
 Alpha virt. eigenvalues --   -0.08031  -0.05850  -0.01212  -0.00052   0.01246
 Alpha virt. eigenvalues --    0.02133   0.02624   0.03439   0.04502   0.04934
 Alpha virt. eigenvalues --    0.05576   0.06276   0.07846   0.08800   0.09785

 Mulliken charges:
               1
     1  Mg   0.823547
     2  C    0.038325
     3  C   -0.192589
     4  C   -0.177141
     5  C   -0.149669
     6  N   -0.623156
     7  C    0.253864
     8  C   -0.167802
     9  C   -0.134412
    10  C    0.351762
    11  C   -0.332242
    12  C   -0.170034
    13  C   -0.277023
    14  C    0.612411
    15  O   -0.486642
    16  O   -0.463279
    17  N   -0.717872
    18  C    0.342673
    19  C    0.035729
    20  C   -0.070323
    21  C    0.311071
    22  C   -0.392258
    23  C    0.273858
    24  O   -0.404671
    25  N   -0.679180
    26  C    0.304855
    27  C   -0.075545
    28  C    0.078585
    29  C    0.259017
    30  C    0.260326
    31  C   -0.270117
    32  C   -0.307182
    33  N   -0.718377
    34  C    0.280531
    35  C   -0.013523
    36  C    0.028319
    37  C    0.341656
    38  C   -0.374549
    39  C    0.361267
    40  O   -0.436639
    41  C   -0.348675
    42  C    0.628370
    43  O   -0.498456
    44  O   -0.412326
    45  C   -0.087724
    46  C    0.008582
    47  C   -0.130066
    48  C    0.155099
    49  C   -0.405478
    50  C   -0.239047
    51  C   -0.168746
    52  C   -0.170350
    53  C   -0.041481
    54  C   -0.319528
    55  C   -0.164085
    56  C   -0.190443
    57  C   -0.199207
    58  C   -0.073770
    59  C   -0.324581
    60  C   -0.165320
    61  C   -0.188068
    62  C   -0.146790
    63  C   -0.045541
    64  C   -0.289448
    65  C   -0.315531
    66  H    0.095094
    67  H    0.139999
    68  H    0.059412
    69  H    0.136466
    70  H    0.118347
    71  H    0.120663
    72  H    0.100460
    73  H    0.127420
    74  H    0.118398
    75  H    0.124493
    76  H    0.141298
    77  H    0.127515
    78  H    0.133281
    79  H    0.155263
    80  H    0.112957
    81  H    0.081444
    82  H    0.128540
    83  H    0.114774
    84  H    0.094305
    85  H    0.135577
    86  H    0.098322
    87  H    0.100182
    88  H    0.146257
    89  H    0.131035
    90  H    0.168841
    91  H    0.111751
    92  H    0.130735
    93  H    0.093719
    94  H    0.156011
    95  H    0.131002
    96  H    0.119349
    97  H    0.101680
    98  H    0.096830
    99  H    0.067043
   100  H    0.099632
   101  H    0.071891
   102  H    0.091579
   103  H    0.093828
   104  H    0.098142
   105  H    0.113042
   106  H    0.092878
   107  H    0.057981
   108  H    0.092223
   109  H    0.109991
   110  H    0.078496
   111  H    0.091682
   112  H    0.078433
   113  H    0.091837
   114  H    0.103441
   115  H    0.112707
   116  H    0.093348
   117  H    0.092602
   118  H    0.094267
   119  H    0.104649
   120  H    0.092329
   121  H    0.042387
   122  H    0.094206
   123  H    0.088576
   124  H    0.098433
   125  H    0.087180
   126  H    0.087325
   127  H    0.078805
   128  H    0.101914
   129  H    0.111431
   130  H    0.110779
   131  H    0.143077
   132  H    0.118581
   133  O   -0.389572
   134  H    0.062476
 Sum of Mulliken charges =  -0.00000

 Dipole moment (field-independent basis, Debye):
    X=              1.9183    Y=             -4.4404    Z=             -0.9948  Tot=              4.9382
 Quadrupole moment (field-independent basis, Debye-Ang):
   XX=           -359.5429   YY=           -428.9503   ZZ=           -389.8070
   XY=            -14.0346   XZ=             14.4020   YZ=            -33.0074

 Normal termination of Gaussian 16 at Thu Oct 10 15:54:17 2019.
