 Gaussian 16, Revision A.03,
 Gaussian 16:  ES64L-G16RevA.03 25-Dec-2016

 ----------------------------------------------------------------------
 # td=(NStates=1) iop(3/107=0140000000,3/108=0140000000) iop(3/107=0140
 000000,3/108=0140000000) CAM-B3LYP/6-31G(d,p)
 ----------------------------------------------------------------------

 --
 TD
 --
 Symbolic Z-matrix:
 Charge =  0 Multiplicity = 1

                         Standard orientation:
 ---------------------------------------------------------------------
 Center     Atomic      Atomic             Coordinates (Angstroms)
 Number     Number       Type             X           Y           Z
 ---------------------------------------------------------------------
      1         12           0       -5.633737    1.153997    0.230687
      2          6           0       -4.982058   -2.190699   -0.311314
      3          6           0       -3.352189    1.232703    2.695984
      4          6           0       -6.258250    4.574270    0.613721
      5          6           0       -7.999867    1.079730   -2.422081
      6          7           0       -4.293838   -0.385885    0.997326
      7          6           0       -4.205297   -1.591913    0.722607
      8          6           0       -3.207604   -2.203520    1.521149
      9          6           0       -2.887272   -1.286741    2.643108
     10          6           0       -3.566629   -0.088128    2.117600
     11          6           0       -3.411144   -1.788180    4.023092
     12          6           0       -1.914041   -2.689393    0.679103
     13          6           0       -0.817481   -3.501507    1.336586
     14          6           0        0.340934   -3.837136    0.510152
     15          8           0        0.619320   -3.356741   -0.617087
     16          8           0        1.112642   -4.724042    1.126762
     17          7           0       -5.010172    2.724244    1.501355
     18          6           0       -4.033886    2.443896    2.382404
     19          6           0       -3.810684    3.680698    3.106868
     20          6           0       -4.603973    4.694074    2.538411
     21          6           0       -5.442427    4.012762    1.570710
     22          6           0       -2.670349    3.785178    4.220575
     23          6           0       -4.722504    6.054048    2.913636
     24          8           0       -4.193710    6.620552    3.805480
     25          7           0       -7.016876    2.606627   -0.655781
     26          6           0       -7.111381    3.902939   -0.326590
     27          6           0       -8.098241    4.488003   -1.187590
     28          6           0       -8.609946    3.536287   -2.088009
     29          6           0       -7.877682    2.374616   -1.716266
     30          6           0       -8.602065    5.938895   -1.231890
     31          6           0       -9.570480    3.695859   -3.192630
     32          6           0       -9.071397    4.097799   -4.584724
     33          7           0       -6.348249   -0.174654   -1.093412
     34          6           0       -7.311907   -0.043754   -2.105506
     35          6           0       -7.580168   -1.362326   -2.727344
     36          6           0       -6.676702   -2.255015   -2.017280
     37          6           0       -5.974130   -1.407260   -1.070576
     38          6           0       -8.567649   -1.773773   -3.721927
     39          6           0       -6.247867   -3.664145   -1.896323
     40          8           0       -6.613979   -4.558645   -2.482851
     41          6           0       -5.074971   -3.638135   -0.819140
     42          6           0       -5.262055   -4.756672    0.196544
     43          8           0       -5.600123   -4.505061    1.297691
     44          8           0       -4.933099   -5.903940   -0.320159
     45          6           0       -5.332131   -7.136240    0.431274
     46          6           0        2.411282   -5.077586    0.511896
     47          6           0        3.484514   -4.061191    0.892447
     48          6           0        4.086502   -3.138533    0.134072
     49          6           0        3.779644   -2.815519   -1.224603
     50          6           0        5.203701   -2.389484    0.838742
     51          6           0        6.628590   -2.716873    0.112834
     52          6           0        7.614925   -1.767365    0.665145
     53          6           0        9.057599   -1.950126   -0.018363
     54          6           0        9.698145   -3.289467    0.223879
     55          6           0        9.947712   -0.690531    0.430987
     56          6           0       11.409501   -0.742636   -0.266013
     57          6           0       12.248964    0.402579    0.099681
     58          6           0       13.577607    0.472105   -0.614900
     59          6           0       14.483298   -0.668075   -0.376898
     60          6           0       14.322206    1.809987   -0.217612
     61          6           0       15.524910    2.227989   -1.084340
     62          6           0       16.113050    3.526352   -0.680769
     63          6           0       17.546380    3.798963   -1.384334
     64          6           0       17.283031    3.966236   -2.869127
     65          6           0       18.108275    5.110732   -0.718843
     66          1           0       -2.784750    1.286720    3.718353
     67          1           0       -6.607868    5.712754    0.677800
     68          1           0       -8.630637    1.030197   -3.264516
     69          1           0       -3.410998   -3.163639    1.991456
     70          1           0       -1.739074   -1.134620    2.598177
     71          1           0       -2.647339   -2.735331    4.452122
     72          1           0       -3.483022   -0.961134    4.916904
     73          1           0       -4.333712   -2.396975    3.962828
     74          1           0       -2.214286   -3.184298   -0.058587
     75          1           0       -1.544228   -1.597726    0.365264
     76          1           0       -0.405505   -2.901385    2.226315
     77          1           0       -1.197391   -4.363937    1.694021
     78          1           0       -1.700593    3.950944    3.716400
     79          1           0       -3.032660    4.827960    4.729931
     80          1           0       -2.802344    2.986357    5.180899
     81          1           0       -5.524074    6.628194    2.292285
     82          1           0      -10.014197    2.679665   -3.051223
     83          1           0      -10.281467    4.477860   -3.046797
     84          1           0       -9.897316    3.935478   -5.408222
     85          1           0       -8.662477    5.119034   -4.592257
     86          1           0       -8.093940    3.660772   -4.983455
     87          1           0       -8.358191   -1.337174   -4.618291
     88          1           0       -8.568491   -2.905144   -3.903305
     89          1           0       -9.705577   -1.312768   -3.185464
     90          1           0       -4.165240   -3.897457   -1.513362
     91          1           0        2.660616   -6.083694    0.782465
     92          1           0        2.190875   -5.061308   -0.394564
     93          1           0        3.621354   -4.115145    1.924268
     94          1           0        2.655706   -3.143340   -1.540617
     95          1           0        3.949086   -1.695977   -1.289647
     96          1           0        4.421018   -3.394706   -1.832386
     97          1           0        4.853213   -1.298170    0.546757
     98          1           0        5.179862   -2.739288    1.833028
     99          1           0        6.875750   -3.809061    0.356853
    100          1           0        6.521031   -2.409548   -0.909995
    101          1           0        7.414895   -0.776892    0.429513
    102          1           0        7.632382   -1.739259    1.800547
    103          1           0        8.613411   -1.870341   -1.123464
    104          1           0        8.989729   -4.134727    0.048457
    105          1           0       10.705676   -3.591185    0.066721
    106          1           0        9.530223   -3.407649    1.368296
    107          1           0        9.586787    0.414862    0.326005
    108          1           0       10.255077   -0.708684    1.518758
    109          1           0       11.844950   -1.688069    0.044546
    110          1           0       11.251292   -0.766006   -1.219713
    111          1           0       11.703612    1.468448   -0.019446
    112          1           0       12.219029    0.245634    1.088415
    113          1           0       13.286541    0.557615   -1.806216
    114          1           0       14.997660   -0.800253    0.491839
    115          1           0       14.091248   -1.611892   -0.828658
    116          1           0       15.246592   -0.672657   -1.010722
    117          1           0       13.603910    2.699374   -0.260106
    118          1           0       14.423897    1.761683    0.944491
    119          1           0       16.145610    1.339374   -1.066784
    120          1           0       15.249474    2.191552   -2.157713
    121          1           0       15.494289    4.410504   -0.985507
    122          1           0       16.066943    3.484588    0.539836
    123          1           0       18.209574    3.026039   -1.174175
    124          1           0       16.436981    4.616625   -3.065788
    125          1           0       18.234297    4.164713   -3.482108
    126          1           0       16.978935    2.891339   -3.329772
    127          1           0       18.336944    4.742811    0.296685
    128          1           0       19.188159    5.437619   -1.067182
    129          1           0       17.141429    5.670532   -0.796940
    130          1           0       -5.354582   -8.069736   -0.378514
    131          1           0       -6.323474   -6.896426    0.889162
    132          1           0       -4.536236   -7.192661    1.321416
    133          8           0       -8.175642    6.732122   -0.458040
    134          1           0       -9.320927    6.166124   -2.153643
 ---------------------------------------------------------------------

 SCF Done:  E(RCAM-B3LYP) =  -3043.38455517     A.U. after   15 cycles

 Excitation energies and oscillator strengths:

 Excited State   1:      Singlet-A      2.1220 eV  584.28 nm  f=0.0828  <S**2>=0.000
     243 -> 246        0.36102
     244 -> 245        0.59647
 This state for optimization and/or second-order correction.
 Total Energy, E(TD-HF/TD-DFT) =  -3043.30657367
 Copying the excited state density for this state as the 1-particle RhoCI density.

 The electronic state is 1-A.
 Alpha  occ. eigenvalues --  -46.83111 -19.23234 -19.22046 -19.17707 -19.17502
 Alpha  occ. eigenvalues --  -19.16822 -19.16276 -19.16257 -14.38714 -14.36700
 Alpha  occ. eigenvalues --  -14.36617 -14.36165 -10.34868 -10.34625 -10.31122
 Alpha  occ. eigenvalues --  -10.31094 -10.30940 -10.29073 -10.27967 -10.26639
 Alpha  occ. eigenvalues --  -10.26252 -10.26213 -10.26026 -10.25982 -10.25812
 Alpha  occ. eigenvalues --  -10.25789 -10.25617 -10.25503 -10.25303 -10.24777
 Alpha  occ. eigenvalues --  -10.24709 -10.24475 -10.24417 -10.24225 -10.24215
 Alpha  occ. eigenvalues --  -10.24125 -10.24092 -10.23812 -10.23775 -10.23540
 Alpha  occ. eigenvalues --  -10.23312 -10.23156 -10.22940 -10.22753 -10.22739
 Alpha  occ. eigenvalues --  -10.22569 -10.22349 -10.22270 -10.22237 -10.22187
 Alpha  occ. eigenvalues --  -10.22182 -10.22106 -10.22095 -10.21873 -10.21428
 Alpha  occ. eigenvalues --  -10.21405 -10.21294 -10.21019 -10.20981 -10.20954
 Alpha  occ. eigenvalues --  -10.20433 -10.20304 -10.20149 -10.19405 -10.18362
 Alpha  occ. eigenvalues --  -10.18271  -3.11320  -1.86287  -1.85784  -1.85705
 Alpha  occ. eigenvalues --   -1.15076  -1.12796  -1.12564  -1.08657  -1.07985
 Alpha  occ. eigenvalues --   -1.06482  -1.04689  -1.02375  -1.00503  -0.99947
 Alpha  occ. eigenvalues --   -0.98675  -0.86984  -0.86842  -0.86343  -0.85514
 Alpha  occ. eigenvalues --   -0.85090  -0.84227  -0.83981  -0.83799  -0.83293
 Alpha  occ. eigenvalues --   -0.82929  -0.81927  -0.81580  -0.80244  -0.79866
 Alpha  occ. eigenvalues --   -0.78533  -0.77628  -0.77305  -0.77082  -0.76686
 Alpha  occ. eigenvalues --   -0.76167  -0.74271  -0.73582  -0.72342  -0.71951
 Alpha  occ. eigenvalues --   -0.71603  -0.71289  -0.70165  -0.69821  -0.68884
 Alpha  occ. eigenvalues --   -0.68705  -0.68048  -0.67289  -0.66803  -0.65802
 Alpha  occ. eigenvalues --   -0.65274  -0.64523  -0.62975  -0.62343  -0.61873
 Alpha  occ. eigenvalues --   -0.61159  -0.60942  -0.60368  -0.59410  -0.59237
 Alpha  occ. eigenvalues --   -0.58792  -0.58700  -0.57973  -0.57819  -0.57209
 Alpha  occ. eigenvalues --   -0.56211  -0.55994  -0.55594  -0.54603  -0.54240
 Alpha  occ. eigenvalues --   -0.53964  -0.53532  -0.53309  -0.52531  -0.52011
 Alpha  occ. eigenvalues --   -0.51971  -0.51839  -0.51554  -0.51214  -0.50617
 Alpha  occ. eigenvalues --   -0.50461  -0.50362  -0.49539  -0.49374  -0.48957
 Alpha  occ. eigenvalues --   -0.48753  -0.48372  -0.48243  -0.48109  -0.47762
 Alpha  occ. eigenvalues --   -0.47493  -0.47153  -0.46907  -0.46703  -0.46617
 Alpha  occ. eigenvalues --   -0.46491  -0.46348  -0.46083  -0.45980  -0.45845
 Alpha  occ. eigenvalues --   -0.45576  -0.45454  -0.45249  -0.45130  -0.45019
 Alpha  occ. eigenvalues --   -0.44780  -0.44310  -0.44046  -0.43955  -0.43784
 Alpha  occ. eigenvalues --   -0.43647  -0.43563  -0.43157  -0.43052  -0.42709
 Alpha  occ. eigenvalues --   -0.42640  -0.42479  -0.42369  -0.42196  -0.42052
 Alpha  occ. eigenvalues --   -0.41924  -0.41761  -0.41669  -0.41381  -0.40857
 Alpha  occ. eigenvalues --   -0.40776  -0.40486  -0.40372  -0.40302  -0.40208
 Alpha  occ. eigenvalues --   -0.39879  -0.39681  -0.39546  -0.39256  -0.39068
 Alpha  occ. eigenvalues --   -0.38701  -0.38212  -0.38053  -0.38034  -0.37819
 Alpha  occ. eigenvalues --   -0.37489  -0.37342  -0.37190  -0.36821  -0.36671
 Alpha  occ. eigenvalues --   -0.36512  -0.36326  -0.36261  -0.36046  -0.35526
 Alpha  occ. eigenvalues --   -0.35381  -0.35057  -0.34718  -0.34558  -0.34441
 Alpha  occ. eigenvalues --   -0.34399  -0.33721  -0.33693  -0.33353  -0.33339
 Alpha  occ. eigenvalues --   -0.33085  -0.32535  -0.32474  -0.31589  -0.31113
 Alpha  occ. eigenvalues --   -0.30886  -0.30796  -0.29835  -0.29448  -0.28809
 Alpha  occ. eigenvalues --   -0.28098  -0.27768  -0.27622  -0.27438  -0.26870
 Alpha  occ. eigenvalues --   -0.26717  -0.26457  -0.22052  -0.21721
 Alpha virt. eigenvalues --   -0.07752  -0.06207  -0.01270   0.00454   0.01739
 Alpha virt. eigenvalues --    0.03031   0.03265   0.03738   0.04506   0.04697
 Alpha virt. eigenvalues --    0.05028   0.06165   0.07728   0.08014   0.08855

 Mulliken charges:
               1
     1  Mg   0.836294
     2  C    0.040423
     3  C   -0.185706
     4  C   -0.166564
     5  C   -0.161888
     6  N   -0.629306
     7  C    0.422891
     8  C   -0.214445
     9  C   -0.124627
    10  C    0.300953
    11  C   -0.302180
    12  C   -0.149211
    13  C   -0.259759
    14  C    0.607677
    15  O   -0.503526
    16  O   -0.472010
    17  N   -0.711683
    18  C    0.361429
    19  C   -0.009120
    20  C    0.001709
    21  C    0.287227
    22  C   -0.382933
    23  C    0.228872
    24  O   -0.401257
    25  N   -0.674222
    26  C    0.312105
    27  C   -0.105050
    28  C    0.059814
    29  C    0.246335
    30  C    0.257532
    31  C   -0.228894
    32  C   -0.315372
    33  N   -0.755580
    34  C    0.283829
    35  C    0.033241
    36  C   -0.029419
    37  C    0.340740
    38  C   -0.367692
    39  C    0.361358
    40  O   -0.386101
    41  C   -0.345871
    42  C    0.612931
    43  O   -0.461199
    44  O   -0.437335
    45  C   -0.093563
    46  C    0.030468
    47  C   -0.165375
    48  C    0.160029
    49  C   -0.380846
    50  C   -0.223777
    51  C   -0.171235
    52  C   -0.175862
    53  C   -0.037488
    54  C   -0.323130
    55  C   -0.199813
    56  C   -0.185090
    57  C   -0.148495
    58  C   -0.044184
    59  C   -0.313608
    60  C   -0.182932
    61  C   -0.165001
    62  C   -0.170819
    63  C   -0.071884
    64  C   -0.294685
    65  C   -0.288648
    66  H    0.093113
    67  H    0.144928
    68  H    0.092476
    69  H    0.120625
    70  H    0.113958
    71  H    0.067835
    72  H    0.103103
    73  H    0.143947
    74  H    0.114697
    75  H    0.094143
    76  H    0.134407
    77  H    0.140038
    78  H    0.144422
    79  H    0.141358
    80  H    0.099720
    81  H    0.046115
    82  H    0.105511
    83  H    0.121025
    84  H    0.104390
    85  H    0.116648
    86  H    0.103328
    87  H    0.146149
    88  H    0.148712
    89  H    0.087817
    90  H    0.146719
    91  H    0.117274
    92  H    0.113133
    93  H    0.076645
    94  H    0.148700
    95  H    0.098008
    96  H    0.130037
    97  H    0.082894
    98  H    0.104311
    99  H    0.099130
   100  H    0.106183
   101  H    0.107207
   102  H    0.077259
   103  H    0.062509
   104  H    0.100621
   105  H    0.122216
   106  H    0.087387
   107  H    0.083722
   108  H    0.086149
   109  H    0.095936
   110  H    0.098737
   111  H    0.058758
   112  H    0.094102
   113  H    0.054185
   114  H    0.112955
   115  H    0.088950
   116  H    0.113697
   117  H    0.072992
   118  H    0.075196
   119  H    0.094084
   120  H    0.093660
   121  H    0.090443
   122  H    0.070008
   123  H    0.093341
   124  H    0.107212
   125  H    0.096375
   126  H    0.077159
   127  H    0.103302
   128  H    0.088332
   129  H    0.100038
   130  H    0.135322
   131  H    0.150562
   132  H    0.127925
   133  O   -0.393947
   134  H    0.053632
 Sum of Mulliken charges =  -0.00000

 Dipole moment (field-independent basis, Debye):
    X=              2.0141    Y=             -7.9297    Z=             -1.6426  Tot=              8.3448
 Quadrupole moment (field-independent basis, Debye-Ang):
   XX=           -370.7153   YY=           -428.1202   ZZ=           -395.6014
   XY=             12.4377   XZ=             25.2049   YZ=            -34.8879

 Normal termination of Gaussian 16 at Mon Oct  7 19:13:01 2019.
