 Gaussian 16, Revision A.03,
 Gaussian 16:  ES64L-G16RevA.03 25-Dec-2016

 ----------------------------------------------------------------------
 # td=(NStates=1) iop(3/107=0140000000,3/108=0140000000) iop(3/107=0140
 000000,3/108=0140000000) CAM-B3LYP/6-31G(d,p)
 ----------------------------------------------------------------------

 --
 TD
 --
 Symbolic Z-matrix:
 Charge =  0 Multiplicity = 1

                         Standard orientation:
 ---------------------------------------------------------------------
 Center     Atomic      Atomic             Coordinates (Angstroms)
 Number     Number       Type             X           Y           Z
 ---------------------------------------------------------------------
      1         12           0       -5.685433    1.121596    0.143606
      2          6           0       -4.984999   -2.143333   -0.321298
      3          6           0       -3.343852    1.190437    2.698116
      4          6           0       -6.080736    4.557208    0.626537
      5          6           0       -7.974200    1.179360   -2.432028
      6          7           0       -4.376361   -0.369972    1.022518
      7          6           0       -4.258508   -1.625231    0.646670
      8          6           0       -3.156227   -2.251138    1.544842
      9          6           0       -2.965242   -1.333835    2.663875
     10          6           0       -3.542802   -0.051384    2.174729
     11          6           0       -3.471467   -1.781599    3.937648
     12          6           0       -2.016518   -2.600712    0.645886
     13          6           0       -0.950170   -3.399549    1.313533
     14          6           0        0.295169   -3.869505    0.578628
     15          8           0        0.568229   -3.300674   -0.473601
     16          8           0        1.151717   -4.670858    1.225445
     17          7           0       -4.901444    2.569733    1.408496
     18          6           0       -3.999690    2.403267    2.382987
     19          6           0       -3.838949    3.592937    3.244210
     20          6           0       -4.534934    4.552267    2.596227
     21          6           0       -5.253268    3.898620    1.483886
     22          6           0       -2.865361    3.794295    4.463847
     23          6           0       -4.787829    5.972020    2.920281
     24          8           0       -4.163967    6.444864    3.907842
     25          7           0       -6.837532    2.590608   -0.796168
     26          6           0       -6.909275    3.933039   -0.456580
     27          6           0       -7.923609    4.603179   -1.169092
     28          6           0       -8.489236    3.586558   -2.050500
     29          6           0       -7.766048    2.371780   -1.747142
     30          6           0       -8.364954    5.982796   -1.136052
     31          6           0       -9.477948    3.723690   -3.182346
     32          6           0       -8.880148    4.038965   -4.493785
     33          7           0       -6.389050   -0.170097   -1.171336
     34          6           0       -7.331310   -0.060270   -2.134566
     35          6           0       -7.493779   -1.285984   -2.800888
     36          6           0       -6.630597   -2.162418   -2.097950
     37          6           0       -6.023654   -1.386009   -1.100517
     38          6           0       -8.482593   -1.639666   -3.818176
     39          6           0       -6.051862   -3.588132   -2.039850
     40          8           0       -6.396240   -4.523696   -2.667224
     41          6           0       -4.959110   -3.576212   -0.854134
     42          6           0       -5.350508   -4.636606    0.077795
     43          8           0       -5.828388   -4.476222    1.221070
     44          8           0       -5.119633   -5.906748   -0.336755
     45          6           0       -5.371317   -6.964354    0.599495
     46          6           0        2.371708   -4.930689    0.605476
     47          6           0        3.489573   -4.104130    0.983528
     48          6           0        4.021931   -3.075455    0.114531
     49          6           0        3.543992   -2.851223   -1.303993
     50          6           0        5.234356   -2.409636    0.715822
     51          6           0        6.513531   -2.724560    0.073306
     52          6           0        7.683397   -1.838194    0.543870
     53          6           0        9.121515   -2.033976   -0.003960
     54          6           0        9.596019   -3.530316    0.141352
     55          6           0       10.030199   -0.801324    0.439942
     56          6           0       11.370121   -0.899342   -0.269948
     57          6           0       12.143859    0.254030    0.117906
     58          6           0       13.540569    0.491771   -0.503806
     59          6           0       14.583490   -0.615899   -0.373050
     60          6           0       14.112515    1.893258   -0.057455
     61          6           0       15.352949    2.233740   -0.927565
     62          6           0       16.004040    3.609595   -0.583247
     63          6           0       17.316844    3.892427   -1.320585
     64          6           0       17.210443    3.827933   -2.832922
     65          6           0       17.970068    5.159909   -0.979201
     66          1           0       -2.666642    1.083161    3.632712
     67          1           0       -6.480231    5.574225    0.754005
     68          1           0       -8.778926    0.986105   -3.089945
     69          1           0       -3.707950   -3.152516    1.907378
     70          1           0       -1.866225   -1.269151    2.957307
     71          1           0       -2.873881   -2.626382    4.126027
     72          1           0       -3.331531   -1.147431    4.756190
     73          1           0       -4.548438   -1.990741    4.113341
     74          1           0       -2.384087   -3.101797   -0.305035
     75          1           0       -1.520505   -1.572568    0.545835
     76          1           0       -0.446219   -3.143448    2.337157
     77          1           0       -1.333229   -4.510377    1.648855
     78          1           0       -1.733169    4.178778    4.055458
     79          1           0       -3.376988    4.793298    4.889020
     80          1           0       -2.870767    2.909884    5.171893
     81          1           0       -5.666842    6.533300    2.380355
     82          1           0      -10.059431    2.796674   -3.235860
     83          1           0      -10.086141    4.662437   -2.891251
     84          1           0       -9.672464    4.322270   -5.335733
     85          1           0       -8.131172    4.938485   -4.466888
     86          1           0       -8.286981    3.125888   -4.890908
     87          1           0       -8.340473   -0.775742   -4.731540
     88          1           0       -8.601502   -2.762046   -4.019811
     89          1           0       -9.525803   -1.577138   -3.386211
     90          1           0       -4.219257   -3.861654   -1.413708
     91          1           0        2.554438   -6.013450    1.098026
     92          1           0        2.070492   -5.034647   -0.350779
     93          1           0        3.815402   -4.288757    1.862163
     94          1           0        2.524889   -3.124300   -1.307950
     95          1           0        3.600175   -1.697695   -1.550835
     96          1           0        4.234894   -3.032355   -2.131307
     97          1           0        5.110632   -1.389396    0.477901
     98          1           0        5.533953   -2.585382    1.707887
     99          1           0        6.614883   -3.869387    0.231971
    100          1           0        6.300321   -2.749620   -1.000734
    101          1           0        7.433675   -0.741803    0.496512
    102          1           0        7.735253   -1.857040    1.723518
    103          1           0        9.086798   -1.889077   -1.071535
    104          1           0        8.984812   -4.353426   -0.215384
    105          1           0       10.707621   -3.746605   -0.219430
    106          1           0        9.613013   -3.690446    1.336185
    107          1           0        9.506151    0.207596    0.276773
    108          1           0       10.350709   -1.129403    1.578394
    109          1           0       11.725704   -1.870537    0.068043
    110          1           0       11.242751   -1.039462   -1.399577
    111          1           0       11.756129    1.262082   -0.131094
    112          1           0       12.403558    0.226948    1.172784
    113          1           0       13.251109    0.623244   -1.514204
    114          1           0       14.801278   -0.995828    0.789570
    115          1           0       14.153440   -1.505023   -0.949072
    116          1           0       15.626003   -0.494424   -0.873340
    117          1           0       13.509362    2.604411   -0.325268
    118          1           0       14.494733    1.680101    1.126470
    119          1           0       16.090135    1.508031   -0.735056
    120          1           0       15.177772    2.318134   -2.029686
    121          1           0       15.318542    4.495704   -0.634050
    122          1           0       16.580819    3.561358    0.529914
    123          1           0       18.212652    3.177409   -1.184955
    124          1           0       16.518344    4.482076   -3.260648
    125          1           0       18.062828    4.062745   -3.511490
    126          1           0       16.890776    2.917607   -3.145275
    127          1           0       18.131073    5.239847    0.155642
    128          1           0       18.878197    5.301808   -1.380021
    129          1           0       17.451205    6.097476   -1.511668
    130          1           0       -5.080380   -7.957593    0.246925
    131          1           0       -6.571607   -6.945693    0.860049
    132          1           0       -4.824402   -6.683666    1.641649
    133          8           0       -7.945851    6.805807   -0.363704
    134          1           0       -9.293820    6.289676   -1.593824
 ---------------------------------------------------------------------

 SCF Done:  E(RCAM-B3LYP) =  -3043.42440765     A.U. after   15 cycles

 Excitation energies and oscillator strengths:

 Excited State   1:      Singlet-A      2.1885 eV  566.54 nm  f=0.1430  <S**2>=0.000
     243 -> 245        0.27290
     243 -> 246       -0.26862
     244 -> 245        0.55701
     244 -> 246        0.18221
 This state for optimization and/or second-order correction.
 Total Energy, E(TD-HF/TD-DFT) =  -3043.34398325
 Copying the excited state density for this state as the 1-particle RhoCI density.

 The electronic state is 1-A.
 Alpha  occ. eigenvalues --  -46.81838 -19.22456 -19.22000 -19.18223 -19.18157
 Alpha  occ. eigenvalues --  -19.16954 -19.16259 -19.16181 -14.37831 -14.37661
 Alpha  occ. eigenvalues --  -14.37008 -14.36144 -10.34980 -10.34729 -10.32367
 Alpha  occ. eigenvalues --  -10.32035 -10.30026 -10.29104 -10.27844 -10.27611
 Alpha  occ. eigenvalues --  -10.27097 -10.26639 -10.26312 -10.25867 -10.25797
 Alpha  occ. eigenvalues --  -10.25650 -10.25565 -10.25430 -10.25281 -10.25047
 Alpha  occ. eigenvalues --  -10.24930 -10.24903 -10.24894 -10.24634 -10.24623
 Alpha  occ. eigenvalues --  -10.24426 -10.24358 -10.24168 -10.24157 -10.23881
 Alpha  occ. eigenvalues --  -10.23751 -10.23723 -10.23422 -10.23377 -10.23177
 Alpha  occ. eigenvalues --  -10.23095 -10.23065 -10.22659 -10.22417 -10.22399
 Alpha  occ. eigenvalues --  -10.22374 -10.22374 -10.21950 -10.21417 -10.21393
 Alpha  occ. eigenvalues --  -10.21293 -10.21137 -10.20955 -10.20791 -10.20788
 Alpha  occ. eigenvalues --  -10.20556 -10.20350 -10.20146 -10.19911 -10.19621
 Alpha  occ. eigenvalues --  -10.17982  -3.10364  -1.85311  -1.84832  -1.84769
 Alpha  occ. eigenvalues --   -1.14323  -1.12862  -1.09950  -1.07885  -1.05583
 Alpha  occ. eigenvalues --   -1.04416  -1.02978  -1.02441  -1.01115  -0.99573
 Alpha  occ. eigenvalues --   -0.99207  -0.88449  -0.87123  -0.86275  -0.85717
 Alpha  occ. eigenvalues --   -0.85391  -0.84804  -0.84468  -0.84342  -0.83822
 Alpha  occ. eigenvalues --   -0.83664  -0.83070  -0.82414  -0.81337  -0.80274
 Alpha  occ. eigenvalues --   -0.79314  -0.78899  -0.77499  -0.77216  -0.76540
 Alpha  occ. eigenvalues --   -0.75568  -0.74811  -0.74158  -0.72867  -0.72079
 Alpha  occ. eigenvalues --   -0.71648  -0.71217  -0.70014  -0.69977  -0.69693
 Alpha  occ. eigenvalues --   -0.69602  -0.69241  -0.67626  -0.66909  -0.66231
 Alpha  occ. eigenvalues --   -0.65308  -0.64776  -0.63825  -0.62539  -0.62001
 Alpha  occ. eigenvalues --   -0.61770  -0.60730  -0.60355  -0.59249  -0.58958
 Alpha  occ. eigenvalues --   -0.58636  -0.58068  -0.57927  -0.57727  -0.57566
 Alpha  occ. eigenvalues --   -0.57047  -0.56618  -0.55915  -0.55493  -0.55279
 Alpha  occ. eigenvalues --   -0.54677  -0.53723  -0.53133  -0.52801  -0.52655
 Alpha  occ. eigenvalues --   -0.52230  -0.52082  -0.51646  -0.51346  -0.51054
 Alpha  occ. eigenvalues --   -0.50681  -0.50408  -0.50290  -0.49889  -0.49196
 Alpha  occ. eigenvalues --   -0.48549  -0.48511  -0.48287  -0.48130  -0.47880
 Alpha  occ. eigenvalues --   -0.47596  -0.47413  -0.47239  -0.47128  -0.46992
 Alpha  occ. eigenvalues --   -0.46825  -0.46670  -0.46362  -0.46172  -0.45852
 Alpha  occ. eigenvalues --   -0.45718  -0.45576  -0.45435  -0.45133  -0.45090
 Alpha  occ. eigenvalues --   -0.44956  -0.44543  -0.44449  -0.44145  -0.43889
 Alpha  occ. eigenvalues --   -0.43521  -0.43383  -0.43347  -0.43245  -0.42837
 Alpha  occ. eigenvalues --   -0.42670  -0.42527  -0.42435  -0.42143  -0.41893
 Alpha  occ. eigenvalues --   -0.41732  -0.41616  -0.41490  -0.41138  -0.40725
 Alpha  occ. eigenvalues --   -0.40539  -0.40355  -0.40312  -0.39826  -0.39574
 Alpha  occ. eigenvalues --   -0.39462  -0.39437  -0.39222  -0.39003  -0.38616
 Alpha  occ. eigenvalues --   -0.38534  -0.38519  -0.38169  -0.37805  -0.37647
 Alpha  occ. eigenvalues --   -0.37484  -0.37370  -0.37239  -0.36971  -0.36908
 Alpha  occ. eigenvalues --   -0.36780  -0.36610  -0.36250  -0.36113  -0.35850
 Alpha  occ. eigenvalues --   -0.35695  -0.35622  -0.35241  -0.35099  -0.34612
 Alpha  occ. eigenvalues --   -0.34147  -0.33760  -0.33207  -0.32897  -0.32252
 Alpha  occ. eigenvalues --   -0.32189  -0.32047  -0.31984  -0.31890  -0.31717
 Alpha  occ. eigenvalues --   -0.31534  -0.30516  -0.30101  -0.29925  -0.29481
 Alpha  occ. eigenvalues --   -0.29422  -0.28414  -0.28359  -0.28064  -0.27875
 Alpha  occ. eigenvalues --   -0.27642  -0.25887  -0.23222  -0.22246
 Alpha virt. eigenvalues --   -0.08526  -0.06899  -0.01941  -0.00768   0.00649
 Alpha virt. eigenvalues --    0.01533   0.03083   0.03239   0.04024   0.04391
 Alpha virt. eigenvalues --    0.05087   0.06130   0.07823   0.08853   0.09397

 Mulliken charges:
               1
     1  Mg   0.823408
     2  C    0.039147
     3  C   -0.208121
     4  C   -0.181019
     5  C   -0.134670
     6  N   -0.670677
     7  C    0.351875
     8  C   -0.146454
     9  C   -0.148411
    10  C    0.344354
    11  C   -0.311187
    12  C   -0.147523
    13  C   -0.256490
    14  C    0.580928
    15  O   -0.474393
    16  O   -0.442413
    17  N   -0.682494
    18  C    0.318647
    19  C    0.027424
    20  C    0.002540
    21  C    0.325081
    22  C   -0.356317
    23  C    0.235496
    24  O   -0.426986
    25  N   -0.692906
    26  C    0.261416
    27  C   -0.025091
    28  C    0.013036
    29  C    0.317560
    30  C    0.228127
    31  C   -0.228678
    32  C   -0.287935
    33  N   -0.740551
    34  C    0.251863
    35  C    0.025986
    36  C   -0.030785
    37  C    0.356276
    38  C   -0.387421
    39  C    0.343534
    40  O   -0.407828
    41  C   -0.303310
    42  C    0.635031
    43  O   -0.501030
    44  O   -0.443565
    45  C   -0.069500
    46  C    0.005622
    47  C   -0.089479
    48  C    0.112968
    49  C   -0.388489
    50  C   -0.207940
    51  C   -0.174820
    52  C   -0.170261
    53  C   -0.047646
    54  C   -0.317855
    55  C   -0.173276
    56  C   -0.166508
    57  C   -0.152032
    58  C   -0.074286
    59  C   -0.306018
    60  C   -0.141605
    61  C   -0.186507
    62  C   -0.157305
    63  C   -0.044139
    64  C   -0.330560
    65  C   -0.286643
    66  H    0.086193
    67  H    0.131294
    68  H    0.091598
    69  H    0.125315
    70  H    0.103168
    71  H    0.116004
    72  H    0.111631
    73  H    0.121105
    74  H    0.123624
    75  H    0.118126
    76  H    0.134166
    77  H    0.095531
    78  H    0.115909
    79  H    0.161062
    80  H    0.113738
    81  H    0.113371
    82  H    0.114271
    83  H    0.103150
    84  H    0.098345
    85  H    0.106334
    86  H    0.098822
    87  H    0.101300
    88  H    0.147692
    89  H    0.130173
    90  H    0.157510
    91  H    0.080574
    92  H    0.114405
    93  H    0.072274
    94  H    0.171291
    95  H    0.090396
    96  H    0.130011
    97  H    0.097191
    98  H    0.104629
    99  H    0.078290
   100  H    0.085616
   101  H    0.085915
   102  H    0.068983
   103  H    0.091766
   104  H    0.124829
   105  H    0.089008
   106  H    0.075924
   107  H    0.096733
   108  H    0.074356
   109  H    0.107633
   110  H    0.075994
   111  H    0.084932
   112  H    0.090319
   113  H    0.086148
   114  H    0.071862
   115  H    0.094970
   116  H    0.102236
   117  H    0.094299
   118  H    0.066965
   119  H    0.106143
   120  H    0.093099
   121  H    0.092218
   122  H    0.057404
   123  H    0.080215
   124  H    0.098047
   125  H    0.088401
   126  H    0.105149
   127  H    0.080202
   128  H    0.114474
   129  H    0.066306
   130  H    0.132782
   131  H    0.112787
   132  H    0.111705
   133  O   -0.416765
   134  H    0.071656
 Sum of Mulliken charges =  -0.00000

 Dipole moment (field-independent basis, Debye):
    X=              0.6324    Y=             -3.4070    Z=             -1.1822  Tot=              3.6613
 Quadrupole moment (field-independent basis, Debye-Ang):
   XX=           -377.4417   YY=           -438.8879   ZZ=           -394.7719
   XY=             -1.3366   XZ=             12.2067   YZ=            -31.6721

 Normal termination of Gaussian 16 at Wed Oct  9 16:13:58 2019.
