 Gaussian 16, Revision A.03,
 Gaussian 16:  ES64L-G16RevA.03 25-Dec-2016

 ----------------------------------------------------------------------
 # td=(NStates=1) iop(3/107=0140000000,3/108=0140000000) iop(3/107=0140
 000000,3/108=0140000000) CAM-B3LYP/6-31G(d,p)
 ----------------------------------------------------------------------

 --
 TD
 --
 Symbolic Z-matrix:
 Charge =  0 Multiplicity = 1

                         Standard orientation:
 ---------------------------------------------------------------------
 Center     Atomic      Atomic             Coordinates (Angstroms)
 Number     Number       Type             X           Y           Z
 ---------------------------------------------------------------------
      1         12           0       -5.571930    1.211089    0.066209
      2          6           0       -5.015221   -2.127456   -0.387155
      3          6           0       -3.431191    1.213123    2.727419
      4          6           0       -6.092044    4.606362    0.520117
      5          6           0       -8.082868    1.064044   -2.391818
      6          7           0       -4.417764   -0.214091    1.058530
      7          6           0       -4.266846   -1.598218    0.673798
      8          6           0       -3.265210   -2.323526    1.565667
      9          6           0       -2.861372   -1.274103    2.577403
     10          6           0       -3.576661    0.017061    2.038544
     11          6           0       -3.478028   -1.625934    4.013083
     12          6           0       -1.940173   -2.671755    0.689262
     13          6           0       -0.967927   -3.558984    1.466101
     14          6           0        0.150932   -3.858207    0.633193
     15          8           0        0.380529   -3.350923   -0.481859
     16          8           0        1.072999   -4.716417    1.208838
     17          7           0       -4.918695    2.578363    1.430316
     18          6           0       -3.990897    2.452896    2.360532
     19          6           0       -3.788873    3.644084    3.178356
     20          6           0       -4.584721    4.633056    2.633380
     21          6           0       -5.277271    4.017923    1.464522
     22          6           0       -2.938199    3.816002    4.439740
     23          6           0       -4.864897    6.056786    2.954846
     24          8           0       -4.191417    6.603531    3.891667
     25          7           0       -6.840536    2.662928   -0.773831
     26          6           0       -6.808817    3.980863   -0.554519
     27          6           0       -7.873601    4.560781   -1.310334
     28          6           0       -8.492231    3.537559   -2.120936
     29          6           0       -7.830935    2.396302   -1.712390
     30          6           0       -8.333509    5.906002   -1.293838
     31          6           0       -9.614742    3.715060   -3.161012
     32          6           0       -8.933948    3.957950   -4.517545
     33          7           0       -6.323893   -0.145565   -1.149501
     34          6           0       -7.418014   -0.014102   -2.050458
     35          6           0       -7.517332   -1.424906   -2.645482
     36          6           0       -6.618817   -2.148360   -2.105730
     37          6           0       -5.903706   -1.390594   -1.098256
     38          6           0       -8.559485   -1.777710   -3.716458
     39          6           0       -6.215262   -3.594390   -1.898575
     40          8           0       -6.679778   -4.571968   -2.405880
     41          6           0       -4.989667   -3.535010   -0.870585
     42          6           0       -5.156100   -4.658073    0.195531
     43          8           0       -5.698341   -4.482488    1.258018
     44          8           0       -4.782747   -5.872412   -0.318120
     45          6           0       -5.253650   -6.969130    0.527189
     46          6           0        2.274668   -5.085109    0.540697
     47          6           0        3.352286   -4.081283    0.941713
     48          6           0        4.038003   -3.162159    0.157733
     49          6           0        3.668614   -2.993470   -1.226520
     50          6           0        5.138975   -2.458823    0.765515
     51          6           0        6.469854   -2.546015   -0.085767
     52          6           0        7.636865   -1.719641    0.635019
     53          6           0        9.042802   -1.975397   -0.058524
     54          6           0        9.518596   -3.381335    0.145424
     55          6           0       10.058479   -0.951165    0.479178
     56          6           0       11.413171   -0.843916   -0.333825
     57          6           0       12.279646    0.238932    0.106327
     58          6           0       13.587928    0.420019   -0.609916
     59          6           0       14.526171   -0.737906   -0.407909
     60          6           0       14.294890    1.839558   -0.172645
     61          6           0       15.591598    2.124638   -0.964952
     62          6           0       16.093202    3.531198   -0.683172
     63          6           0       17.397271    3.877423   -1.369875
     64          6           0       17.226502    4.054247   -2.813347
     65          6           0       18.035925    5.132583   -0.629353
     66          1           0       -2.751269    1.074776    3.651494
     67          1           0       -6.322342    5.582887    0.445971
     68          1           0       -8.913714    0.881764   -3.189626
     69          1           0       -3.576786   -3.292925    1.886783
     70          1           0       -1.779773   -1.262341    2.776362
     71          1           0       -2.799205   -2.553338    4.396914
     72          1           0       -3.244528   -0.743209    4.688682
     73          1           0       -4.590864   -2.135872    4.028051
     74          1           0       -2.123892   -3.211094   -0.188971
     75          1           0       -1.467564   -1.894754    0.347470
     76          1           0       -0.543413   -2.996476    2.336426
     77          1           0       -1.575989   -4.388968    1.827658
     78          1           0       -1.751131    3.389672    4.253057
     79          1           0       -2.914214    4.845668    4.710955
     80          1           0       -3.380354    3.287916    5.239992
     81          1           0       -5.520434    6.658597    2.391505
     82          1           0      -10.325952    3.005244   -3.117069
     83          1           0      -10.113517    4.887447   -3.062701
     84          1           0       -9.903449    4.007495   -5.220542
     85          1           0       -8.300504    4.817573   -4.626153
     86          1           0       -8.390547    2.919999   -4.760017
     87          1           0       -8.013568   -1.602200   -4.584415
     88          1           0       -8.610168   -2.891466   -3.542187
     89          1           0       -9.697602   -1.255560   -3.711277
     90          1           0       -4.030855   -3.676242   -1.435355
     91          1           0        2.604315   -6.105592    0.922004
     92          1           0        2.210791   -4.922618   -0.508896
     93          1           0        3.647710   -4.521320    1.949802
     94          1           0        2.696396   -3.261661   -1.534601
     95          1           0        3.843832   -2.022270   -1.440228
     96          1           0        4.346513   -3.696248   -1.783122
     97          1           0        4.794317   -1.324891    0.881811
     98          1           0        5.365944   -2.568108    1.895556
     99          1           0        6.729223   -3.735691   -0.049851
    100          1           0        6.439662   -2.300853   -1.079668
    101          1           0        7.465689   -0.746130    0.740269
    102          1           0        7.635743   -2.152304    1.663645
    103          1           0        8.759467   -1.756961   -1.144896
    104          1           0        8.856340   -4.047530   -0.357626
    105          1           0       10.461041   -3.600233   -0.182642
    106          1           0        9.709130   -3.583624    1.189171
    107          1           0        9.669856    0.029322    0.456303
    108          1           0       10.301556   -1.108401    1.410474
    109          1           0       11.836513   -1.862494   -0.323036
    110          1           0       11.098482   -0.694710   -1.488019
    111          1           0       11.521694    1.124946    0.022514
    112          1           0       12.654309    0.414589    1.151652
    113          1           0       13.330414    0.613494   -1.778051
    114          1           0       14.758383   -1.121926    0.764666
    115          1           0       14.153494   -1.803664   -0.885119
    116          1           0       15.543737   -0.568897   -0.775954
    117          1           0       13.669532    2.552493   -0.354915
    118          1           0       14.376989    1.982859    0.667762
    119          1           0       16.392355    1.685804   -0.770472
    120          1           0       15.725563    2.025042   -2.067920
    121          1           0       15.277049    4.298672   -1.010307
    122          1           0       16.238263    3.543026    0.397735
    123          1           0       18.089921    3.095473   -1.130702
    124          1           0       16.419661    4.770755   -3.087540
    125          1           0       18.218365    4.484940   -3.553189
    126          1           0       16.934365    3.107284   -3.281937
    127          1           0       18.166312    5.062051    0.365449
    128          1           0       18.992737    5.466363   -1.125486
    129          1           0       17.171461    5.897309   -0.702384
    130          1           0       -4.726614   -8.054285    0.026621
    131          1           0       -6.509270   -7.226550    0.582310
    132          1           0       -4.889500   -6.782261    1.728150
    133          8           0       -7.949083    6.806448   -0.424443
    134          1           0       -9.313008    6.082899   -1.957567
 ---------------------------------------------------------------------

 SCF Done:  E(RCAM-B3LYP) =  -3043.33228037     A.U. after   16 cycles

 Excitation energies and oscillator strengths:

 Excited State   1:      Singlet-A      2.2370 eV  554.24 nm  f=0.0607  <S**2>=0.000
     243 -> 245       -0.14109
     243 -> 246        0.33570
     244 -> 245        0.56081
     244 -> 246        0.20688
 This state for optimization and/or second-order correction.
 Total Energy, E(TD-HF/TD-DFT) =  -3043.25007214
 Copying the excited state density for this state as the 1-particle RhoCI density.

 The electronic state is 1-A.
 Alpha  occ. eigenvalues --  -46.80886 -19.25001 -19.21744 -19.19429 -19.19268
 Alpha  occ. eigenvalues --  -19.17527 -19.17081 -19.14935 -14.39211 -14.37243
 Alpha  occ. eigenvalues --  -14.37130 -14.36313 -10.36985 -10.35652 -10.33501
 Alpha  occ. eigenvalues --  -10.32879 -10.30632 -10.29305 -10.29193 -10.27646
 Alpha  occ. eigenvalues --  -10.27092 -10.26993 -10.26748 -10.26716 -10.26675
 Alpha  occ. eigenvalues --  -10.26370 -10.25699 -10.25632 -10.25596 -10.25363
 Alpha  occ. eigenvalues --  -10.25340 -10.25135 -10.25054 -10.24926 -10.24603
 Alpha  occ. eigenvalues --  -10.24598 -10.24328 -10.24143 -10.24096 -10.23420
 Alpha  occ. eigenvalues --  -10.23268 -10.23143 -10.23108 -10.23026 -10.22796
 Alpha  occ. eigenvalues --  -10.22715 -10.22704 -10.22613 -10.22545 -10.22438
 Alpha  occ. eigenvalues --  -10.22158 -10.22128 -10.21878 -10.21540 -10.21440
 Alpha  occ. eigenvalues --  -10.21300 -10.21187 -10.20990 -10.20631 -10.20561
 Alpha  occ. eigenvalues --  -10.19962 -10.19919 -10.19138 -10.18858 -10.18821
 Alpha  occ. eigenvalues --  -10.18124  -3.09615  -1.84549  -1.84079  -1.84037
 Alpha  occ. eigenvalues --   -1.14705  -1.12153  -1.10073  -1.06760  -1.03783
 Alpha  occ. eigenvalues --   -1.03719  -1.01327  -1.00291  -1.00076  -0.99014
 Alpha  occ. eigenvalues --   -0.98232  -0.89837  -0.87304  -0.86394  -0.86143
 Alpha  occ. eigenvalues --   -0.85373  -0.85011  -0.84575  -0.83554  -0.83448
 Alpha  occ. eigenvalues --   -0.82972  -0.82834  -0.82620  -0.80604  -0.80245
 Alpha  occ. eigenvalues --   -0.78725  -0.78171  -0.77326  -0.77078  -0.76844
 Alpha  occ. eigenvalues --   -0.75771  -0.75015  -0.74018  -0.72569  -0.72464
 Alpha  occ. eigenvalues --   -0.72062  -0.71851  -0.71017  -0.70862  -0.70006
 Alpha  occ. eigenvalues --   -0.68973  -0.68814  -0.67131  -0.66899  -0.66049
 Alpha  occ. eigenvalues --   -0.65079  -0.64633  -0.63764  -0.63449  -0.62756
 Alpha  occ. eigenvalues --   -0.62186  -0.62051  -0.61130  -0.59919  -0.59278
 Alpha  occ. eigenvalues --   -0.58853  -0.58668  -0.57959  -0.57609  -0.57314
 Alpha  occ. eigenvalues --   -0.57086  -0.56144  -0.55562  -0.55554  -0.55170
 Alpha  occ. eigenvalues --   -0.54404  -0.53951  -0.53388  -0.53084  -0.52602
 Alpha  occ. eigenvalues --   -0.51661  -0.51621  -0.51538  -0.51181  -0.50613
 Alpha  occ. eigenvalues --   -0.50201  -0.50131  -0.49715  -0.49526  -0.49162
 Alpha  occ. eigenvalues --   -0.49094  -0.48650  -0.48330  -0.48015  -0.47898
 Alpha  occ. eigenvalues --   -0.47610  -0.47520  -0.47443  -0.47035  -0.46927
 Alpha  occ. eigenvalues --   -0.46790  -0.46538  -0.46447  -0.46253  -0.46013
 Alpha  occ. eigenvalues --   -0.45683  -0.45592  -0.45411  -0.45066  -0.44717
 Alpha  occ. eigenvalues --   -0.44388  -0.44381  -0.44158  -0.43755  -0.43669
 Alpha  occ. eigenvalues --   -0.43491  -0.43381  -0.43296  -0.43096  -0.43054
 Alpha  occ. eigenvalues --   -0.42887  -0.42785  -0.42399  -0.42143  -0.41780
 Alpha  occ. eigenvalues --   -0.41636  -0.41407  -0.41097  -0.41056  -0.40856
 Alpha  occ. eigenvalues --   -0.40797  -0.40633  -0.40315  -0.40105  -0.39852
 Alpha  occ. eigenvalues --   -0.39791  -0.39549  -0.39349  -0.39228  -0.39193
 Alpha  occ. eigenvalues --   -0.39143  -0.38753  -0.38607  -0.38519  -0.38383
 Alpha  occ. eigenvalues --   -0.38273  -0.37724  -0.37632  -0.37563  -0.37065
 Alpha  occ. eigenvalues --   -0.37016  -0.36735  -0.36055  -0.36011  -0.35774
 Alpha  occ. eigenvalues --   -0.35710  -0.35566  -0.35270  -0.34841  -0.34763
 Alpha  occ. eigenvalues --   -0.34579  -0.34416  -0.34270  -0.34193  -0.34055
 Alpha  occ. eigenvalues --   -0.32867  -0.32733  -0.32213  -0.32003  -0.31992
 Alpha  occ. eigenvalues --   -0.31716  -0.31227  -0.30937  -0.30833  -0.30330
 Alpha  occ. eigenvalues --   -0.29667  -0.29179  -0.28090  -0.27862  -0.26262
 Alpha  occ. eigenvalues --   -0.25918  -0.25684  -0.23502  -0.21970
 Alpha virt. eigenvalues --   -0.07453  -0.07178  -0.02062  -0.01395   0.00497
 Alpha virt. eigenvalues --    0.01528   0.01770   0.03328   0.03613   0.03902
 Alpha virt. eigenvalues --    0.05053   0.05394   0.07432   0.07709   0.08432

 Mulliken charges:
               1
     1  Mg   0.818936
     2  C    0.085202
     3  C   -0.204792
     4  C   -0.129676
     5  C   -0.175258
     6  N   -0.641567
     7  C    0.305343
     8  C   -0.149213
     9  C   -0.142712
    10  C    0.379623
    11  C   -0.299771
    12  C   -0.188158
    13  C   -0.272709
    14  C    0.618853
    15  O   -0.485844
    16  O   -0.472102
    17  N   -0.671174
    18  C    0.339681
    19  C    0.027536
    20  C    0.016751
    21  C    0.247266
    22  C   -0.369639
    23  C    0.237735
    24  O   -0.430697
    25  N   -0.678291
    26  C    0.285879
    27  C   -0.033701
    28  C    0.054510
    29  C    0.239461
    30  C    0.193332
    31  C   -0.224708
    32  C   -0.285373
    33  N   -0.795104
    34  C    0.330121
    35  C   -0.058809
    36  C    0.049500
    37  C    0.352180
    38  C   -0.375184
    39  C    0.397952
    40  O   -0.425857
    41  C   -0.328158
    42  C    0.620369
    43  O   -0.452063
    44  O   -0.432883
    45  C   -0.068991
    46  C    0.000431
    47  C   -0.142646
    48  C    0.146096
    49  C   -0.376234
    50  C   -0.228458
    51  C   -0.189379
    52  C   -0.169489
    53  C   -0.060507
    54  C   -0.308460
    55  C   -0.174772
    56  C   -0.182424
    57  C   -0.145930
    58  C   -0.051243
    59  C   -0.292101
    60  C   -0.130625
    61  C   -0.173576
    62  C   -0.184981
    63  C   -0.062977
    64  C   -0.284687
    65  C   -0.307271
    66  H    0.079240
    67  H    0.111515
    68  H    0.104443
    69  H    0.122118
    70  H    0.114884
    71  H    0.081241
    72  H    0.114838
    73  H    0.122117
    74  H    0.116378
    75  H    0.132804
    76  H    0.144453
    77  H    0.141881
    78  H    0.084314
    79  H    0.166185
    80  H    0.136557
    81  H    0.126850
    82  H    0.118510
    83  H    0.082903
    84  H    0.086798
    85  H    0.136008
    86  H    0.086521
    87  H    0.154999
    88  H    0.146993
    89  H    0.108295
    90  H    0.165731
    91  H    0.113678
    92  H    0.113941
    93  H    0.069756
    94  H    0.154530
    95  H    0.117438
    96  H    0.116957
    97  H    0.079828
    98  H    0.104861
    99  H    0.079357
   100  H    0.110917
   101  H    0.100235
   102  H    0.082808
   103  H    0.069814
   104  H    0.102633
   105  H    0.108775
   106  H    0.100265
   107  H    0.083408
   108  H    0.103570
   109  H    0.090992
   110  H    0.070986
   111  H    0.070842
   112  H    0.085430
   113  H    0.065404
   114  H    0.066236
   115  H    0.081730
   116  H    0.115079
   117  H    0.097771
   118  H    0.076036
   119  H    0.100839
   120  H    0.074808
   121  H    0.069794
   122  H    0.086940
   123  H    0.090787
   124  H    0.104779
   125  H    0.055035
   126  H    0.108117
   127  H    0.111421
   128  H    0.094152
   129  H    0.083613
   130  H    0.102648
   131  H    0.120194
   132  H    0.115963
   133  O   -0.482634
   134  H    0.055136
 Sum of Mulliken charges =  -0.00000

 Dipole moment (field-independent basis, Debye):
    X=              3.0580    Y=             -7.9617    Z=             -1.1169  Tot=              8.6016
 Quadrupole moment (field-independent basis, Debye-Ang):
   XX=           -391.8924   YY=           -450.9019   ZZ=           -394.4158
   XY=             30.4771   XZ=             31.4108   YZ=            -27.3404

 Normal termination of Gaussian 16 at Thu Oct 10 21:11:21 2019.
