 Gaussian 16, Revision A.03,
 Gaussian 16:  ES64L-G16RevA.03 25-Dec-2016

 ----------------------------------------------------------------------
 # td=(NStates=1) iop(3/107=0140000000,3/108=0140000000) iop(3/107=0140
 000000,3/108=0140000000) CAM-B3LYP/6-31G(d,p)
 ----------------------------------------------------------------------

 --
 TD
 --
 Symbolic Z-matrix:
 Charge =  0 Multiplicity = 1

                         Standard orientation:
 ---------------------------------------------------------------------
 Center     Atomic      Atomic             Coordinates (Angstroms)
 Number     Number       Type             X           Y           Z
 ---------------------------------------------------------------------
      1         12           0       -5.596577    1.265326    0.108004
      2          6           0       -5.082105   -2.093514   -0.359931
      3          6           0       -3.409454    1.191221    2.760767
      4          6           0       -6.185041    4.518945    0.718452
      5          6           0       -8.047122    1.199432   -2.417201
      6          7           0       -4.344640   -0.320162    0.957734
      7          6           0       -4.274077   -1.662693    0.634756
      8          6           0       -3.167472   -2.320871    1.409173
      9          6           0       -2.843961   -1.311855    2.551439
     10          6           0       -3.557743   -0.090496    2.076182
     11          6           0       -3.470036   -1.748831    3.835094
     12          6           0       -1.946259   -2.648460    0.618825
     13          6           0       -0.900147   -3.491529    1.449417
     14          6           0        0.285338   -3.840298    0.590716
     15          8           0        0.482214   -3.415668   -0.533940
     16          8           0        1.028828   -4.721320    1.282889
     17          7           0       -4.885928    2.691767    1.471226
     18          6           0       -3.981963    2.368695    2.377688
     19          6           0       -3.771282    3.545780    3.266348
     20          6           0       -4.574195    4.487202    2.678455
     21          6           0       -5.242886    3.946111    1.523977
     22          6           0       -2.694596    3.762926    4.317558
     23          6           0       -4.590303    5.999767    2.982938
     24          8           0       -4.121152    6.553222    3.952008
     25          7           0       -6.977148    2.562960   -0.692311
     26          6           0       -6.979061    3.862586   -0.259443
     27          6           0       -8.056127    4.510466   -1.066620
     28          6           0       -8.500254    3.605262   -2.039777
     29          6           0       -7.852854    2.435346   -1.692399
     30          6           0       -8.370985    5.951607   -1.118415
     31          6           0       -9.333061    3.914691   -3.242510
     32          6           0       -8.730660    4.038191   -4.685607
     33          7           0       -6.405029   -0.113873   -1.084335
     34          6           0       -7.354594   -0.001794   -2.133413
     35          6           0       -7.550257   -1.310510   -2.781127
     36          6           0       -6.655353   -2.162116   -2.069999
     37          6           0       -6.034298   -1.349472   -1.106323
     38          6           0       -8.433298   -1.643818   -3.930637
     39          6           0       -6.170760   -3.615278   -2.034736
     40          8           0       -6.550495   -4.619373   -2.582225
     41          6           0       -5.067152   -3.576992   -0.915059
     42          6           0       -5.346075   -4.656371    0.077374
     43          8           0       -5.938533   -4.517927    1.171881
     44          8           0       -5.026512   -5.816268   -0.386339
     45          6           0       -5.422929   -6.936689    0.603800
     46          6           0        2.296879   -5.007985    0.651263
     47          6           0        3.361834   -4.065434    1.022359
     48          6           0        4.133912   -3.244129    0.250025
     49          6           0        3.775852   -3.130836   -1.258129
     50          6           0        5.181964   -2.415831    0.755539
     51          6           0        6.598620   -2.769272    0.104263
     52          6           0        7.742000   -1.913015    0.739934
     53          6           0        9.125267   -2.024663    0.037010
     54          6           0        9.801306   -3.424387    0.186382
     55          6           0       10.050304   -0.927465    0.479120
     56          6           0       11.380144   -0.821694   -0.245817
     57          6           0       12.237860    0.378645    0.142597
     58          6           0       13.623517    0.479117   -0.531343
     59          6           0       14.507912   -0.581111   -0.324973
     60          6           0       14.200524    1.716501   -0.130581
     61          6           0       15.276644    2.310219   -1.069095
     62          6           0       15.984294    3.586250   -0.682102
     63          6           0       17.202758    3.926728   -1.425518
     64          6           0       17.038767    4.042130   -2.955074
     65          6           0       17.798940    5.190913   -0.913931
     66          1           0       -2.850064    1.329351    3.585334
     67          1           0       -6.383831    5.492804    0.741120
     68          1           0       -8.860268    1.254631   -3.192496
     69          1           0       -3.789274   -3.232349    1.732808
     70          1           0       -1.789057   -1.079591    2.856586
     71          1           0       -2.939921   -2.697794    4.326251
     72          1           0       -3.595803   -0.954743    4.686961
     73          1           0       -4.488627   -1.984421    3.715514
     74          1           0       -2.074615   -3.175696   -0.266417
     75          1           0       -1.560607   -1.596064    0.093479
     76          1           0       -0.261889   -2.801457    2.193884
     77          1           0       -1.339329   -4.370846    2.144860
     78          1           0       -1.828462    3.586714    3.947234
     79          1           0       -2.953207    4.743480    4.571844
     80          1           0       -2.783558    3.114277    5.214541
     81          1           0       -5.195140    6.477012    2.299470
     82          1           0       -9.934510    2.839224   -3.303019
     83          1           0      -10.027542    4.938226   -3.075001
     84          1           0       -9.570471    4.031655   -5.389293
     85          1           0       -8.305938    4.897106   -4.847858
     86          1           0       -7.817020    3.123735   -4.553583
     87          1           0       -8.045115   -1.221964   -4.864264
     88          1           0       -8.400424   -2.655047   -4.101777
     89          1           0       -9.411927   -1.330054   -3.731184
     90          1           0       -4.182054   -3.958426   -1.466911
     91          1           0        2.688040   -6.082816    0.859494
     92          1           0        2.319551   -5.077689   -0.416119
     93          1           0        3.768497   -4.154817    2.050638
     94          1           0        2.712609   -3.471888   -1.527137
     95          1           0        3.690661   -2.005139   -1.483931
     96          1           0        4.420748   -3.706189   -2.043530
     97          1           0        4.835520   -1.324508    0.303623
     98          1           0        5.462434   -2.659224    1.907759
     99          1           0        6.773576   -3.749480    0.448556
    100          1           0        6.403300   -2.638096   -0.901518
    101          1           0        7.634187   -0.774619    0.669860
    102          1           0        8.026994   -2.184079    1.719500
    103          1           0        8.899789   -2.088936   -1.037625
    104          1           0        9.082633   -4.240420   -0.189685
    105          1           0       10.759326   -3.492828   -0.531130
    106          1           0       10.113418   -3.579109    1.232691
    107          1           0        9.521802    0.056139    0.567639
    108          1           0       10.148738   -1.148228    1.605922
    109          1           0       11.977814   -1.771319    0.075971
    110          1           0       11.341153   -0.780102   -1.273905
    111          1           0       11.365301    1.263058   -0.060086
    112          1           0       12.511399    0.149136    1.193211
    113          1           0       13.448363    0.622362   -1.739818
    114          1           0       14.634114   -0.779745    0.648102
    115          1           0       14.268322   -1.558895   -0.733135
    116          1           0       15.653469   -0.280074   -0.586745
    117          1           0       13.280364    2.402677   -0.116611
    118          1           0       14.625501    1.785370    0.762934
    119          1           0       16.043360    1.531223   -1.039046
    120          1           0       14.871030    2.040250   -2.075261
    121          1           0       15.279754    4.381735   -0.768316
    122          1           0       16.232461    3.655919    0.358875
    123          1           0       18.103092    3.145755   -1.085641
    124          1           0       16.291921    4.855394   -3.244984
    125          1           0       17.846743    4.515723   -3.332110
    126          1           0       16.871041    3.023090   -3.457349
    127          1           0       18.318948    5.023592    0.056965
    128          1           0       18.750352    5.295835   -1.644833
    129          1           0       17.240818    6.036500   -1.020674
    130          1           0       -5.175240   -7.757726    0.119420
    131          1           0       -6.368187   -6.885743    0.846967
    132          1           0       -4.649748   -6.801758    1.408873
    133          8           0       -8.017092    6.799618   -0.232067
    134          1           0       -9.094893    6.324919   -1.795934
 ---------------------------------------------------------------------

 SCF Done:  E(RCAM-B3LYP) =  -3043.43544063     A.U. after   16 cycles

 Excitation energies and oscillator strengths:

 Excited State   1:      Singlet-A      2.1350 eV  580.71 nm  f=0.1362  <S**2>=0.000
     243 -> 246       -0.29115
     244 -> 245        0.63429
 This state for optimization and/or second-order correction.
 Total Energy, E(TD-HF/TD-DFT) =  -3043.35697984
 Copying the excited state density for this state as the 1-particle RhoCI density.

 The electronic state is 1-A.
 Alpha  occ. eigenvalues --  -46.82065 -19.23576 -19.23191 -19.17945 -19.17867
 Alpha  occ. eigenvalues --  -19.17495 -19.15683 -19.15515 -14.39118 -14.36793
 Alpha  occ. eigenvalues --  -14.36520 -14.36177 -10.35647 -10.34280 -10.32291
 Alpha  occ. eigenvalues --  -10.29774 -10.29149 -10.28567 -10.27929 -10.26925
 Alpha  occ. eigenvalues --  -10.26665 -10.26608 -10.26558 -10.26318 -10.26277
 Alpha  occ. eigenvalues --  -10.25900 -10.25672 -10.25526 -10.25491 -10.25478
 Alpha  occ. eigenvalues --  -10.25334 -10.24939 -10.24729 -10.24693 -10.24313
 Alpha  occ. eigenvalues --  -10.24072 -10.23954 -10.23883 -10.23620 -10.23558
 Alpha  occ. eigenvalues --  -10.23161 -10.22943 -10.22707 -10.22563 -10.22551
 Alpha  occ. eigenvalues --  -10.22380 -10.22270 -10.22199 -10.22103 -10.21996
 Alpha  occ. eigenvalues --  -10.21700 -10.21562 -10.21541 -10.21473 -10.21453
 Alpha  occ. eigenvalues --  -10.21445 -10.21375 -10.21328 -10.20546 -10.20341
 Alpha  occ. eigenvalues --  -10.20114 -10.20045 -10.19948 -10.19661 -10.19525
 Alpha  occ. eigenvalues --  -10.18613  -3.10538  -1.85487  -1.85002  -1.84942
 Alpha  occ. eigenvalues --   -1.14236  -1.14067  -1.08108  -1.07118  -1.05653
 Alpha  occ. eigenvalues --   -1.02531  -1.02131  -1.01969  -1.01085  -0.99984
 Alpha  occ. eigenvalues --   -0.99313  -0.87795  -0.87768  -0.86455  -0.85986
 Alpha  occ. eigenvalues --   -0.85654  -0.85122  -0.84588  -0.84434  -0.83872
 Alpha  occ. eigenvalues --   -0.83198  -0.83014  -0.81948  -0.80889  -0.80107
 Alpha  occ. eigenvalues --   -0.79225  -0.78428  -0.78050  -0.77816  -0.77164
 Alpha  occ. eigenvalues --   -0.75802  -0.75582  -0.74401  -0.74317  -0.73182
 Alpha  occ. eigenvalues --   -0.72130  -0.71009  -0.70556  -0.70122  -0.69894
 Alpha  occ. eigenvalues --   -0.69655  -0.69016  -0.67474  -0.66840  -0.66578
 Alpha  occ. eigenvalues --   -0.66190  -0.65217  -0.64056  -0.63262  -0.62283
 Alpha  occ. eigenvalues --   -0.61871  -0.61432  -0.60306  -0.59534  -0.59078
 Alpha  occ. eigenvalues --   -0.58902  -0.58306  -0.57598  -0.57536  -0.57495
 Alpha  occ. eigenvalues --   -0.56729  -0.55950  -0.55706  -0.55023  -0.54835
 Alpha  occ. eigenvalues --   -0.53688  -0.53176  -0.52878  -0.52802  -0.52244
 Alpha  occ. eigenvalues --   -0.52033  -0.51845  -0.51414  -0.51203  -0.51159
 Alpha  occ. eigenvalues --   -0.50480  -0.50312  -0.49902  -0.49792  -0.49581
 Alpha  occ. eigenvalues --   -0.49128  -0.48617  -0.48545  -0.48350  -0.48100
 Alpha  occ. eigenvalues --   -0.47923  -0.47739  -0.47594  -0.47386  -0.47208
 Alpha  occ. eigenvalues --   -0.46944  -0.46726  -0.46654  -0.46427  -0.46310
 Alpha  occ. eigenvalues --   -0.46027  -0.45943  -0.45780  -0.45415  -0.45239
 Alpha  occ. eigenvalues --   -0.44832  -0.44665  -0.44514  -0.44386  -0.44070
 Alpha  occ. eigenvalues --   -0.43684  -0.43595  -0.43404  -0.43283  -0.43170
 Alpha  occ. eigenvalues --   -0.42932  -0.42648  -0.42370  -0.42264  -0.42127
 Alpha  occ. eigenvalues --   -0.41818  -0.41779  -0.41586  -0.41401  -0.41363
 Alpha  occ. eigenvalues --   -0.41166  -0.41081  -0.40721  -0.40595  -0.40387
 Alpha  occ. eigenvalues --   -0.40102  -0.39788  -0.39600  -0.39027  -0.38839
 Alpha  occ. eigenvalues --   -0.38552  -0.38444  -0.38294  -0.38174  -0.37900
 Alpha  occ. eigenvalues --   -0.37790  -0.37577  -0.37402  -0.37228  -0.37038
 Alpha  occ. eigenvalues --   -0.36742  -0.36502  -0.36090  -0.35948  -0.35860
 Alpha  occ. eigenvalues --   -0.35495  -0.35258  -0.35122  -0.34449  -0.34348
 Alpha  occ. eigenvalues --   -0.34114  -0.34049  -0.33939  -0.33620  -0.33089
 Alpha  occ. eigenvalues --   -0.33068  -0.32740  -0.32469  -0.31989  -0.31783
 Alpha  occ. eigenvalues --   -0.31406  -0.31157  -0.30788  -0.29914  -0.29490
 Alpha  occ. eigenvalues --   -0.28619  -0.28355  -0.28100  -0.27598  -0.27241
 Alpha  occ. eigenvalues --   -0.26858  -0.26711  -0.23106  -0.21406
 Alpha virt. eigenvalues --   -0.07748  -0.06505  -0.01374  -0.00410   0.00536
 Alpha virt. eigenvalues --    0.02620   0.02796   0.03513   0.03985   0.04695
 Alpha virt. eigenvalues --    0.04854   0.05618   0.07061   0.08351   0.09084

 Mulliken charges:
               1
     1  Mg   0.827558
     2  C    0.040651
     3  C   -0.143559
     4  C   -0.136884
     5  C   -0.176026
     6  N   -0.628647
     7  C    0.296065
     8  C   -0.154122
     9  C   -0.137445
    10  C    0.337990
    11  C   -0.312851
    12  C   -0.154550
    13  C   -0.260848
    14  C    0.622820
    15  O   -0.470687
    16  O   -0.451598
    17  N   -0.726662
    18  C    0.325180
    19  C   -0.006176
    20  C   -0.090492
    21  C    0.367940
    22  C   -0.367765
    23  C    0.277786
    24  O   -0.411022
    25  N   -0.717349
    26  C    0.300849
    27  C   -0.072101
    28  C    0.085703
    29  C    0.296239
    30  C    0.223051
    31  C   -0.243940
    32  C   -0.278731
    33  N   -0.742253
    34  C    0.243594
    35  C    0.007454
    36  C   -0.023228
    37  C    0.382598
    38  C   -0.378296
    39  C    0.391301
    40  O   -0.439254
    41  C   -0.324760
    42  C    0.626256
    43  O   -0.529758
    44  O   -0.439849
    45  C   -0.076308
    46  C   -0.014431
    47  C   -0.141200
    48  C    0.181349
    49  C   -0.393189
    50  C   -0.239875
    51  C   -0.178040
    52  C   -0.169177
    53  C   -0.060325
    54  C   -0.312152
    55  C   -0.165467
    56  C   -0.174072
    57  C   -0.167125
    58  C   -0.026068
    59  C   -0.311523
    60  C   -0.152502
    61  C   -0.190499
    62  C   -0.143164
    63  C   -0.042960
    64  C   -0.301922
    65  C   -0.307454
    66  H    0.065975
    67  H    0.102413
    68  H    0.097314
    69  H    0.128211
    70  H    0.117489
    71  H    0.093072
    72  H    0.098480
    73  H    0.138602
    74  H    0.130061
    75  H    0.100146
    76  H    0.127482
    77  H    0.133202
    78  H    0.139415
    79  H    0.161892
    80  H    0.113411
    81  H    0.094187
    82  H    0.083023
    83  H    0.088657
    84  H    0.121198
    85  H    0.134490
    86  H    0.078168
    87  H    0.132511
    88  H    0.152234
    89  H    0.132813
    90  H    0.156037
    91  H    0.109459
    92  H    0.129434
    93  H    0.068503
    94  H    0.145881
    95  H    0.100264
    96  H    0.108341
    97  H    0.088220
    98  H    0.086809
    99  H    0.111396
   100  H    0.111863
   101  H    0.085165
   102  H    0.094079
   103  H    0.081008
   104  H    0.091499
   105  H    0.090617
   106  H    0.095074
   107  H    0.079645
   108  H    0.075693
   109  H    0.078801
   110  H    0.104029
   111  H    0.067841
   112  H    0.088260
   113  H    0.045832
   114  H    0.112252
   115  H    0.103209
   116  H    0.083877
   117  H    0.073141
   118  H    0.091102
   119  H    0.081905
   120  H    0.086307
   121  H    0.090706
   122  H    0.088486
   123  H    0.048589
   124  H    0.088580
   125  H    0.110025
   126  H    0.100699
   127  H    0.102185
   128  H    0.072158
   129  H    0.112804
   130  H    0.134124
   131  H    0.162525
   132  H    0.130191
   133  O   -0.454354
   134  H    0.075214
 Sum of Mulliken charges =  -0.00000

 Dipole moment (field-independent basis, Debye):
    X=              3.9487    Y=             -6.0158    Z=             -1.8275  Tot=              7.4244
 Quadrupole moment (field-independent basis, Debye-Ang):
   XX=           -394.2567   YY=           -432.5249   ZZ=           -393.6273
   XY=             17.2810   XZ=             35.8301   YZ=            -38.5382

 Normal termination of Gaussian 16 at Fri Oct  4 18:20:40 2019.
