 Gaussian 16, Revision A.03,
 Gaussian 16:  ES64L-G16RevA.03 25-Dec-2016

 ----------------------------------------------------------------------
 # td=(NStates=1) iop(3/107=0140000000,3/108=0140000000) iop(3/107=0140
 000000,3/108=0140000000) CAM-B3LYP/6-31G(d,p)
 ----------------------------------------------------------------------

 --
 TD
 --
 Symbolic Z-matrix:
 Charge =  0 Multiplicity = 1

                         Standard orientation:
 ---------------------------------------------------------------------
 Center     Atomic      Atomic             Coordinates (Angstroms)
 Number     Number       Type             X           Y           Z
 ---------------------------------------------------------------------
      1         12           0       -5.610649    1.249777    0.071592
      2          6           0       -4.984100   -2.095430   -0.543895
      3          6           0       -3.387106    1.064623    2.790317
      4          6           0       -6.174590    4.481180    0.783109
      5          6           0       -7.872003    1.286182   -2.500776
      6          7           0       -4.502082   -0.329491    1.142747
      7          6           0       -4.276957   -1.555717    0.613638
      8          6           0       -3.198233   -2.270072    1.377675
      9          6           0       -2.842219   -1.408191    2.536846
     10          6           0       -3.538218   -0.123346    2.168287
     11          6           0       -3.436187   -1.889312    3.959169
     12          6           0       -1.894826   -2.651594    0.634074
     13          6           0       -1.038929   -3.670623    1.366700
     14          6           0        0.276396   -3.911954    0.599058
     15          8           0        0.483524   -3.521717   -0.469596
     16          8           0        1.080309   -4.796013    1.223817
     17          7           0       -4.933602    2.503009    1.627206
     18          6           0       -3.937409    2.388294    2.615656
     19          6           0       -3.691200    3.568113    3.228459
     20          6           0       -4.539935    4.509165    2.646153
     21          6           0       -5.232732    3.886315    1.555522
     22          6           0       -2.824538    3.728794    4.444920
     23          6           0       -4.662802    5.989591    3.049929
     24          8           0       -4.089944    6.383840    4.006229
     25          7           0       -6.798088    2.664005   -0.767460
     26          6           0       -7.000141    3.984718   -0.338627
     27          6           0       -7.943655    4.601262   -1.109697
     28          6           0       -8.373183    3.615401   -2.026600
     29          6           0       -7.689517    2.428638   -1.776388
     30          6           0       -8.342581    5.985650   -1.073520
     31          6           0       -9.366752    3.869602   -3.165632
     32          6           0       -8.629997    4.102524   -4.442370
     33          7           0       -6.346585   -0.127627   -1.085484
     34          6           0       -7.292965   -0.009010   -2.188104
     35          6           0       -7.451207   -1.305532   -2.835953
     36          6           0       -6.720011   -2.220619   -2.163745
     37          6           0       -6.048168   -1.376173   -1.139982
     38          6           0       -8.422948   -1.514477   -4.029536
     39          6           0       -6.176758   -3.558030   -2.055732
     40          8           0       -6.424062   -4.445557   -2.821753
     41          6           0       -5.091609   -3.497370   -0.995364
     42          6           0       -5.377511   -4.605040    0.096096
     43          8           0       -5.801058   -4.334202    1.203549
     44          8           0       -5.198199   -5.849645   -0.376808
     45          6           0       -5.413697   -6.846439    0.579341
     46          6           0        2.306195   -5.058740    0.687357
     47          6           0        3.378699   -4.115141    1.045135
     48          6           0        4.079768   -3.245556    0.302331
     49          6           0        3.734522   -3.095968   -1.178366
     50          6           0        5.231807   -2.416735    0.763038
     51          6           0        6.485710   -2.760401    0.009287
     52          6           0        7.666353   -1.950515    0.604533
     53          6           0        9.076444   -2.006520   -0.049760
     54          6           0        9.751357   -3.390847    0.279503
     55          6           0       10.013265   -0.927470    0.443824
     56          6           0       11.325406   -0.784454   -0.355561
     57          6           0       12.171498    0.287081    0.178368
     58          6           0       13.517990    0.552456   -0.546972
     59          6           0       14.359869   -0.676468   -0.320428
     60          6           0       14.146459    1.807245   -0.197414
     61          6           0       15.368251    2.223361   -1.097855
     62          6           0       16.056998    3.502135   -0.677393
     63          6           0       17.203638    3.945275   -1.417872
     64          6           0       16.900769    4.221224   -2.874360
     65          6           0       17.852846    5.169282   -0.885397
     66          1           0       -2.731991    1.126770    3.593901
     67          1           0       -6.465392    5.546337    0.859459
     68          1           0       -8.553671    1.615334   -3.346215
     69          1           0       -3.644112   -3.119626    1.831455
     70          1           0       -1.741325   -1.312835    2.477209
     71          1           0       -3.147405   -2.849762    4.339342
     72          1           0       -3.189587   -0.960954    4.455015
     73          1           0       -4.468306   -1.846923    4.115997
     74          1           0       -2.225264   -3.238676   -0.225155
     75          1           0       -1.353724   -1.794907    0.402761
     76          1           0       -0.728022   -3.317767    2.307021
     77          1           0       -1.359919   -4.616209    1.492636
     78          1           0       -1.623857    3.855832    4.356153
     79          1           0       -2.967576    4.651603    4.871882
     80          1           0       -3.022048    2.932296    5.153263
     81          1           0       -5.252021    6.490646    2.424789
     82          1           0      -10.144426    3.001532   -3.440395
     83          1           0      -10.154729    4.669529   -2.930156
     84          1           0       -9.244455    4.474198   -5.137602
     85          1           0       -7.834685    4.982901   -4.319409
     86          1           0       -8.148904    3.403455   -5.069176
     87          1           0       -8.374625   -0.501595   -4.821838
     88          1           0       -8.073755   -2.518384   -4.582433
     89          1           0       -9.653947   -1.646187   -3.670050
     90          1           0       -4.131541   -3.820801   -1.411253
     91          1           0        2.525870   -6.066827    0.886261
     92          1           0        2.326450   -4.915338   -0.465767
     93          1           0        3.682608   -4.151632    2.158802
     94          1           0        2.812463   -3.660662   -1.677495
     95          1           0        3.626830   -2.093094   -1.531691
     96          1           0        4.365927   -3.629071   -1.876649
     97          1           0        4.851303   -1.402840    0.541978
     98          1           0        5.412780   -2.414672    2.007538
     99          1           0        6.712095   -3.827781    0.133160
    100          1           0        6.390343   -2.740192   -1.081702
    101          1           0        7.408322   -0.990140    0.510042
    102          1           0        7.904273   -2.052442    1.653154
    103          1           0        8.927918   -1.886232   -1.113244
    104          1           0        9.116178   -4.289237   -0.204974
    105          1           0       10.699738   -3.336086   -0.000203
    106          1           0        9.702234   -3.431639    1.408834
    107          1           0        9.602224    0.046464    0.255827
    108          1           0       10.297906   -0.894653    1.552378
    109          1           0       11.766455   -1.688213   -0.333892
    110          1           0       11.094782   -0.465639   -1.412749
    111          1           0       11.395259    1.225143    0.397378
    112          1           0       12.541448   -0.012495    1.236575
    113          1           0       13.430009    0.555005   -1.649711
    114          1           0       14.558615   -0.617829    0.845694
    115          1           0       13.893123   -1.583211   -0.736649
    116          1           0       15.318907   -0.645658   -0.720320
    117          1           0       13.451430    2.614895   -0.308142
    118          1           0       14.548065    1.819913    0.894349
    119          1           0       16.005231    1.289228   -1.004815
    120          1           0       15.128383    2.256607   -2.052061
    121          1           0       15.244713    4.263825   -0.552956
    122          1           0       16.359480    3.359502    0.527684
    123          1           0       17.884893    2.999489   -1.276535
    124          1           0       16.030430    4.681847   -2.955549
    125          1           0       17.808961    4.494290   -3.586181
    126          1           0       16.553621    3.424341   -3.546361
    127          1           0       17.977902    5.103716    0.287396
    128          1           0       18.830261    5.350826   -1.380400
    129          1           0       17.304481    6.024540   -1.109128
    130          1           0       -5.528461   -7.748055   -0.038863
    131          1           0       -6.288606   -6.781913    1.152366
    132          1           0       -4.636879   -6.826414    1.352758
    133          8           0       -7.883992    6.749634   -0.314231
    134          1           0       -8.934337    6.417021   -2.027289
 ---------------------------------------------------------------------

 SCF Done:  E(RCAM-B3LYP) =  -3043.47447579     A.U. after   15 cycles

 Excitation energies and oscillator strengths:

 Excited State   1:      Singlet-A      2.0458 eV  606.05 nm  f=0.1701  <S**2>=0.000
     243 -> 245        0.15898
     243 -> 246       -0.24954
     244 -> 245        0.62017
     244 -> 246        0.13648
 This state for optimization and/or second-order correction.
 Total Energy, E(TD-HF/TD-DFT) =  -3043.39929494
 Copying the excited state density for this state as the 1-particle RhoCI density.

 The electronic state is 1-A.
 Alpha  occ. eigenvalues --  -46.80998 -19.23852 -19.21701 -19.17900 -19.17622
 Alpha  occ. eigenvalues --  -19.17590 -19.17188 -19.17114 -14.38197 -14.36924
 Alpha  occ. eigenvalues --  -14.36160 -14.35873 -10.35830 -10.34247 -10.31349
 Alpha  occ. eigenvalues --  -10.30779 -10.29738 -10.27879 -10.27579 -10.27017
 Alpha  occ. eigenvalues --  -10.26966 -10.26741 -10.26362 -10.26055 -10.26041
 Alpha  occ. eigenvalues --  -10.25780 -10.25739 -10.25546 -10.25150 -10.24996
 Alpha  occ. eigenvalues --  -10.24914 -10.24670 -10.24506 -10.23925 -10.23837
 Alpha  occ. eigenvalues --  -10.23403 -10.23366 -10.23147 -10.23040 -10.22616
 Alpha  occ. eigenvalues --  -10.22610 -10.22488 -10.22377 -10.22176 -10.22163
 Alpha  occ. eigenvalues --  -10.21997 -10.21655 -10.21614 -10.21594 -10.21459
 Alpha  occ. eigenvalues --  -10.21386 -10.21303 -10.21288 -10.21257 -10.21168
 Alpha  occ. eigenvalues --  -10.21142 -10.21129 -10.20602 -10.20457 -10.20358
 Alpha  occ. eigenvalues --  -10.20272 -10.20035 -10.19878 -10.19742 -10.19717
 Alpha  occ. eigenvalues --  -10.19536  -3.09603  -1.84531  -1.84087  -1.84008
 Alpha  occ. eigenvalues --   -1.15752  -1.15243  -1.10226  -1.09101  -1.08365
 Alpha  occ. eigenvalues --   -1.07473  -1.05862  -1.00778  -0.99309  -0.98810
 Alpha  occ. eigenvalues --   -0.97614  -0.88486  -0.86798  -0.86555  -0.86140
 Alpha  occ. eigenvalues --   -0.85518  -0.85299  -0.84226  -0.84122  -0.83718
 Alpha  occ. eigenvalues --   -0.83383  -0.82273  -0.82018  -0.80918  -0.79961
 Alpha  occ. eigenvalues --   -0.79198  -0.78804  -0.78082  -0.77161  -0.76481
 Alpha  occ. eigenvalues --   -0.75632  -0.74193  -0.73666  -0.73442  -0.71870
 Alpha  occ. eigenvalues --   -0.71676  -0.71350  -0.70948  -0.70455  -0.69618
 Alpha  occ. eigenvalues --   -0.69515  -0.68994  -0.67831  -0.66857  -0.66610
 Alpha  occ. eigenvalues --   -0.66433  -0.65612  -0.64397  -0.63880  -0.63043
 Alpha  occ. eigenvalues --   -0.61733  -0.60917  -0.60844  -0.59499  -0.59333
 Alpha  occ. eigenvalues --   -0.59083  -0.58665  -0.58452  -0.57805  -0.57425
 Alpha  occ. eigenvalues --   -0.56501  -0.55713  -0.55363  -0.55083  -0.54848
 Alpha  occ. eigenvalues --   -0.54163  -0.53540  -0.53259  -0.52930  -0.52698
 Alpha  occ. eigenvalues --   -0.52210  -0.52090  -0.51938  -0.51368  -0.50931
 Alpha  occ. eigenvalues --   -0.50750  -0.50446  -0.50077  -0.49818  -0.49536
 Alpha  occ. eigenvalues --   -0.49316  -0.48798  -0.48596  -0.48393  -0.48098
 Alpha  occ. eigenvalues --   -0.47931  -0.47809  -0.47508  -0.47432  -0.47125
 Alpha  occ. eigenvalues --   -0.46945  -0.46630  -0.46502  -0.45999  -0.45874
 Alpha  occ. eigenvalues --   -0.45678  -0.45556  -0.45439  -0.45201  -0.44947
 Alpha  occ. eigenvalues --   -0.44751  -0.44708  -0.44639  -0.44436  -0.44266
 Alpha  occ. eigenvalues --   -0.44134  -0.43751  -0.43143  -0.43001  -0.42754
 Alpha  occ. eigenvalues --   -0.42604  -0.42299  -0.42159  -0.42060  -0.41832
 Alpha  occ. eigenvalues --   -0.41747  -0.41656  -0.41470  -0.41343  -0.40946
 Alpha  occ. eigenvalues --   -0.40856  -0.40640  -0.40199  -0.40129  -0.39857
 Alpha  occ. eigenvalues --   -0.39695  -0.39571  -0.39506  -0.39314  -0.39266
 Alpha  occ. eigenvalues --   -0.38966  -0.38660  -0.38570  -0.38428  -0.38170
 Alpha  occ. eigenvalues --   -0.37630  -0.37473  -0.37248  -0.37064  -0.36970
 Alpha  occ. eigenvalues --   -0.36553  -0.36190  -0.35972  -0.35741  -0.35471
 Alpha  occ. eigenvalues --   -0.35177  -0.35151  -0.34897  -0.34872  -0.34637
 Alpha  occ. eigenvalues --   -0.34486  -0.34191  -0.34146  -0.33934  -0.33723
 Alpha  occ. eigenvalues --   -0.33053  -0.32629  -0.32298  -0.32165  -0.31702
 Alpha  occ. eigenvalues --   -0.31584  -0.31274  -0.31067  -0.30666  -0.29899
 Alpha  occ. eigenvalues --   -0.28983  -0.28360  -0.28077  -0.27946  -0.27569
 Alpha  occ. eigenvalues --   -0.27453  -0.26713  -0.23002  -0.21491
 Alpha virt. eigenvalues --   -0.08470  -0.06509  -0.01139  -0.00211   0.00969
 Alpha virt. eigenvalues --    0.02939   0.03333   0.04162   0.04420   0.05341
 Alpha virt. eigenvalues --    0.05748   0.06251   0.07891   0.08189   0.09342

 Mulliken charges:
               1
     1  Mg   0.841136
     2  C    0.015629
     3  C   -0.187094
     4  C   -0.172814
     5  C   -0.158919
     6  N   -0.611019
     7  C    0.351954
     8  C   -0.161936
     9  C   -0.144471
    10  C    0.312675
    11  C   -0.320963
    12  C   -0.173612
    13  C   -0.269212
    14  C    0.570324
    15  O   -0.417574
    16  O   -0.445950
    17  N   -0.690540
    18  C    0.297385
    19  C    0.053137
    20  C   -0.082172
    21  C    0.321474
    22  C   -0.390736
    23  C    0.307507
    24  O   -0.396944
    25  N   -0.737589
    26  C    0.251315
    27  C    0.006437
    28  C    0.017746
    29  C    0.345180
    30  C    0.231392
    31  C   -0.274116
    32  C   -0.306381
    33  N   -0.715572
    34  C    0.229865
    35  C    0.018337
    36  C    0.061935
    37  C    0.309739
    38  C   -0.344507
    39  C    0.364736
    40  O   -0.435823
    41  C   -0.299449
    42  C    0.589472
    43  O   -0.462375
    44  O   -0.412851
    45  C   -0.099169
    46  C    0.009425
    47  C   -0.146058
    48  C    0.153682
    49  C   -0.395196
    50  C   -0.211774
    51  C   -0.182851
    52  C   -0.159024
    53  C   -0.080695
    54  C   -0.292873
    55  C   -0.184092
    56  C   -0.165971
    57  C   -0.152056
    58  C   -0.060366
    59  C   -0.306081
    60  C   -0.160770
    61  C   -0.175824
    62  C   -0.159392
    63  C   -0.020974
    64  C   -0.323015
    65  C   -0.293783
    66  H    0.067276
    67  H    0.129841
    68  H    0.093769
    69  H    0.126747
    70  H    0.108150
    71  H    0.116185
    72  H    0.111801
    73  H    0.137354
    74  H    0.109618
    75  H    0.124997
    76  H    0.132533
    77  H    0.142348
    78  H    0.097213
    79  H    0.163555
    80  H    0.119686
    81  H    0.087430
    82  H    0.096169
    83  H    0.116014
    84  H    0.120519
    85  H    0.090248
    86  H    0.122608
    87  H    0.091404
    88  H    0.137160
    89  H    0.109827
    90  H    0.157098
    91  H    0.113407
    92  H    0.092464
    93  H    0.059811
    94  H    0.122975
    95  H    0.119994
    96  H    0.118930
    97  H    0.109189
    98  H    0.078504
    99  H    0.102294
   100  H    0.105800
   101  H    0.098154
   102  H    0.087752
   103  H    0.080657
   104  H    0.079850
   105  H    0.110417
   106  H    0.092558
   107  H    0.090447
   108  H    0.080854
   109  H    0.104811
   110  H    0.086050
   111  H    0.055016
   112  H    0.072476
   113  H    0.076681
   114  H    0.079526
   115  H    0.105159
   116  H    0.109057
   117  H    0.093307
   118  H    0.070589
   119  H    0.079183
   120  H    0.100400
   121  H    0.077956
   122  H    0.051471
   123  H    0.072016
   124  H    0.115581
   125  H    0.090709
   126  H    0.092861
   127  H    0.079480
   128  H    0.099158
   129  H    0.111655
   130  H    0.127428
   131  H    0.142017
   132  H    0.118587
   133  O   -0.384895
   134  H    0.042210
 Sum of Mulliken charges =  -0.00000

 Dipole moment (field-independent basis, Debye):
    X=              1.7195    Y=             -3.4696    Z=             -2.2785  Tot=              4.4929
 Quadrupole moment (field-independent basis, Debye-Ang):
   XX=           -386.5457   YY=           -423.5380   ZZ=           -393.9925
   XY=              4.4770   XZ=             11.1145   YZ=            -35.2990

 Normal termination of Gaussian 16 at Thu Oct 10 08:17:11 2019.
