 Gaussian 16, Revision A.03,
 Gaussian 16:  ES64L-G16RevA.03 25-Dec-2016

 ----------------------------------------------------------------------
 # td=(NStates=1) iop(3/107=0140000000,3/108=0140000000) iop(3/107=0140
 000000,3/108=0140000000) CAM-B3LYP/6-31G(d,p)
 ----------------------------------------------------------------------

 --
 TD
 --
 Symbolic Z-matrix:
 Charge =  0 Multiplicity = 1

                         Standard orientation:
 ---------------------------------------------------------------------
 Center     Atomic      Atomic             Coordinates (Angstroms)
 Number     Number       Type             X           Y           Z
 ---------------------------------------------------------------------
      1         12           0       -5.659011    1.304297    0.121737
      2          6           0       -4.903088   -2.135574   -0.414862
      3          6           0       -3.357187    1.137287    2.735846
      4          6           0       -6.149709    4.558237    0.568923
      5          6           0       -8.029346    1.181251   -2.253123
      6          7           0       -4.391033   -0.310818    1.018129
      7          6           0       -4.177420   -1.645614    0.671815
      8          6           0       -3.115102   -2.352942    1.488763
      9          6           0       -2.877665   -1.325182    2.641216
     10          6           0       -3.587170   -0.107355    2.106476
     11          6           0       -3.481981   -1.759044    3.967654
     12          6           0       -1.928205   -2.714596    0.602260
     13          6           0       -0.895861   -3.590653    1.366243
     14          6           0        0.294746   -4.016707    0.571040
     15          8           0        0.530027   -3.489324   -0.550589
     16          8           0        1.109602   -4.690923    1.232135
     17          7           0       -4.990441    2.621977    1.465679
     18          6           0       -4.036964    2.339600    2.523009
     19          6           0       -3.710271    3.613034    3.141775
     20          6           0       -4.562863    4.638993    2.584705
     21          6           0       -5.240272    3.928460    1.451184
     22          6           0       -2.773245    3.819792    4.302005
     23          6           0       -4.736479    5.986679    2.975905
     24          8           0       -4.220104    6.606234    3.890982
     25          7           0       -6.777879    2.618181   -0.683749
     26          6           0       -6.936006    3.923809   -0.387287
     27          6           0       -7.960409    4.575721   -1.174289
     28          6           0       -8.509447    3.607861   -2.051875
     29          6           0       -7.832235    2.386174   -1.674334
     30          6           0       -8.444610    5.956500   -1.139334
     31          6           0       -9.610903    3.793967   -3.066054
     32          6           0       -8.988403    3.968946   -4.574285
     33          7           0       -6.466231   -0.175842   -1.092112
     34          6           0       -7.426804   -0.053830   -2.059571
     35          6           0       -7.585032   -1.311598   -2.732742
     36          6           0       -6.696135   -2.206382   -2.088165
     37          6           0       -5.960414   -1.408208   -1.075195
     38          6           0       -8.550419   -1.782951   -3.832290
     39          6           0       -6.150574   -3.573022   -2.022113
     40          8           0       -6.507939   -4.549845   -2.579199
     41          6           0       -5.004271   -3.607780   -0.961447
     42          6           0       -5.185896   -4.707817    0.080798
     43          8           0       -5.781604   -4.536799    1.168651
     44          8           0       -4.829862   -5.870221   -0.355946
     45          6           0       -5.102868   -6.979460    0.573336
     46          6           0        2.370419   -5.060954    0.617325
     47          6           0        3.485670   -4.059087    0.928732
     48          6           0        4.135570   -3.237359    0.065099
     49          6           0        3.723358   -3.055841   -1.331611
     50          6           0        5.158304   -2.276598    0.633973
     51          6           0        6.518268   -2.576596    0.055100
     52          6           0        7.591156   -1.719612    0.742028
     53          6           0        9.035403   -1.892697    0.027846
     54          6           0        9.656597   -3.299831    0.237155
     55          6           0        9.970515   -0.769352    0.586818
     56          6           0       11.366401   -0.727076   -0.096447
     57          6           0       12.245342    0.469938    0.304530
     58          6           0       13.579878    0.428177   -0.532955
     59          6           0       14.508269   -0.692958   -0.183136
     60          6           0       14.165111    1.780557   -0.204642
     61          6           0       15.304077    2.178351   -1.141847
     62          6           0       15.921319    3.501964   -0.783563
     63          6           0       17.360650    3.838939   -1.474828
     64          6           0       17.180206    4.079359   -3.024867
     65          6           0       18.048129    5.053002   -0.878320
     66          1           0       -2.791445    1.176243    3.593767
     67          1           0       -6.362993    5.456778    1.019799
     68          1           0       -8.604985    1.106151   -3.060236
     69          1           0       -3.483730   -3.233006    1.942472
     70          1           0       -1.863507   -1.176756    2.783881
     71          1           0       -2.940136   -2.538504    4.444542
     72          1           0       -3.750386   -0.997916    4.607581
     73          1           0       -4.573121   -2.064886    3.875097
     74          1           0       -2.203224   -3.377179   -0.151745
     75          1           0       -1.344634   -1.811085    0.107274
     76          1           0       -0.755979   -3.118818    2.360320
     77          1           0       -1.278557   -4.552980    1.985888
     78          1           0       -1.840376    3.074435    4.162138
     79          1           0       -2.506012    5.055463    4.339982
     80          1           0       -3.392115    3.346894    5.189630
     81          1           0       -5.558355    6.511368    2.537294
     82          1           0      -10.316736    2.842711   -3.074448
     83          1           0      -10.211476    4.545638   -2.738374
     84          1           0       -9.849615    3.878318   -5.369706
     85          1           0       -8.609733    5.062916   -4.582478
     86          1           0       -8.165204    3.191526   -4.821127
     87          1           0       -8.261543   -1.207829   -4.899478
     88          1           0       -8.453830   -2.960524   -3.839568
     89          1           0       -9.550569   -1.546960   -3.532994
     90          1           0       -4.209204   -3.872355   -1.680881
     91          1           0        2.531766   -6.027931    1.288932
     92          1           0        2.186903   -5.273492   -0.396494
     93          1           0        3.681848   -4.166757    1.975621
     94          1           0        2.570441   -3.234583   -1.466984
     95          1           0        3.863203   -1.938291   -1.621973
     96          1           0        4.302451   -3.715328   -1.958783
     97          1           0        5.026433   -1.174434    0.392078
     98          1           0        5.326536   -2.364470    1.705573
     99          1           0        6.698195   -3.617242    0.131962
    100          1           0        6.564269   -2.340724   -1.078236
    101          1           0        7.479227   -0.703469    0.704666
    102          1           0        7.765125   -2.144021    1.648740
    103          1           0        8.748016   -1.623013   -0.964754
    104          1           0        8.990217   -4.096936   -0.232187
    105          1           0       10.580570   -3.482672   -0.358456
    106          1           0       10.072962   -3.590755    1.257056
    107          1           0        9.722845    0.252610    0.204782
    108          1           0       10.314302   -0.844246    1.506000
    109          1           0       11.808263   -1.727309    0.100578
    110          1           0       11.402552   -0.585110   -1.068391
    111          1           0       11.781499    1.379730   -0.173732
    112          1           0       12.651634    0.462093    1.349111
    113          1           0       13.190017    0.359057   -1.574467
    114          1           0       14.877236   -0.522651    0.857106
    115          1           0       13.908296   -1.613668   -0.326751
    116          1           0       15.292697   -0.758586   -0.774838
    117          1           0       13.453912    2.567901   -0.259177
    118          1           0       14.347712    1.748812    0.965766
    119          1           0       15.970434    1.387547   -1.218085
    120          1           0       14.923438    2.294626   -2.191146
    121          1           0       15.306020    4.350199   -0.836632
    122          1           0       16.187219    3.613302    0.427214
    123          1           0       17.776156    2.905250   -1.357427
    124          1           0       16.496797    5.006438   -3.345053
    125          1           0       18.095007    4.571131   -3.328242
    126          1           0       16.948545    3.266183   -3.663039
    127          1           0       18.305037    4.743392    0.273604
    128          1           0       18.882254    5.290400   -1.395586
    129          1           0       17.193405    5.867765   -0.390327
    130          1           0       -4.834585   -7.851535    0.038353
    131          1           0       -6.272858   -6.983816    0.966390
    132          1           0       -4.435708   -6.666646    1.452146
    133          8           0       -8.037406    6.868930   -0.470006
    134          1           0       -9.290123    5.961610   -1.922526
 ---------------------------------------------------------------------

 SCF Done:  E(RCAM-B3LYP) =  -3043.49165788     A.U. after   16 cycles

 Excitation energies and oscillator strengths:

 Excited State   1:      Singlet-A      2.0002 eV  619.85 nm  f=0.1917  <S**2>=0.000
     243 -> 246        0.24466
     244 -> 245        0.65673
 This state for optimization and/or second-order correction.
 Total Energy, E(TD-HF/TD-DFT) =  -3043.41815141
 Copying the excited state density for this state as the 1-particle RhoCI density.

 The electronic state is 1-A.
 Alpha  occ. eigenvalues --  -46.80753 -19.23874 -19.23853 -19.17333 -19.16697
 Alpha  occ. eigenvalues --  -19.16116 -19.15890 -19.15874 -14.39736 -14.36885
 Alpha  occ. eigenvalues --  -14.36748 -14.36130 -10.35048 -10.34883 -10.30950
 Alpha  occ. eigenvalues --  -10.30367 -10.29425 -10.28923 -10.28703 -10.28050
 Alpha  occ. eigenvalues --  -10.27515 -10.27207 -10.26537 -10.26447 -10.26225
 Alpha  occ. eigenvalues --  -10.25738 -10.25527 -10.25517 -10.25452 -10.25152
 Alpha  occ. eigenvalues --  -10.25117 -10.24999 -10.24977 -10.24890 -10.24700
 Alpha  occ. eigenvalues --  -10.24643 -10.24386 -10.24000 -10.23949 -10.23620
 Alpha  occ. eigenvalues --  -10.23459 -10.23191 -10.22970 -10.22872 -10.22839
 Alpha  occ. eigenvalues --  -10.22281 -10.22116 -10.22007 -10.21910 -10.21873
 Alpha  occ. eigenvalues --  -10.21781 -10.21726 -10.21705 -10.21601 -10.21495
 Alpha  occ. eigenvalues --  -10.21104 -10.20982 -10.20928 -10.20772 -10.20408
 Alpha  occ. eigenvalues --  -10.20320 -10.20256 -10.19609 -10.19353 -10.19176
 Alpha  occ. eigenvalues --  -10.18895  -3.09582  -1.84489  -1.84108  -1.83965
 Alpha  occ. eigenvalues --   -1.17210  -1.15114  -1.08923  -1.07403  -1.05715
 Alpha  occ. eigenvalues --   -1.02768  -1.02727  -1.00267  -0.99414  -0.98926
 Alpha  occ. eigenvalues --   -0.97712  -0.87542  -0.86585  -0.86219  -0.85967
 Alpha  occ. eigenvalues --   -0.85591  -0.84499  -0.84016  -0.83687  -0.82929
 Alpha  occ. eigenvalues --   -0.82643  -0.82161  -0.81995  -0.80868  -0.79890
 Alpha  occ. eigenvalues --   -0.79051  -0.78042  -0.77789  -0.77586  -0.76813
 Alpha  occ. eigenvalues --   -0.75815  -0.74611  -0.74012  -0.73213  -0.71671
 Alpha  occ. eigenvalues --   -0.71629  -0.71239  -0.70511  -0.70025  -0.69646
 Alpha  occ. eigenvalues --   -0.69311  -0.68851  -0.67659  -0.67149  -0.66377
 Alpha  occ. eigenvalues --   -0.65734  -0.64823  -0.63887  -0.62866  -0.62177
 Alpha  occ. eigenvalues --   -0.61859  -0.61011  -0.60312  -0.59847  -0.59595
 Alpha  occ. eigenvalues --   -0.59435  -0.59009  -0.58132  -0.57836  -0.57710
 Alpha  occ. eigenvalues --   -0.57132  -0.56291  -0.55878  -0.55290  -0.54543
 Alpha  occ. eigenvalues --   -0.53849  -0.53349  -0.52415  -0.52307  -0.52231
 Alpha  occ. eigenvalues --   -0.51950  -0.51844  -0.51527  -0.51416  -0.51075
 Alpha  occ. eigenvalues --   -0.50868  -0.50137  -0.50015  -0.49713  -0.49324
 Alpha  occ. eigenvalues --   -0.48612  -0.48232  -0.47883  -0.47804  -0.47644
 Alpha  occ. eigenvalues --   -0.47412  -0.47325  -0.47074  -0.46896  -0.46749
 Alpha  occ. eigenvalues --   -0.46629  -0.46342  -0.46240  -0.46106  -0.46055
 Alpha  occ. eigenvalues --   -0.45507  -0.45465  -0.45401  -0.45195  -0.45087
 Alpha  occ. eigenvalues --   -0.44778  -0.44314  -0.44153  -0.43922  -0.43437
 Alpha  occ. eigenvalues --   -0.43339  -0.43061  -0.42782  -0.42561  -0.42357
 Alpha  occ. eigenvalues --   -0.42316  -0.42257  -0.42147  -0.41984  -0.41508
 Alpha  occ. eigenvalues --   -0.41408  -0.41267  -0.41168  -0.41063  -0.40932
 Alpha  occ. eigenvalues --   -0.40727  -0.40691  -0.40355  -0.40148  -0.40024
 Alpha  occ. eigenvalues --   -0.39972  -0.39623  -0.39399  -0.39224  -0.38977
 Alpha  occ. eigenvalues --   -0.38867  -0.38792  -0.38657  -0.38453  -0.38302
 Alpha  occ. eigenvalues --   -0.38286  -0.38106  -0.38008  -0.37923  -0.37850
 Alpha  occ. eigenvalues --   -0.37560  -0.36983  -0.36823  -0.36496  -0.35928
 Alpha  occ. eigenvalues --   -0.35368  -0.35275  -0.35187  -0.35164  -0.34628
 Alpha  occ. eigenvalues --   -0.34529  -0.33857  -0.33727  -0.33386  -0.33265
 Alpha  occ. eigenvalues --   -0.32709  -0.32544  -0.32179  -0.32165  -0.31383
 Alpha  occ. eigenvalues --   -0.30858  -0.30204  -0.29867  -0.29762  -0.29150
 Alpha  occ. eigenvalues --   -0.28607  -0.27850  -0.27541  -0.27434  -0.27400
 Alpha  occ. eigenvalues --   -0.27300  -0.26859  -0.22837  -0.21642
 Alpha virt. eigenvalues --   -0.08859  -0.06324  -0.01457  -0.00256   0.01001
 Alpha virt. eigenvalues --    0.02008   0.03016   0.03304   0.03539   0.04606
 Alpha virt. eigenvalues --    0.04955   0.06256   0.07827   0.08798   0.09390

 Mulliken charges:
               1
     1  Mg   0.855100
     2  C    0.031031
     3  C   -0.161746
     4  C   -0.146804
     5  C   -0.159580
     6  N   -0.600798
     7  C    0.303592
     8  C   -0.143528
     9  C   -0.136283
    10  C    0.331139
    11  C   -0.328705
    12  C   -0.158771
    13  C   -0.291417
    14  C    0.601672
    15  O   -0.513666
    16  O   -0.394815
    17  N   -0.721386
    18  C    0.288793
    19  C    0.025584
    20  C    0.007150
    21  C    0.303718
    22  C   -0.369949
    23  C    0.216119
    24  O   -0.438669
    25  N   -0.731658
    26  C    0.357296
    27  C   -0.033895
    28  C    0.069659
    29  C    0.270653
    30  C    0.259657
    31  C   -0.248546
    32  C   -0.307735
    33  N   -0.736453
    34  C    0.278104
    35  C    0.007308
    36  C   -0.001394
    37  C    0.308785
    38  C   -0.371163
    39  C    0.350502
    40  O   -0.435007
    41  C   -0.296278
    42  C    0.618256
    43  O   -0.515815
    44  O   -0.413578
    45  C   -0.082621
    46  C   -0.013676
    47  C   -0.133209
    48  C    0.161466
    49  C   -0.397100
    50  C   -0.221727
    51  C   -0.188100
    52  C   -0.166940
    53  C   -0.056093
    54  C   -0.333908
    55  C   -0.166036
    56  C   -0.199748
    57  C   -0.176629
    58  C   -0.083188
    59  C   -0.293343
    60  C   -0.153475
    61  C   -0.182904
    62  C   -0.169908
    63  C   -0.028915
    64  C   -0.321273
    65  C   -0.301105
    66  H    0.077406
    67  H    0.102526
    68  H    0.068117
    69  H    0.127813
    70  H    0.116301
    71  H    0.117327
    72  H    0.123233
    73  H    0.120054
    74  H    0.131168
    75  H    0.123388
    76  H    0.132933
    77  H    0.096546
    78  H    0.101050
    79  H    0.153965
    80  H    0.130438
    81  H    0.078801
    82  H    0.102761
    83  H    0.130648
    84  H    0.107401
    85  H    0.118416
    86  H    0.120551
    87  H    0.102382
    88  H    0.145526
    89  H    0.134647
    90  H    0.155783
    91  H    0.103007
    92  H    0.134022
    93  H    0.084842
    94  H    0.158566
    95  H    0.103427
    96  H    0.125470
    97  H    0.098854
    98  H    0.100343
    99  H    0.102632
   100  H    0.074956
   101  H    0.099222
   102  H    0.101718
   103  H    0.087466
   104  H    0.096938
   105  H    0.105337
   106  H    0.103183
   107  H    0.081206
   108  H    0.103403
   109  H    0.080358
   110  H    0.092618
   111  H    0.091078
   112  H    0.082008
   113  H    0.073090
   114  H    0.092610
   115  H    0.097355
   116  H    0.115289
   117  H    0.090994
   118  H    0.068357
   119  H    0.097241
   120  H    0.094201
   121  H    0.099800
   122  H    0.037773
   123  H    0.101863
   124  H    0.077351
   125  H    0.096275
   126  H    0.107407
   127  H    0.077656
   128  H    0.117653
   129  H    0.085817
   130  H    0.138968
   131  H    0.136225
   132  H    0.129216
   133  O   -0.420033
   134  H    0.037011
 Sum of Mulliken charges =  -0.00000

 Dipole moment (field-independent basis, Debye):
    X=              3.3689    Y=             -6.8399    Z=             -0.8437  Tot=              7.6710
 Quadrupole moment (field-independent basis, Debye-Ang):
   XX=           -378.8195   YY=           -439.5790   ZZ=           -392.9351
   XY=              6.3393   XZ=             19.0712   YZ=            -39.7332

 Normal termination of Gaussian 16 at Fri Oct  4 19:23:19 2019.
