 Gaussian 16, Revision A.03,
 Gaussian 16:  ES64L-G16RevA.03 25-Dec-2016

 ----------------------------------------------------------------------
 # td=(NStates=1) iop(3/107=0140000000,3/108=0140000000) iop(3/107=0140
 000000,3/108=0140000000) CAM-B3LYP/6-31G(d,p)
 ----------------------------------------------------------------------

 --
 TD
 --
 Symbolic Z-matrix:
 Charge =  0 Multiplicity = 1

                         Standard orientation:
 ---------------------------------------------------------------------
 Center     Atomic      Atomic             Coordinates (Angstroms)
 Number     Number       Type             X           Y           Z
 ---------------------------------------------------------------------
      1         12           0       -5.615960    1.186639    0.113508
      2          6           0       -5.000201   -2.138120   -0.351393
      3          6           0       -3.305932    1.243092    2.773668
      4          6           0       -6.195356    4.606589    0.596091
      5          6           0       -8.036615    1.113685   -2.224753
      6          7           0       -4.372697   -0.288938    1.098008
      7          6           0       -4.190940   -1.514817    0.667423
      8          6           0       -3.158017   -2.222743    1.460286
      9          6           0       -2.846419   -1.324103    2.585920
     10          6           0       -3.506506    0.018898    2.159591
     11          6           0       -3.586844   -1.738965    3.924292
     12          6           0       -1.971419   -2.674895    0.584084
     13          6           0       -1.101015   -3.611804    1.401893
     14          6           0        0.168396   -3.816935    0.602571
     15          8           0        0.514439   -3.326536   -0.471520
     16          8           0        1.005592   -4.775615    1.334391
     17          7           0       -4.999581    2.562653    1.474237
     18          6           0       -4.004809    2.390207    2.429694
     19          6           0       -3.672746    3.723628    3.022647
     20          6           0       -4.488602    4.605580    2.442774
     21          6           0       -5.366607    3.944628    1.444480
     22          6           0       -2.847898    3.974522    4.292650
     23          6           0       -4.638865    6.143203    2.863696
     24          8           0       -4.042090    6.561308    3.835547
     25          7           0       -6.845143    2.613605   -0.659740
     26          6           0       -7.031859    3.985359   -0.377194
     27          6           0       -7.962546    4.535364   -1.315875
     28          6           0       -8.495694    3.536961   -2.030860
     29          6           0       -7.748576    2.350790   -1.702908
     30          6           0       -8.519806    5.954392   -1.202249
     31          6           0       -9.561618    3.708012   -3.117806
     32          6           0       -8.906575    4.141284   -4.386058
     33          7           0       -6.444909   -0.147939   -1.044370
     34          6           0       -7.455718   -0.118386   -2.006677
     35          6           0       -7.621039   -1.394781   -2.611901
     36          6           0       -6.726345   -2.232259   -1.976197
     37          6           0       -6.048528   -1.450453   -1.059372
     38          6           0       -8.627745   -1.828481   -3.617453
     39          6           0       -6.005767   -3.579954   -1.990367
     40          8           0       -6.359865   -4.572761   -2.718180
     41          6           0       -4.912919   -3.594975   -0.846155
     42          6           0       -5.200916   -4.673474    0.123753
     43          8           0       -5.713640   -4.514293    1.252804
     44          8           0       -4.962840   -5.839130   -0.371994
     45          6           0       -5.297780   -7.033544    0.433508
     46          6           0        2.324099   -5.098973    0.619181
     47          6           0        3.409708   -4.069862    0.964601
     48          6           0        4.105683   -3.326209    0.152388
     49          6           0        3.782864   -3.122868   -1.368881
     50          6           0        5.321084   -2.425814    0.620585
     51          6           0        6.612564   -2.721772   -0.033561
     52          6           0        7.652961   -1.802246    0.671849
     53          6           0        9.042600   -1.959004   -0.033635
     54          6           0        9.481253   -3.411727    0.193956
     55          6           0       10.094261   -0.924953    0.488659
     56          6           0       11.402677   -0.783382   -0.269568
     57          6           0       12.420498    0.207975    0.314575
     58          6           0       13.664942    0.479216   -0.458666
     59          6           0       14.563800   -0.682711   -0.281381
     60          6           0       14.301169    1.886110   -0.025048
     61          6           0       15.559079    2.088430   -0.932285
     62          6           0       16.024444    3.558321   -0.709353
     63          6           0       17.256971    3.953316   -1.538440
     64          6           0       16.945695    4.246433   -2.999983
     65          6           0       17.874675    5.134565   -0.793159
     66          1           0       -2.716156    1.330576    3.497526
     67          1           0       -6.442471    5.596833    0.854638
     68          1           0       -8.693374    1.141507   -2.959040
     69          1           0       -3.631062   -3.078387    1.681606
     70          1           0       -1.839654   -1.019533    2.699395
     71          1           0       -3.421397   -2.718427    4.097934
     72          1           0       -3.120993   -1.004564    4.857107
     73          1           0       -4.768439   -1.664981    3.756828
     74          1           0       -2.397429   -3.057401   -0.327481
     75          1           0       -1.425383   -1.835664    0.311665
     76          1           0       -0.883356   -3.150178    2.276472
     77          1           0       -1.583345   -4.628522    1.452520
     78          1           0       -1.994562    3.166061    4.241850
     79          1           0       -2.510213    4.971669    4.513390
     80          1           0       -3.322690    3.671928    5.206615
     81          1           0       -5.279455    6.795099    2.236151
     82          1           0      -10.102252    2.773327   -3.357197
     83          1           0      -10.260618    4.393946   -2.842692
     84          1           0       -9.585791    4.255651   -5.154431
     85          1           0       -8.340891    5.202287   -4.364315
     86          1           0       -7.995090    3.539774   -4.810195
     87          1           0       -8.615492   -1.336302   -4.487006
     88          1           0       -8.491825   -2.813819   -4.079365
     89          1           0       -9.562880   -1.632456   -3.172329
     90          1           0       -3.905593   -4.029522   -1.222917
     91          1           0        2.677727   -6.109222    0.964342
     92          1           0        2.285559   -5.106474   -0.548051
     93          1           0        3.642065   -4.092616    1.994075
     94          1           0        2.675742   -3.363557   -1.464211
     95          1           0        3.946314   -1.904531   -1.436985
     96          1           0        4.304732   -3.772114   -2.043858
     97          1           0        4.848316   -1.398478    0.397409
     98          1           0        5.359787   -2.604310    1.635693
     99          1           0        6.807913   -3.766424    0.046736
    100          1           0        6.695803   -2.271873   -1.033763
    101          1           0        7.120373   -0.690193    0.632777
    102          1           0        7.783033   -2.061411    1.715472
    103          1           0        9.027386   -1.642258   -1.015963
    104          1           0        8.782052   -4.232899   -0.331775
    105          1           0       10.623244   -3.321672   -0.248850
    106          1           0        9.629482   -3.587203    1.215597
    107          1           0        9.359961    0.057470    0.517570
    108          1           0       10.560683   -1.099699    1.631971
    109          1           0       11.988618   -1.771997   -0.353308
    110          1           0       11.116347   -0.637757   -1.333702
    111          1           0       11.796771    1.164826    0.263243
    112          1           0       12.573076   -0.090012    1.464294
    113          1           0       13.315078    0.580136   -1.428343
    114          1           0       15.151341   -1.040088    0.782794
    115          1           0       14.111222   -1.616835   -0.691326
    116          1           0       15.354355   -0.756297   -0.979816
    117          1           0       13.472191    2.517551   -0.276505
    118          1           0       14.579225    1.853569    0.943651
    119          1           0       16.170131    1.224537   -0.733420
    120          1           0       15.124295    1.903397   -1.933583
    121          1           0       15.178273    4.190342   -1.082743
    122          1           0       16.213393    3.503195    0.241668
    123          1           0       17.884359    2.989518   -1.560970
    124          1           0       16.355576    5.287894   -3.043280
    125          1           0       17.772499    4.421590   -3.435143
    126          1           0       16.444365    3.309683   -3.393377
    127          1           0       18.313850    5.081335    0.107036
    128          1           0       18.690176    5.748342   -1.558348
    129          1           0       17.064384    5.874443   -0.770835
    130          1           0       -4.921825   -7.881704   -0.012229
    131          1           0       -6.391722   -6.952173    0.418894
    132          1           0       -5.010566   -6.936628    1.350912
    133          8           0       -7.927197    6.838004   -0.540655
    134          1           0       -9.475755    6.234459   -1.964491
 ---------------------------------------------------------------------

 SCF Done:  E(RCAM-B3LYP) =  -3043.44139303     A.U. after   16 cycles

 Excitation energies and oscillator strengths:

 Excited State   1:      Singlet-A      2.1110 eV  587.32 nm  f=0.1694  <S**2>=0.000
     243 -> 246        0.27891
     244 -> 245        0.63467
 This state for optimization and/or second-order correction.
 Total Energy, E(TD-HF/TD-DFT) =  -3043.36381455
 Copying the excited state density for this state as the 1-particle RhoCI density.

 The electronic state is 1-A.
 Alpha  occ. eigenvalues --  -46.80075 -19.23453 -19.21378 -19.18954 -19.18234
 Alpha  occ. eigenvalues --  -19.18206 -19.17164 -19.16086 -14.38431 -14.36793
 Alpha  occ. eigenvalues --  -14.36502 -14.35822 -10.35954 -10.34944 -10.32699
 Alpha  occ. eigenvalues --  -10.32697 -10.31703 -10.28253 -10.27843 -10.27210
 Alpha  occ. eigenvalues --  -10.27091 -10.26751 -10.26439 -10.26250 -10.26221
 Alpha  occ. eigenvalues --  -10.25396 -10.25355 -10.25313 -10.24812 -10.24306
 Alpha  occ. eigenvalues --  -10.24214 -10.24166 -10.24001 -10.23885 -10.23883
 Alpha  occ. eigenvalues --  -10.23340 -10.23114 -10.23053 -10.22839 -10.22803
 Alpha  occ. eigenvalues --  -10.22650 -10.22533 -10.22271 -10.22188 -10.22090
 Alpha  occ. eigenvalues --  -10.22079 -10.21941 -10.21932 -10.21848 -10.21780
 Alpha  occ. eigenvalues --  -10.21687 -10.21553 -10.21499 -10.21454 -10.21428
 Alpha  occ. eigenvalues --  -10.21132 -10.21130 -10.20926 -10.20835 -10.20802
 Alpha  occ. eigenvalues --  -10.20598 -10.20122 -10.20104 -10.19876 -10.19521
 Alpha  occ. eigenvalues --  -10.19456  -3.08850  -1.83772  -1.83316  -1.83282
 Alpha  occ. eigenvalues --   -1.15088  -1.09856  -1.07626  -1.05536  -1.03478
 Alpha  occ. eigenvalues --   -1.02857  -1.02242  -1.00724  -0.99655  -0.98174
 Alpha  occ. eigenvalues --   -0.97071  -0.88065  -0.87228  -0.86021  -0.85719
 Alpha  occ. eigenvalues --   -0.85502  -0.84762  -0.84104  -0.83821  -0.83572
 Alpha  occ. eigenvalues --   -0.83345  -0.82223  -0.82123  -0.81060  -0.80194
 Alpha  occ. eigenvalues --   -0.79573  -0.78782  -0.78402  -0.77750  -0.75969
 Alpha  occ. eigenvalues --   -0.75297  -0.74421  -0.74073  -0.73243  -0.72044
 Alpha  occ. eigenvalues --   -0.71749  -0.70650  -0.69948  -0.69732  -0.69363
 Alpha  occ. eigenvalues --   -0.68971  -0.68451  -0.66918  -0.66587  -0.66232
 Alpha  occ. eigenvalues --   -0.65163  -0.64662  -0.64453  -0.63264  -0.62210
 Alpha  occ. eigenvalues --   -0.61922  -0.61348  -0.60543  -0.59843  -0.58874
 Alpha  occ. eigenvalues --   -0.58759  -0.58068  -0.57797  -0.57781  -0.56890
 Alpha  occ. eigenvalues --   -0.56032  -0.55982  -0.55539  -0.54712  -0.54384
 Alpha  occ. eigenvalues --   -0.53977  -0.53831  -0.53282  -0.52736  -0.52461
 Alpha  occ. eigenvalues --   -0.52201  -0.52002  -0.51475  -0.51377  -0.51047
 Alpha  occ. eigenvalues --   -0.50393  -0.50052  -0.49955  -0.49431  -0.49185
 Alpha  occ. eigenvalues --   -0.48880  -0.48848  -0.48622  -0.48308  -0.47753
 Alpha  occ. eigenvalues --   -0.47600  -0.47448  -0.47246  -0.47065  -0.46748
 Alpha  occ. eigenvalues --   -0.46709  -0.46480  -0.46167  -0.46057  -0.45981
 Alpha  occ. eigenvalues --   -0.45660  -0.45418  -0.45150  -0.44668  -0.44480
 Alpha  occ. eigenvalues --   -0.44302  -0.44042  -0.43837  -0.43726  -0.43597
 Alpha  occ. eigenvalues --   -0.43514  -0.43406  -0.43353  -0.42850  -0.42603
 Alpha  occ. eigenvalues --   -0.42269  -0.42228  -0.42072  -0.41836  -0.41633
 Alpha  occ. eigenvalues --   -0.41388  -0.41293  -0.41157  -0.40986  -0.40931
 Alpha  occ. eigenvalues --   -0.40597  -0.40531  -0.40490  -0.40236  -0.40079
 Alpha  occ. eigenvalues --   -0.39859  -0.39714  -0.39627  -0.39289  -0.39207
 Alpha  occ. eigenvalues --   -0.38886  -0.38543  -0.38444  -0.38223  -0.38077
 Alpha  occ. eigenvalues --   -0.38017  -0.37890  -0.37689  -0.37268  -0.37047
 Alpha  occ. eigenvalues --   -0.36663  -0.36647  -0.36431  -0.36239  -0.35993
 Alpha  occ. eigenvalues --   -0.35506  -0.35101  -0.35044  -0.34904  -0.34729
 Alpha  occ. eigenvalues --   -0.34409  -0.34319  -0.33448  -0.33383  -0.33303
 Alpha  occ. eigenvalues --   -0.33144  -0.32952  -0.31880  -0.31697  -0.31619
 Alpha  occ. eigenvalues --   -0.31238  -0.30571  -0.30071  -0.29536  -0.29376
 Alpha  occ. eigenvalues --   -0.28799  -0.28477  -0.28236  -0.27878  -0.27689
 Alpha  occ. eigenvalues --   -0.27653  -0.27620  -0.23048  -0.21169
 Alpha virt. eigenvalues --   -0.07752  -0.06185  -0.01691  -0.01073  -0.00172
 Alpha virt. eigenvalues --    0.02117   0.03367   0.03659   0.04641   0.05146
 Alpha virt. eigenvalues --    0.05342   0.06076   0.07976   0.08713   0.09625

 Mulliken charges:
               1
     1  Mg   0.823199
     2  C    0.053984
     3  C   -0.100367
     4  C   -0.157902
     5  C   -0.158725
     6  N   -0.633247
     7  C    0.330035
     8  C   -0.139477
     9  C   -0.152678
    10  C    0.290820
    11  C   -0.285634
    12  C   -0.188078
    13  C   -0.246468
    14  C    0.601590
    15  O   -0.445062
    16  O   -0.512328
    17  N   -0.713959
    18  C    0.314701
    19  C    0.020745
    20  C   -0.059620
    21  C    0.317704
    22  C   -0.366288
    23  C    0.263248
    24  O   -0.396066
    25  N   -0.684418
    26  C    0.260725
    27  C   -0.030030
    28  C    0.038915
    29  C    0.302889
    30  C    0.240489
    31  C   -0.227280
    32  C   -0.309068
    33  N   -0.756544
    34  C    0.296672
    35  C   -0.009030
    36  C    0.043521
    37  C    0.313779
    38  C   -0.381945
    39  C    0.367785
    40  O   -0.478848
    41  C   -0.317544
    42  C    0.616776
    43  O   -0.513840
    44  O   -0.426176
    45  C   -0.081479
    46  C   -0.007546
    47  C   -0.126375
    48  C    0.106940
    49  C   -0.366810
    50  C   -0.216959
    51  C   -0.154186
    52  C   -0.170573
    53  C   -0.050471
    54  C   -0.298381
    55  C   -0.152575
    56  C   -0.183382
    57  C   -0.154725
    58  C   -0.059423
    59  C   -0.313428
    60  C   -0.170756
    61  C   -0.214555
    62  C   -0.133828
    63  C   -0.059717
    64  C   -0.287774
    65  C   -0.295088
    66  H    0.040370
    67  H    0.115947
    68  H    0.059110
    69  H    0.120280
    70  H    0.108333
    71  H    0.130065
    72  H    0.081049
    73  H    0.123766
    74  H    0.112512
    75  H    0.127587
    76  H    0.153217
    77  H    0.146007
    78  H    0.081420
    79  H    0.159863
    80  H    0.139484
    81  H    0.103327
    82  H    0.111009
    83  H    0.120819
    84  H    0.118667
    85  H    0.091347
    86  H    0.106416
    87  H    0.130429
    88  H    0.145607
    89  H    0.134718
    90  H    0.156566
    91  H    0.118480
    92  H    0.110871
    93  H    0.075272
    94  H    0.141921
    95  H    0.083721
    96  H    0.123613
    97  H    0.093864
    98  H    0.098803
    99  H    0.105064
   100  H    0.103872
   101  H    0.060067
   102  H    0.096086
   103  H    0.093485
   104  H    0.091673
   105  H    0.074692
   106  H    0.119948
   107  H    0.067961
   108  H    0.050337
   109  H    0.086409
   110  H    0.081641
   111  H    0.072966
   112  H    0.072325
   113  H    0.096971
   114  H    0.077658
   115  H    0.094649
   116  H    0.104501
   117  H    0.093025
   118  H    0.102443
   119  H    0.102486
   120  H    0.081875
   121  H    0.088055
   122  H    0.100888
   123  H    0.069950
   124  H    0.073976
   125  H    0.121329
   126  H    0.098804
   127  H    0.117805
   128  H    0.042979
   129  H    0.103125
   130  H    0.137648
   131  H    0.145099
   132  H    0.146615
   133  O   -0.417037
   134  H    0.060306
 Sum of Mulliken charges =  -0.00000

 Dipole moment (field-independent basis, Debye):
    X=              1.5041    Y=             -4.4188    Z=             -0.9049  Tot=              4.7547
 Quadrupole moment (field-independent basis, Debye-Ang):
   XX=           -373.6430   YY=           -423.4470   ZZ=           -394.9358
   XY=              0.4573   XZ=             21.6431   YZ=            -27.7377

 Normal termination of Gaussian 16 at Thu Oct 10 15:25:32 2019.
