 Gaussian 16, Revision A.03,
 Gaussian 16:  ES64L-G16RevA.03 25-Dec-2016

 ----------------------------------------------------------------------
 # td=(NStates=1) iop(3/107=0140000000,3/108=0140000000) iop(3/107=0140
 000000,3/108=0140000000) CAM-B3LYP/6-31G(d,p)
 ----------------------------------------------------------------------

 --
 TD
 --
 Symbolic Z-matrix:
 Charge =  0 Multiplicity = 1

                         Standard orientation:
 ---------------------------------------------------------------------
 Center     Atomic      Atomic             Coordinates (Angstroms)
 Number     Number       Type             X           Y           Z
 ---------------------------------------------------------------------
      1         12           0       -5.620680    1.285111    0.176207
      2          6           0       -5.057030   -2.102245   -0.425357
      3          6           0       -3.384186    1.156506    2.822363
      4          6           0       -6.202189    4.494619    0.654126
      5          6           0       -8.003660    1.087425   -2.311290
      6          7           0       -4.422161   -0.278526    1.011905
      7          6           0       -4.264899   -1.693364    0.681895
      8          6           0       -3.306970   -2.313541    1.442853
      9          6           0       -2.885212   -1.368157    2.681263
     10          6           0       -3.670649   -0.087884    2.078679
     11          6           0       -3.434599   -1.863397    4.020356
     12          6           0       -2.069380   -2.752768    0.651705
     13          6           0       -1.063350   -3.677321    1.481252
     14          6           0        0.236626   -3.907751    0.610040
     15          8           0        0.373348   -3.526537   -0.495441
     16          8           0        1.066985   -4.673916    1.253954
     17          7           0       -4.856659    2.589866    1.439833
     18          6           0       -3.927324    2.317789    2.461524
     19          6           0       -3.754305    3.590204    3.202908
     20          6           0       -4.497202    4.575676    2.543688
     21          6           0       -5.220488    3.903426    1.478382
     22          6           0       -2.799510    3.586084    4.375853
     23          6           0       -4.410351    5.975334    2.826523
     24          8           0       -3.700666    6.506877    3.728609
     25          7           0       -6.909172    2.673950   -0.716244
     26          6           0       -7.012416    3.871774   -0.321596
     27          6           0       -8.015606    4.582534   -1.171680
     28          6           0       -8.491705    3.589890   -2.101105
     29          6           0       -7.814468    2.422586   -1.741492
     30          6           0       -8.312051    6.027080   -1.032771
     31          6           0       -9.491630    3.849775   -3.182730
     32          6           0       -8.729911    4.416461   -4.433295
     33          7           0       -6.391087   -0.077428   -1.057205
     34          6           0       -7.332277   -0.075281   -2.031364
     35          6           0       -7.526151   -1.384153   -2.687852
     36          6           0       -6.576425   -2.141693   -2.062060
     37          6           0       -5.922866   -1.327483   -1.135687
     38          6           0       -8.279701   -1.589054   -3.927855
     39          6           0       -6.176207   -3.520502   -2.114112
     40          8           0       -6.461922   -4.504424   -2.746635
     41          6           0       -5.068968   -3.550176   -0.877443
     42          6           0       -5.327683   -4.589463    0.188261
     43          8           0       -5.811155   -4.386694    1.312161
     44          8           0       -4.851416   -5.789362   -0.273597
     45          6           0       -5.204262   -7.003392    0.527029
     46          6           0        2.368994   -5.028820    0.634870
     47          6           0        3.387410   -4.082823    0.911257
     48          6           0        4.023098   -3.160346    0.103516
     49          6           0        3.686032   -2.912699   -1.386833
     50          6           0        5.097679   -2.301075    0.646961
     51          6           0        6.430480   -2.708148   -0.047954
     52          6           0        7.675714   -1.799368    0.486737
     53          6           0        9.076445   -2.140121   -0.096829
     54          6           0        9.603671   -3.487590    0.319362
     55          6           0        9.986727   -0.911281    0.325487
     56          6           0       11.400698   -1.045716   -0.352737
     57          6           0       12.176253    0.272924   -0.003386
     58          6           0       13.528674    0.422601   -0.701406
     59          6           0       14.426012   -0.922193   -0.692423
     60          6           0       14.285552    1.666631   -0.137954
     61          6           0       15.510727    2.147036   -0.958248
     62          6           0       16.029934    3.543868   -0.537299
     63          6           0       17.264114    4.050973   -1.222521
     64          6           0       17.068722    4.275671   -2.678978
     65          6           0       17.564362    5.428726   -0.484074
     66          1           0       -2.755582    1.058332    3.743387
     67          1           0       -6.396077    5.638523    0.842639
     68          1           0       -8.769107    1.305965   -3.223958
     69          1           0       -3.741439   -3.343770    1.763652
     70          1           0       -1.740217   -1.234714    2.649411
     71          1           0       -2.990361   -2.796718    4.358970
     72          1           0       -3.291681   -1.194768    4.882157
     73          1           0       -4.663433   -2.113060    4.153403
     74          1           0       -2.424382   -3.268346   -0.319852
     75          1           0       -1.397528   -2.025452    0.175118
     76          1           0       -0.815171   -3.377530    2.486498
     77          1           0       -1.396478   -4.797553    1.768446
     78          1           0       -1.670126    3.179827    4.173216
     79          1           0       -2.668270    4.572207    4.952808
     80          1           0       -3.159455    2.999614    5.155131
     81          1           0       -5.125213    6.688592    2.042456
     82          1           0      -10.104256    3.016232   -3.545902
     83          1           0      -10.352052    4.516016   -2.729436
     84          1           0       -9.553876    4.726445   -5.258603
     85          1           0       -8.069821    5.288546   -4.180035
     86          1           0       -8.001259    3.778743   -4.933390
     87          1           0       -8.173568   -0.808188   -4.724919
     88          1           0       -8.088448   -2.573426   -4.441744
     89          1           0       -9.341610   -1.558820   -3.851547
     90          1           0       -4.296328   -3.744548   -1.438986
     91          1           0        2.463608   -6.148587    0.843101
     92          1           0        2.059590   -5.032910   -0.332309
     93          1           0        3.648435   -4.069557    1.934976
     94          1           0        2.678829   -3.481147   -1.466303
     95          1           0        3.466797   -1.501171   -1.279064
     96          1           0        4.375847   -3.212953   -2.071486
     97          1           0        4.949507   -1.260767    0.372370
     98          1           0        5.153907   -2.273773    1.737928
     99          1           0        6.884095   -3.778204    0.059236
    100          1           0        6.569615   -2.591830   -1.123896
    101          1           0        7.306005   -0.677159    0.375677
    102          1           0        7.581799   -1.954054    1.480172
    103          1           0        8.678104   -2.094376   -1.208757
    104          1           0        8.971147   -4.244661   -0.083042
    105          1           0       10.579667   -3.953308   -0.078493
    106          1           0        9.503271   -3.432327    1.397194
    107          1           0        9.572653    0.105691    0.122888
    108          1           0        9.970075   -0.875215    1.509826
    109          1           0       12.044814   -1.903795   -0.014010
    110          1           0       11.322164   -1.010235   -1.599388
    111          1           0       11.607461    1.251580   -0.233586
    112          1           0       12.277586    0.338576    1.022669
    113          1           0       13.326074    0.557948   -1.768845
    114          1           0       14.996577   -1.288198    0.302112
    115          1           0       13.639606   -1.781297   -0.846316
    116          1           0       15.271337   -0.658475   -1.368938
    117          1           0       13.551296    2.488888   -0.211350
    118          1           0       14.638998    1.499647    0.922050
    119          1           0       16.372089    1.393782   -0.825737
    120          1           0       15.447218    2.147450   -1.953787
    121          1           0       15.258346    4.337409   -0.889534
    122          1           0       16.218957    3.572066    0.452917
    123          1           0       18.166931    3.325157   -1.119882
    124          1           0       16.167413    4.792998   -3.118376
    125          1           0       17.965039    4.833272   -3.137252
    126          1           0       16.993494    3.270812   -3.107495
    127          1           0       17.693764    5.298268    0.554580
    128          1           0       18.526041    5.947689   -0.847021
    129          1           0       16.714555    6.031917   -0.828119
    130          1           0       -4.964849   -7.781715   -0.265372
    131          1           0       -6.236829   -6.665137    0.864048
    132          1           0       -4.598949   -7.105258    1.357697
    133          8           0       -7.954337    6.711621   -0.150254
    134          1           0       -9.177076    6.327179   -1.714222
 ---------------------------------------------------------------------

 SCF Done:  E(RCAM-B3LYP) =  -3043.47533487     A.U. after   15 cycles

 Excitation energies and oscillator strengths:

 Excited State   1:      Singlet-A      2.0671 eV  599.80 nm  f=0.1360  <S**2>=0.000
     243 -> 246       -0.29335
     244 -> 245        0.63130
 This state for optimization and/or second-order correction.
 Total Energy, E(TD-HF/TD-DFT) =  -3043.39937077
 Copying the excited state density for this state as the 1-particle RhoCI density.

 The electronic state is 1-A.
 Alpha  occ. eigenvalues --  -46.81030 -19.22287 -19.21669 -19.18396 -19.17593
 Alpha  occ. eigenvalues --  -19.16817 -19.16647 -19.16566 -14.39681 -14.37238
 Alpha  occ. eigenvalues --  -14.36359 -14.35729 -10.35547 -10.34469 -10.32082
 Alpha  occ. eigenvalues --  -10.30921 -10.29462 -10.28778 -10.27990 -10.27413
 Alpha  occ. eigenvalues --  -10.27230 -10.26447 -10.26428 -10.26234 -10.26073
 Alpha  occ. eigenvalues --  -10.25679 -10.25564 -10.25503 -10.25311 -10.25195
 Alpha  occ. eigenvalues --  -10.25151 -10.24823 -10.24764 -10.24658 -10.24210
 Alpha  occ. eigenvalues --  -10.24175 -10.24144 -10.24088 -10.23988 -10.23669
 Alpha  occ. eigenvalues --  -10.23352 -10.23243 -10.23222 -10.23190 -10.23089
 Alpha  occ. eigenvalues --  -10.23034 -10.22955 -10.22882 -10.22845 -10.22813
 Alpha  occ. eigenvalues --  -10.22677 -10.22633 -10.22313 -10.22004 -10.21931
 Alpha  occ. eigenvalues --  -10.21813 -10.21776 -10.21552 -10.21263 -10.21232
 Alpha  occ. eigenvalues --  -10.21202 -10.20467 -10.20325 -10.20110 -10.20069
 Alpha  occ. eigenvalues --  -10.19909  -3.09766  -1.84692  -1.84249  -1.84183
 Alpha  occ. eigenvalues --   -1.14805  -1.11606  -1.08810  -1.08429  -1.05952
 Alpha  occ. eigenvalues --   -1.03691  -1.03454  -1.02234  -1.00620  -0.99848
 Alpha  occ. eigenvalues --   -0.98319  -0.89516  -0.86558  -0.85816  -0.85154
 Alpha  occ. eigenvalues --   -0.85024  -0.84510  -0.84409  -0.83693  -0.82922
 Alpha  occ. eigenvalues --   -0.82457  -0.82018  -0.81442  -0.80086  -0.78931
 Alpha  occ. eigenvalues --   -0.78600  -0.78048  -0.76888  -0.76875  -0.76152
 Alpha  occ. eigenvalues --   -0.75164  -0.74749  -0.74487  -0.73218  -0.72170
 Alpha  occ. eigenvalues --   -0.71526  -0.71058  -0.70321  -0.69536  -0.69347
 Alpha  occ. eigenvalues --   -0.69094  -0.68519  -0.67070  -0.66642  -0.66307
 Alpha  occ. eigenvalues --   -0.65263  -0.65077  -0.63921  -0.62844  -0.61904
 Alpha  occ. eigenvalues --   -0.61572  -0.60603  -0.60292  -0.59413  -0.58934
 Alpha  occ. eigenvalues --   -0.58902  -0.58076  -0.57843  -0.57699  -0.57443
 Alpha  occ. eigenvalues --   -0.57245  -0.55879  -0.55791  -0.55066  -0.54446
 Alpha  occ. eigenvalues --   -0.53589  -0.53182  -0.52569  -0.52163  -0.51867
 Alpha  occ. eigenvalues --   -0.51617  -0.50965  -0.50851  -0.50741  -0.50598
 Alpha  occ. eigenvalues --   -0.50290  -0.49683  -0.49451  -0.49032  -0.48772
 Alpha  occ. eigenvalues --   -0.48612  -0.48211  -0.48186  -0.47906  -0.47496
 Alpha  occ. eigenvalues --   -0.47328  -0.47073  -0.46860  -0.46792  -0.46701
 Alpha  occ. eigenvalues --   -0.46469  -0.46044  -0.46009  -0.45819  -0.45575
 Alpha  occ. eigenvalues --   -0.45381  -0.45261  -0.44989  -0.44728  -0.44578
 Alpha  occ. eigenvalues --   -0.44363  -0.44334  -0.44083  -0.43744  -0.43696
 Alpha  occ. eigenvalues --   -0.43341  -0.43218  -0.42849  -0.42838  -0.42589
 Alpha  occ. eigenvalues --   -0.42494  -0.42421  -0.42270  -0.42127  -0.41895
 Alpha  occ. eigenvalues --   -0.41631  -0.41499  -0.41381  -0.41291  -0.41159
 Alpha  occ. eigenvalues --   -0.41020  -0.40619  -0.40375  -0.40291  -0.40062
 Alpha  occ. eigenvalues --   -0.39762  -0.39376  -0.39171  -0.38973  -0.38825
 Alpha  occ. eigenvalues --   -0.38534  -0.38456  -0.38295  -0.38124  -0.38104
 Alpha  occ. eigenvalues --   -0.37964  -0.37954  -0.37436  -0.37311  -0.37202
 Alpha  occ. eigenvalues --   -0.37072  -0.36679  -0.36300  -0.35846  -0.35783
 Alpha  occ. eigenvalues --   -0.35511  -0.35489  -0.35123  -0.34825  -0.34755
 Alpha  occ. eigenvalues --   -0.34656  -0.34029  -0.33871  -0.33553  -0.33240
 Alpha  occ. eigenvalues --   -0.33124  -0.32997  -0.32594  -0.31809  -0.31711
 Alpha  occ. eigenvalues --   -0.31441  -0.31076  -0.30864  -0.30184  -0.29779
 Alpha  occ. eigenvalues --   -0.29439  -0.27919  -0.27699  -0.27441  -0.27219
 Alpha  occ. eigenvalues --   -0.26952  -0.26634  -0.22880  -0.20996
 Alpha virt. eigenvalues --   -0.07615  -0.06794  -0.02523  -0.00274   0.01061
 Alpha virt. eigenvalues --    0.01508   0.02363   0.03861   0.04420   0.04602
 Alpha virt. eigenvalues --    0.05593   0.06410   0.07581   0.08175   0.09156

 Mulliken charges:
               1
     1  Mg   0.824224
     2  C   -0.015402
     3  C   -0.194424
     4  C   -0.195063
     5  C   -0.186454
     6  N   -0.623289
     7  C    0.362488
     8  C   -0.202415
     9  C   -0.125873
    10  C    0.332229
    11  C   -0.316142
    12  C   -0.188882
    13  C   -0.273749
    14  C    0.591365
    15  O   -0.455602
    16  O   -0.461333
    17  N   -0.762590
    18  C    0.350981
    19  C    0.059100
    20  C    0.000142
    21  C    0.349390
    22  C   -0.397121
    23  C    0.226848
    24  O   -0.438887
    25  N   -0.686828
    26  C    0.350372
    27  C   -0.075651
    28  C    0.046770
    29  C    0.246068
    30  C    0.245319
    31  C   -0.250871
    32  C   -0.309620
    33  N   -0.713752
    34  C    0.262735
    35  C    0.086752
    36  C    0.005895
    37  C    0.389953
    38  C   -0.407779
    39  C    0.338261
    40  O   -0.435407
    41  C   -0.298587
    42  C    0.624414
    43  O   -0.495678
    44  O   -0.472048
    45  C   -0.091587
    46  C   -0.016247
    47  C   -0.110778
    48  C    0.123161
    49  C   -0.321085
    50  C   -0.217592
    51  C   -0.201887
    52  C   -0.190595
    53  C   -0.054742
    54  C   -0.306131
    55  C   -0.166532
    56  C   -0.171963
    57  C   -0.172796
    58  C   -0.055813
    59  C   -0.314538
    60  C   -0.163250
    61  C   -0.190624
    62  C   -0.132684
    63  C   -0.070856
    64  C   -0.305768
    65  C   -0.303787
    66  H    0.096711
    67  H    0.140721
    68  H    0.084914
    69  H    0.135780
    70  H    0.120920
    71  H    0.121998
    72  H    0.114395
    73  H    0.106714
    74  H    0.111159
    75  H    0.132378
    76  H    0.131435
    77  H    0.112201
    78  H    0.107263
    79  H    0.149176
    80  H    0.137673
    81  H    0.052623
    82  H    0.112394
    83  H    0.112676
    84  H    0.089008
    85  H    0.117180
    86  H    0.122860
    87  H    0.130882
    88  H    0.142520
    89  H    0.136794
    90  H    0.161802
    91  H    0.118232
    92  H    0.122584
    93  H    0.080620
    94  H    0.138875
    95  H    0.053645
    96  H    0.138988
    97  H    0.108331
    98  H    0.105076
    99  H    0.087950
   100  H    0.102663
   101  H    0.070560
   102  H    0.098818
   103  H    0.069002
   104  H    0.109922
   105  H    0.102737
   106  H    0.110039
   107  H    0.100331
   108  H    0.076406
   109  H    0.106147
   110  H    0.070064
   111  H    0.072979
   112  H    0.101591
   113  H    0.087897
   114  H    0.074505
   115  H    0.091912
   116  H    0.108462
   117  H    0.086473
   118  H    0.090736
   119  H    0.070664
   120  H    0.098848
   121  H    0.071651
   122  H    0.093699
   123  H    0.072532
   124  H    0.094790
   125  H    0.091728
   126  H    0.102074
   127  H    0.106358
   128  H    0.082126
   129  H    0.103466
   130  H    0.139784
   131  H    0.144098
   132  H    0.140496
   133  O   -0.393154
   134  H    0.039355
 Sum of Mulliken charges =  -0.00000

 Dipole moment (field-independent basis, Debye):
    X=              3.3451    Y=             -7.1180    Z=             -1.0657  Tot=              7.9367
 Quadrupole moment (field-independent basis, Debye-Ang):
   XX=           -391.5483   YY=           -441.2848   ZZ=           -389.0686
   XY=             12.9561   XZ=             27.5907   YZ=            -36.6283

 Normal termination of Gaussian 16 at Tue Oct  8 03:18:50 2019.
