 Gaussian 16, Revision A.03,
 Gaussian 16:  ES64L-G16RevA.03 25-Dec-2016

 ----------------------------------------------------------------------
 # td=(NStates=1) iop(3/107=0140000000,3/108=0140000000) iop(3/107=0140
 000000,3/108=0140000000) CAM-B3LYP/6-31G(d,p)
 ----------------------------------------------------------------------

 --
 TD
 --
 Symbolic Z-matrix:
 Charge =  0 Multiplicity = 1

                         Standard orientation:
 ---------------------------------------------------------------------
 Center     Atomic      Atomic             Coordinates (Angstroms)
 Number     Number       Type             X           Y           Z
 ---------------------------------------------------------------------
      1         12           0       -5.549296    1.285819    0.106465
      2          6           0       -4.931626   -2.099177   -0.446588
      3          6           0       -3.381502    1.147360    2.726909
      4          6           0       -6.013374    4.545773    0.641986
      5          6           0       -7.935726    1.219043   -2.427235
      6          7           0       -4.378847   -0.269996    0.962222
      7          6           0       -4.267500   -1.689939    0.620016
      8          6           0       -3.294486   -2.416072    1.553301
      9          6           0       -3.007432   -1.371977    2.620099
     10          6           0       -3.644392   -0.082599    2.127920
     11          6           0       -3.352927   -1.752492    3.957425
     12          6           0       -2.012330   -2.729794    0.707152
     13          6           0       -1.005687   -3.678493    1.457629
     14          6           0        0.193167   -3.933655    0.649579
     15          8           0        0.447294   -3.498532   -0.530749
     16          8           0        1.058363   -4.799210    1.291877
     17          7           0       -4.837064    2.656217    1.351337
     18          6           0       -3.991680    2.376489    2.437813
     19          6           0       -3.622335    3.653763    3.177791
     20          6           0       -4.368122    4.619020    2.563377
     21          6           0       -5.097215    3.986635    1.395592
     22          6           0       -2.649390    3.824156    4.285558
     23          6           0       -4.515385    5.956530    2.922480
     24          8           0       -3.921990    6.582384    3.881670
     25          7           0       -6.760182    2.631984   -0.698220
     26          6           0       -6.896718    3.908633   -0.327171
     27          6           0       -7.998049    4.666351   -1.095948
     28          6           0       -8.399598    3.667027   -1.948575
     29          6           0       -7.689926    2.454334   -1.761477
     30          6           0       -8.354647    5.994503   -1.053063
     31          6           0       -9.374999    3.901510   -3.130699
     32          6           0       -8.603249    4.023859   -4.474804
     33          7           0       -6.247974   -0.024068   -1.205608
     34          6           0       -7.210468    0.083292   -2.202631
     35          6           0       -7.572795   -1.208369   -2.764868
     36          6           0       -6.688147   -2.144558   -2.152571
     37          6           0       -5.884448   -1.357415   -1.228176
     38          6           0       -8.445892   -1.559563   -3.772615
     39          6           0       -6.209381   -3.538006   -2.102660
     40          8           0       -6.528139   -4.439387   -2.752225
     41          6           0       -5.053528   -3.634593   -0.878025
     42          6           0       -5.420561   -4.762412    0.023381
     43          8           0       -5.834158   -4.479699    1.172367
     44          8           0       -5.043162   -5.944921   -0.401458
     45          6           0       -5.290820   -6.977876    0.644313
     46          6           0        2.269776   -5.060549    0.679969
     47          6           0        3.385902   -4.079156    1.080032
     48          6           0        3.930047   -3.099519    0.231386
     49          6           0        3.510706   -3.065559   -1.256466
     50          6           0        5.081856   -2.317155    0.804497
     51          6           0        6.413404   -2.755263    0.288627
     52          6           0        7.591103   -1.821585    0.742225
     53          6           0        9.053778   -1.993704   -0.094025
     54          6           0        9.520333   -3.367096    0.319975
     55          6           0        9.881550   -0.765527    0.441496
     56          6           0       11.233822   -0.845820   -0.205334
     57          6           0       12.212845    0.330677    0.009396
     58          6           0       13.442041    0.402098   -0.733557
     59          6           0       14.394978   -0.845419   -0.762990
     60          6           0       14.238131    1.671052   -0.210561
     61          6           0       15.405169    2.142599   -0.991103
     62          6           0       15.945215    3.474937   -0.566056
     63          6           0       17.220662    3.916455   -1.327885
     64          6           0       17.074635    4.020795   -2.800543
     65          6           0       17.672673    5.285227   -0.827221
     66          1           0       -2.827013    1.086579    3.653557
     67          1           0       -6.288350    5.635226    0.791359
     68          1           0       -8.771100    1.304199   -3.003651
     69          1           0       -3.832764   -3.298257    1.842070
     70          1           0       -1.876132   -0.907747    2.744596
     71          1           0       -2.662576   -2.608153    4.377123
     72          1           0       -3.302079   -1.009923    4.544698
     73          1           0       -4.435168   -2.333827    3.862469
     74          1           0       -2.301876   -3.312286   -0.405284
     75          1           0       -1.494767   -1.691484    0.518892
     76          1           0       -0.260943   -3.305033    2.294535
     77          1           0       -1.557925   -4.756679    1.561466
     78          1           0       -1.656790    3.828257    3.789820
     79          1           0       -2.606720    4.725875    5.010698
     80          1           0       -2.664301    2.955006    5.011307
     81          1           0       -5.547508    6.371949    2.486466
     82          1           0       -9.968900    2.949965   -3.092338
     83          1           0      -10.011649    4.783703   -2.964393
     84          1           0       -9.357520    4.079210   -5.098342
     85          1           0       -7.918726    4.757770   -4.477674
     86          1           0       -7.870464    3.279771   -4.427149
     87          1           0       -8.180269   -1.044511   -4.738318
     88          1           0       -8.344504   -2.725422   -4.044756
     89          1           0       -9.466926   -1.443565   -3.506975
     90          1           0       -4.158152   -3.923163   -1.419772
     91          1           0        2.616034   -6.053677    0.907302
     92          1           0        2.268715   -5.258993   -0.288668
     93          1           0        3.859475   -4.285073    2.174256
     94          1           0        2.590890   -3.414874   -1.435199
     95          1           0        3.564424   -1.996281   -1.797622
     96          1           0        4.393062   -3.641354   -1.730564
     97          1           0        4.911037   -1.342160    0.520772
     98          1           0        5.072373   -2.487959    1.940233
     99          1           0        6.559286   -3.824276    0.378738
    100          1           0        6.449954   -2.634001   -0.889755
    101          1           0        7.407875   -0.686476    0.597992
    102          1           0        7.877282   -1.985235    1.715626
    103          1           0        8.751422   -1.860988   -1.077102
    104          1           0        8.719153   -4.032411    0.125021
    105          1           0       10.366222   -3.673942   -0.284825
    106          1           0        9.985267   -3.411636    1.276538
    107          1           0        9.281009    0.225889    0.242847
    108          1           0        9.793932   -1.036352    1.463771
    109          1           0       11.569501   -1.958273    0.063142
    110          1           0       11.181494   -1.093701   -1.441859
    111          1           0       11.428207    1.188963   -0.164174
    112          1           0       12.659165    0.316508    1.119677
    113          1           0       13.283351    0.815778   -1.712404
    114          1           0       14.489725   -1.314409    0.322720
    115          1           0       14.004742   -1.725554   -1.342772
    116          1           0       15.378942   -0.580099   -1.247194
    117          1           0       13.445849    2.599711   -0.014013
    118          1           0       14.713828    1.260155    0.698942
    119          1           0       16.028680    1.272746   -0.871593
    120          1           0       15.211255    2.193005   -2.050805
    121          1           0       14.984331    4.062364   -0.943964
    122          1           0       16.058557    3.575294    0.623060
    123          1           0       18.165315    3.258677   -1.032892
    124          1           0       16.182418    4.808189   -3.031115
    125          1           0       18.059451    4.359354   -3.063101
    126          1           0       16.628417    2.971788   -3.134601
    127          1           0       17.881985    5.250793    0.143726
    128          1           0       18.699096    5.544779   -1.173493
    129          1           0       16.832972    6.107019   -0.976766
    130          1           0       -5.039244   -7.782765    0.220823
    131          1           0       -6.419553   -6.929798    0.671476
    132          1           0       -4.874108   -6.627064    1.704416
    133          8           0       -7.841033    6.796035   -0.198508
    134          1           0       -9.120797    6.394063   -1.768944
 ---------------------------------------------------------------------

 SCF Done:  E(RCAM-B3LYP) =  -3043.38401098     A.U. after   15 cycles

 Excitation energies and oscillator strengths:

 Excited State   1:      Singlet-A      2.1208 eV  584.61 nm  f=0.1410  <S**2>=0.000
     243 -> 246       -0.26290
     244 -> 245        0.63913
 This state for optimization and/or second-order correction.
 Total Energy, E(TD-HF/TD-DFT) =  -3043.30607338
 Copying the excited state density for this state as the 1-particle RhoCI density.

 The electronic state is 1-A.
 Alpha  occ. eigenvalues --  -46.80195 -19.24441 -19.22761 -19.17980 -19.17132
 Alpha  occ. eigenvalues --  -19.16639 -19.16561 -19.15674 -14.38776 -14.37451
 Alpha  occ. eigenvalues --  -14.37349 -14.37074 -10.35797 -10.35415 -10.31864
 Alpha  occ. eigenvalues --  -10.30037 -10.29551 -10.28578 -10.28309 -10.28209
 Alpha  occ. eigenvalues --  -10.27438 -10.27077 -10.26794 -10.26769 -10.26704
 Alpha  occ. eigenvalues --  -10.26215 -10.26004 -10.25943 -10.25799 -10.25749
 Alpha  occ. eigenvalues --  -10.25264 -10.24939 -10.24891 -10.24695 -10.24498
 Alpha  occ. eigenvalues --  -10.24315 -10.23992 -10.23863 -10.23675 -10.23599
 Alpha  occ. eigenvalues --  -10.23368 -10.22941 -10.22886 -10.22776 -10.22549
 Alpha  occ. eigenvalues --  -10.22483 -10.22473 -10.22415 -10.22350 -10.22338
 Alpha  occ. eigenvalues --  -10.22178 -10.22119 -10.22113 -10.22014 -10.21513
 Alpha  occ. eigenvalues --  -10.21512 -10.21369 -10.21335 -10.21331 -10.21316
 Alpha  occ. eigenvalues --  -10.21146 -10.20928 -10.19667 -10.19651 -10.19587
 Alpha  occ. eigenvalues --  -10.19543  -3.09152  -1.84058  -1.83626  -1.83603
 Alpha  occ. eigenvalues --   -1.14724  -1.13001  -1.11125  -1.03562  -1.02772
 Alpha  occ. eigenvalues --   -1.02319  -1.02257  -1.00050  -0.99177  -0.98652
 Alpha  occ. eigenvalues --   -0.97401  -0.87581  -0.86255  -0.85997  -0.85800
 Alpha  occ. eigenvalues --   -0.85266  -0.84937  -0.84679  -0.84384  -0.84122
 Alpha  occ. eigenvalues --   -0.83618  -0.83333  -0.82862  -0.80886  -0.79834
 Alpha  occ. eigenvalues --   -0.79736  -0.79150  -0.78520  -0.77773  -0.76701
 Alpha  occ. eigenvalues --   -0.75749  -0.75619  -0.74462  -0.73850  -0.72911
 Alpha  occ. eigenvalues --   -0.71334  -0.70835  -0.70615  -0.70022  -0.69456
 Alpha  occ. eigenvalues --   -0.69295  -0.68668  -0.67571  -0.67303  -0.66950
 Alpha  occ. eigenvalues --   -0.66275  -0.64570  -0.64188  -0.62425  -0.62005
 Alpha  occ. eigenvalues --   -0.61585  -0.60603  -0.59767  -0.59647  -0.58996
 Alpha  occ. eigenvalues --   -0.58794  -0.57668  -0.57388  -0.56685  -0.56412
 Alpha  occ. eigenvalues --   -0.56071  -0.55377  -0.55312  -0.55093  -0.54394
 Alpha  occ. eigenvalues --   -0.53783  -0.53403  -0.53203  -0.52770  -0.52276
 Alpha  occ. eigenvalues --   -0.52039  -0.51841  -0.51607  -0.51555  -0.51124
 Alpha  occ. eigenvalues --   -0.50447  -0.50099  -0.49704  -0.49584  -0.49531
 Alpha  occ. eigenvalues --   -0.49385  -0.48958  -0.48638  -0.48534  -0.48201
 Alpha  occ. eigenvalues --   -0.47821  -0.47713  -0.47521  -0.47463  -0.47280
 Alpha  occ. eigenvalues --   -0.47095  -0.46967  -0.46459  -0.46145  -0.45922
 Alpha  occ. eigenvalues --   -0.45695  -0.45503  -0.45143  -0.44994  -0.44649
 Alpha  occ. eigenvalues --   -0.44096  -0.43957  -0.43891  -0.43813  -0.43759
 Alpha  occ. eigenvalues --   -0.43600  -0.43574  -0.43270  -0.43082  -0.42847
 Alpha  occ. eigenvalues --   -0.42504  -0.42375  -0.41996  -0.41830  -0.41778
 Alpha  occ. eigenvalues --   -0.41496  -0.41309  -0.41101  -0.40799  -0.40590
 Alpha  occ. eigenvalues --   -0.40514  -0.40233  -0.40147  -0.40029  -0.39883
 Alpha  occ. eigenvalues --   -0.39695  -0.39484  -0.39455  -0.39389  -0.39264
 Alpha  occ. eigenvalues --   -0.38658  -0.38600  -0.38494  -0.38443  -0.38339
 Alpha  occ. eigenvalues --   -0.38053  -0.37976  -0.37908  -0.37544  -0.37080
 Alpha  occ. eigenvalues --   -0.36681  -0.36426  -0.36340  -0.35857  -0.35724
 Alpha  occ. eigenvalues --   -0.35559  -0.35405  -0.35149  -0.34809  -0.34399
 Alpha  occ. eigenvalues --   -0.34014  -0.33986  -0.33884  -0.33345  -0.33145
 Alpha  occ. eigenvalues --   -0.32581  -0.32511  -0.32348  -0.31804  -0.31484
 Alpha  occ. eigenvalues --   -0.30992  -0.30501  -0.30128  -0.29921  -0.29272
 Alpha  occ. eigenvalues --   -0.28760  -0.28493  -0.27812  -0.27558  -0.27283
 Alpha  occ. eigenvalues --   -0.26901  -0.25975  -0.23402  -0.21826
 Alpha virt. eigenvalues --   -0.08129  -0.06894  -0.01816  -0.01435   0.00484
 Alpha virt. eigenvalues --    0.01869   0.02195   0.03716   0.03973   0.04496
 Alpha virt. eigenvalues --    0.04704   0.05950   0.07474   0.07970   0.09001

 Mulliken charges:
               1
     1  Mg   0.824254
     2  C    0.037139
     3  C   -0.193563
     4  C   -0.218088
     5  C   -0.121114
     6  N   -0.628781
     7  C    0.273372
     8  C   -0.133705
     9  C   -0.139211
    10  C    0.376808
    11  C   -0.272096
    12  C   -0.149387
    13  C   -0.240100
    14  C    0.593192
    15  O   -0.494677
    16  O   -0.452821
    17  N   -0.715064
    18  C    0.288811
    19  C    0.075681
    20  C    0.036784
    21  C    0.376290
    22  C   -0.391478
    23  C    0.190710
    24  O   -0.454072
    25  N   -0.688337
    26  C    0.279297
    27  C    0.071954
    28  C   -0.021771
    29  C    0.256446
    30  C    0.182883
    31  C   -0.251978
    32  C   -0.293174
    33  N   -0.710190
    34  C    0.282227
    35  C    0.063402
    36  C    0.024137
    37  C    0.281666
    38  C   -0.428086
    39  C    0.332818
    40  O   -0.401275
    41  C   -0.318469
    42  C    0.630509
    43  O   -0.511090
    44  O   -0.439626
    45  C   -0.077244
    46  C    0.023714
    47  C   -0.164784
    48  C    0.112789
    49  C   -0.354766
    50  C   -0.201489
    51  C   -0.181088
    52  C   -0.191175
    53  C   -0.081623
    54  C   -0.311858
    55  C   -0.155184
    56  C   -0.165742
    57  C   -0.135973
    58  C   -0.042868
    59  C   -0.322818
    60  C   -0.179870
    61  C   -0.175426
    62  C   -0.144188
    63  C   -0.051619
    64  C   -0.269910
    65  C   -0.299281
    66  H    0.079114
    67  H    0.140935
    68  H    0.085451
    69  H    0.134139
    70  H    0.093649
    71  H    0.100533
    72  H    0.112054
    73  H    0.099675
    74  H    0.098435
    75  H    0.119922
    76  H    0.144961
    77  H    0.135524
    78  H    0.143400
    79  H    0.166731
    80  H    0.110322
    81  H    0.079974
    82  H    0.103581
    83  H    0.107128
    84  H    0.122627
    85  H    0.124587
    86  H    0.112149
    87  H    0.132231
    88  H    0.135848
    89  H    0.136051
    90  H    0.150180
    91  H    0.100266
    92  H    0.120773
    93  H    0.068069
    94  H    0.161343
    95  H    0.086539
    96  H    0.109425
    97  H    0.107686
    98  H    0.094084
    99  H    0.102127
   100  H    0.072184
   101  H    0.074204
   102  H    0.099664
   103  H    0.095112
   104  H    0.111362
   105  H    0.098901
   106  H    0.108526
   107  H    0.074121
   108  H    0.104236
   109  H    0.073122
   110  H    0.053370
   111  H    0.084849
   112  H    0.068126
   113  H    0.088445
   114  H    0.089800
   115  H    0.106561
   116  H    0.110275
   117  H    0.057096
   118  H    0.088627
   119  H    0.088161
   120  H    0.087789
   121  H    0.074774
   122  H    0.075251
   123  H    0.069152
   124  H    0.080641
   125  H    0.110521
   126  H    0.086869
   127  H    0.109372
   128  H    0.086825
   129  H    0.084397
   130  H    0.130977
   131  H    0.141211
   132  H    0.140237
   133  O   -0.460629
   134  H    0.076534
 Sum of Mulliken charges =  -0.00000

 Dipole moment (field-independent basis, Debye):
    X=              1.7488    Y=             -7.2404    Z=             -0.9455  Tot=              7.5084
 Quadrupole moment (field-independent basis, Debye-Ang):
   XX=           -370.3989   YY=           -440.6394   ZZ=           -395.4935
   XY=             18.1463   XZ=             29.6135   YZ=            -37.6627

 Normal termination of Gaussian 16 at Fri Oct  4 05:43:54 2019.
