 Gaussian 16, Revision A.03,
 Gaussian 16:  ES64L-G16RevA.03 25-Dec-2016

 ----------------------------------------------------------------------
 # td=(NStates=1) iop(3/107=0140000000,3/108=0140000000) iop(3/107=0140
 000000,3/108=0140000000) CAM-B3LYP/6-31G(d,p)
 ----------------------------------------------------------------------

 --
 TD
 --
 Symbolic Z-matrix:
 Charge =  0 Multiplicity = 1

                         Standard orientation:
 ---------------------------------------------------------------------
 Center     Atomic      Atomic             Coordinates (Angstroms)
 Number     Number       Type             X           Y           Z
 ---------------------------------------------------------------------
      1         12           0       -5.563701    1.257644    0.160105
      2          6           0       -5.025242   -2.111974   -0.389664
      3          6           0       -3.398783    1.191727    2.785067
      4          6           0       -6.173212    4.578863    0.677373
      5          6           0       -7.923950    1.128648   -2.382756
      6          7           0       -4.282301   -0.196513    1.007451
      7          6           0       -4.229092   -1.524070    0.697964
      8          6           0       -3.205050   -2.209522    1.518993
      9          6           0       -2.860523   -1.316938    2.670153
     10          6           0       -3.492829   -0.015484    2.103360
     11          6           0       -3.438110   -1.729858    4.053295
     12          6           0       -1.910869   -2.660945    0.620490
     13          6           0       -1.008494   -3.508456    1.487393
     14          6           0        0.166445   -3.908503    0.592717
     15          8           0        0.258197   -3.512906   -0.466949
     16          8           0        1.037061   -4.802568    1.215835
     17          7           0       -4.889681    2.721476    1.425997
     18          6           0       -3.956621    2.475560    2.381780
     19          6           0       -3.795418    3.686040    3.139079
     20          6           0       -4.546436    4.609300    2.472891
     21          6           0       -5.214181    4.040371    1.489745
     22          6           0       -2.726652    3.782836    4.239918
     23          6           0       -4.647719    6.041414    2.849541
     24          8           0       -4.151392    6.533285    3.858504
     25          7           0       -6.850571    2.705478   -0.720493
     26          6           0       -6.960032    3.947131   -0.342190
     27          6           0       -7.940039    4.543291   -1.164382
     28          6           0       -8.406865    3.582249   -2.065954
     29          6           0       -7.651952    2.313147   -1.728670
     30          6           0       -8.372300    5.889320   -1.114739
     31          6           0       -9.359534    3.835661   -3.156723
     32          6           0       -8.747863    4.084242   -4.550389
     33          7           0       -6.401821   -0.154004   -1.194428
     34          6           0       -7.355938   -0.104515   -2.129531
     35          6           0       -7.571972   -1.427285   -2.694460
     36          6           0       -6.586878   -2.239331   -2.143402
     37          6           0       -5.975042   -1.417477   -1.151896
     38          6           0       -8.645223   -1.683194   -3.768027
     39          6           0       -6.202907   -3.592718   -2.003402
     40          8           0       -6.458611   -4.527980   -2.725934
     41          6           0       -5.048392   -3.555377   -0.904275
     42          6           0       -5.358717   -4.580080    0.189090
     43          8           0       -5.858630   -4.311014    1.191970
     44          8           0       -4.977695   -5.843529   -0.236986
     45          6           0       -5.349462   -6.916610    0.573116
     46          6           0        2.266966   -5.059943    0.447923
     47          6           0        3.395081   -4.181856    1.030521
     48          6           0        4.026102   -3.320236    0.305924
     49          6           0        3.890424   -3.184706   -1.308807
     50          6           0        5.100242   -2.404632    0.793609
     51          6           0        6.491316   -2.752987    0.146877
     52          6           0        7.603321   -1.861618    0.623592
     53          6           0        9.001510   -1.911909   -0.107162
     54          6           0        9.547387   -3.391752    0.113422
     55          6           0       10.002883   -0.885217    0.461684
     56          6           0       11.409084   -0.940534   -0.245416
     57          6           0       12.246039    0.290530    0.108054
     58          6           0       13.623343    0.501765   -0.522342
     59          6           0       14.421501   -0.745056   -0.385223
     60          6           0       14.277901    1.700937   -0.199450
     61          6           0       15.475054    2.169800   -0.961500
     62          6           0       15.998438    3.589133   -0.693826
     63          6           0       17.357239    3.962057   -1.354589
     64          6           0       17.246943    4.008186   -2.911128
     65          6           0       17.774847    5.272472   -0.802395
     66          1           0       -2.630444    1.363741    3.630675
     67          1           0       -6.230361    5.661866    0.931094
     68          1           0       -8.731023    1.175625   -2.962160
     69          1           0       -3.761280   -3.206059    1.708967
     70          1           0       -1.854803   -1.211308    2.719993
     71          1           0       -3.019292   -2.483246    4.394933
     72          1           0       -3.357329   -1.003222    4.924248
     73          1           0       -4.432516   -2.106839    3.671192
     74          1           0       -2.188751   -3.294711   -0.204839
     75          1           0       -1.570902   -1.707099    0.332285
     76          1           0       -0.816551   -3.178552    2.668690
     77          1           0       -1.595472   -4.362679    1.791240
     78          1           0       -1.731506    3.658768    3.917897
     79          1           0       -2.666032    4.938555    4.867098
     80          1           0       -2.827572    2.964997    4.993477
     81          1           0       -5.311408    6.556579    2.184435
     82          1           0      -10.060424    2.876679   -3.115678
     83          1           0      -10.150955    4.507723   -2.928358
     84          1           0       -9.480672    4.310017   -5.388848
     85          1           0       -8.081557    5.119807   -4.418919
     86          1           0       -8.146951    3.232103   -4.777703
     87          1           0       -8.056256   -1.274249   -4.724654
     88          1           0       -8.485893   -2.873474   -3.933981
     89          1           0       -9.712450   -1.510344   -3.628897
     90          1           0       -4.153567   -3.977757   -1.477696
     91          1           0        2.519142   -6.205353    0.759350
     92          1           0        1.948427   -4.859094   -0.517592
     93          1           0        3.593667   -4.150007    2.189960
     94          1           0        2.781639   -3.625499   -1.518633
     95          1           0        3.810030   -1.911903   -1.377918
     96          1           0        4.824478   -3.631638   -1.756684
     97          1           0        4.719858   -1.249291    0.654215
     98          1           0        5.116696   -2.414490    1.938855
     99          1           0        6.588730   -3.818523    0.319762
    100          1           0        6.021125   -2.649111   -0.896492
    101          1           0        7.339259   -0.812408    0.878658
    102          1           0        7.807271   -2.270394    1.732684
    103          1           0        8.936874   -1.758931   -1.181169
    104          1           0        8.801310   -4.076110   -0.073990
    105          1           0       10.367290   -3.547276   -0.526836
    106          1           0        9.810390   -3.637951    1.214957
    107          1           0        9.558836    0.161481    0.137179
    108          1           0       10.087760   -1.117212    1.612698
    109          1           0       11.897016   -1.819105    0.015332
    110          1           0       11.411459   -0.935618   -1.271497
    111          1           0       11.617898    1.253393   -0.233543
    112          1           0       12.417870    0.285551    1.193148
    113          1           0       13.363593    0.647426   -1.602842
    114          1           0       14.535754   -1.366102    0.861740
    115          1           0       13.943861   -1.451568   -1.129650
    116          1           0       15.398562   -0.638664   -0.777896
    117          1           0       13.426287    2.420098   -0.264854
    118          1           0       14.525468    1.576153    0.981333
    119          1           0       16.208413    1.427123   -0.995099
    120          1           0       15.097111    2.183548   -2.094660
    121          1           0       15.218583    4.342230   -1.231357
    122          1           0       16.036332    3.710661    0.388255
    123          1           0       18.127121    3.092213   -0.895925
    124          1           0       16.559125    4.701616   -3.178883
    125          1           0       18.146530    4.026208   -3.372769
    126          1           0       16.892213    3.039293   -3.074390
    127          1           0       17.584410    5.268976    0.374820
    128          1           0       18.705384    5.651929   -1.203777
    129          1           0       16.848763    5.920139   -0.931320
    130          1           0       -4.972660   -7.879334    0.039890
    131          1           0       -6.497004   -6.971708    0.723883
    132          1           0       -4.831505   -6.967309    1.563220
    133          8           0       -7.822300    6.795065   -0.432595
    134          1           0       -9.132018    6.118638   -1.775985
 ---------------------------------------------------------------------

 SCF Done:  E(RCAM-B3LYP) =  -3043.41766797     A.U. after   16 cycles

 Excitation energies and oscillator strengths:

 Excited State   1:      Singlet-A      2.0354 eV  609.14 nm  f=0.1858  <S**2>=0.000
     243 -> 246       -0.26347
     244 -> 245        0.64925
 This state for optimization and/or second-order correction.
 Total Energy, E(TD-HF/TD-DFT) =  -3043.34286896
 Copying the excited state density for this state as the 1-particle RhoCI density.

 The electronic state is 1-A.
 Alpha  occ. eigenvalues --  -46.82655 -19.22569 -19.21254 -19.18948 -19.18640
 Alpha  occ. eigenvalues --  -19.17382 -19.16919 -19.15859 -14.39605 -14.36747
 Alpha  occ. eigenvalues --  -14.36434 -14.35897 -10.35340 -10.35266 -10.31367
 Alpha  occ. eigenvalues --  -10.29695 -10.28561 -10.28542 -10.28453 -10.28438
 Alpha  occ. eigenvalues --  -10.27693 -10.26483 -10.26140 -10.26104 -10.25945
 Alpha  occ. eigenvalues --  -10.25823 -10.25653 -10.25428 -10.25099 -10.25034
 Alpha  occ. eigenvalues --  -10.24909 -10.24624 -10.24500 -10.24438 -10.24315
 Alpha  occ. eigenvalues --  -10.24060 -10.23915 -10.23875 -10.23757 -10.23701
 Alpha  occ. eigenvalues --  -10.23597 -10.23510 -10.23234 -10.23171 -10.23159
 Alpha  occ. eigenvalues --  -10.22824 -10.22819 -10.22762 -10.22594 -10.22404
 Alpha  occ. eigenvalues --  -10.22299 -10.22262 -10.22246 -10.22202 -10.21952
 Alpha  occ. eigenvalues --  -10.21679 -10.21527 -10.21286 -10.21245 -10.21214
 Alpha  occ. eigenvalues --  -10.20815 -10.20754 -10.20652 -10.19909 -10.19755
 Alpha  occ. eigenvalues --  -10.18321  -3.10955  -1.85923  -1.85402  -1.85357
 Alpha  occ. eigenvalues --   -1.15949  -1.15347  -1.07969  -1.07696  -1.06384
 Alpha  occ. eigenvalues --   -1.05788  -1.03633  -1.01988  -1.01220  -1.00994
 Alpha  occ. eigenvalues --   -1.00297  -0.88928  -0.87111  -0.86498  -0.85956
 Alpha  occ. eigenvalues --   -0.85571  -0.84555  -0.84230  -0.83905  -0.83556
 Alpha  occ. eigenvalues --   -0.83419  -0.82694  -0.82237  -0.80568  -0.80114
 Alpha  occ. eigenvalues --   -0.79081  -0.78432  -0.77693  -0.76999  -0.76307
 Alpha  occ. eigenvalues --   -0.75220  -0.74572  -0.73767  -0.72938  -0.72505
 Alpha  occ. eigenvalues --   -0.71707  -0.70551  -0.70244  -0.70126  -0.69932
 Alpha  occ. eigenvalues --   -0.69196  -0.68796  -0.68242  -0.66876  -0.66639
 Alpha  occ. eigenvalues --   -0.66584  -0.65403  -0.65105  -0.63498  -0.62359
 Alpha  occ. eigenvalues --   -0.61998  -0.61338  -0.60714  -0.59329  -0.58782
 Alpha  occ. eigenvalues --   -0.58638  -0.58485  -0.57988  -0.57307  -0.56836
 Alpha  occ. eigenvalues --   -0.56417  -0.56406  -0.55778  -0.55510  -0.54691
 Alpha  occ. eigenvalues --   -0.53925  -0.53596  -0.53004  -0.52895  -0.52568
 Alpha  occ. eigenvalues --   -0.52104  -0.51890  -0.51622  -0.51367  -0.51190
 Alpha  occ. eigenvalues --   -0.50751  -0.50340  -0.49952  -0.49695  -0.49627
 Alpha  occ. eigenvalues --   -0.49140  -0.48940  -0.48789  -0.48442  -0.47874
 Alpha  occ. eigenvalues --   -0.47766  -0.47396  -0.47261  -0.47097  -0.46918
 Alpha  occ. eigenvalues --   -0.46818  -0.46654  -0.46535  -0.46307  -0.46240
 Alpha  occ. eigenvalues --   -0.45727  -0.45649  -0.45291  -0.45208  -0.45146
 Alpha  occ. eigenvalues --   -0.44797  -0.44706  -0.44516  -0.44235  -0.44148
 Alpha  occ. eigenvalues --   -0.43722  -0.43489  -0.43378  -0.43307  -0.43211
 Alpha  occ. eigenvalues --   -0.42988  -0.42917  -0.42650  -0.42186  -0.42089
 Alpha  occ. eigenvalues --   -0.41736  -0.41657  -0.41305  -0.40687  -0.40581
 Alpha  occ. eigenvalues --   -0.40564  -0.40479  -0.40330  -0.40096  -0.39966
 Alpha  occ. eigenvalues --   -0.39744  -0.39624  -0.39265  -0.39193  -0.39064
 Alpha  occ. eigenvalues --   -0.38811  -0.38650  -0.38532  -0.38365  -0.38047
 Alpha  occ. eigenvalues --   -0.37961  -0.37749  -0.37612  -0.37588  -0.37211
 Alpha  occ. eigenvalues --   -0.36972  -0.36663  -0.36212  -0.36162  -0.36071
 Alpha  occ. eigenvalues --   -0.35356  -0.35115  -0.34731  -0.34655  -0.34299
 Alpha  occ. eigenvalues --   -0.34241  -0.33996  -0.33749  -0.33699  -0.32979
 Alpha  occ. eigenvalues --   -0.32766  -0.32679  -0.32321  -0.32134  -0.32061
 Alpha  occ. eigenvalues --   -0.31848  -0.31698  -0.31377  -0.31071  -0.29705
 Alpha  occ. eigenvalues --   -0.28877  -0.28519  -0.28182  -0.28099  -0.27496
 Alpha  occ. eigenvalues --   -0.27372  -0.26998  -0.23058  -0.21578
 Alpha virt. eigenvalues --   -0.08531  -0.06382  -0.02020  -0.00452   0.00440
 Alpha virt. eigenvalues --    0.03037   0.03456   0.03719   0.03847   0.04804
 Alpha virt. eigenvalues --    0.05132   0.05362   0.08187   0.08365   0.09244

 Mulliken charges:
               1
     1  Mg   0.827292
     2  C    0.069471
     3  C   -0.186220
     4  C   -0.159075
     5  C   -0.151979
     6  N   -0.627599
     7  C    0.330943
     8  C   -0.214916
     9  C   -0.117559
    10  C    0.310607
    11  C   -0.290713
    12  C   -0.153177
    13  C   -0.289487
    14  C    0.616406
    15  O   -0.402143
    16  O   -0.499321
    17  N   -0.736105
    18  C    0.288037
    19  C    0.048173
    20  C   -0.044691
    21  C    0.362241
    22  C   -0.391563
    23  C    0.269953
    24  O   -0.425135
    25  N   -0.724966
    26  C    0.325124
    27  C    0.002647
    28  C   -0.002677
    29  C    0.332610
    30  C    0.234627
    31  C   -0.267756
    32  C   -0.287660
    33  N   -0.727017
    34  C    0.320053
    35  C    0.004586
    36  C    0.028838
    37  C    0.303252
    38  C   -0.388456
    39  C    0.363369
    40  O   -0.444430
    41  C   -0.348668
    42  C    0.612355
    43  O   -0.416422
    44  O   -0.448954
    45  C   -0.088991
    46  C   -0.004835
    47  C   -0.121150
    48  C    0.129266
    49  C   -0.350016
    50  C   -0.228294
    51  C   -0.165942
    52  C   -0.168018
    53  C   -0.057094
    54  C   -0.320649
    55  C   -0.156391
    56  C   -0.186549
    57  C   -0.157896
    58  C   -0.057044
    59  C   -0.274222
    60  C   -0.135085
    61  C   -0.173595
    62  C   -0.162237
    63  C   -0.049386
    64  C   -0.305697
    65  C   -0.284561
    66  H    0.078581
    67  H    0.129507
    68  H    0.072483
    69  H    0.106875
    70  H    0.112700
    71  H    0.123114
    72  H    0.111295
    73  H    0.120987
    74  H    0.127678
    75  H    0.126689
    76  H    0.113642
    77  H    0.142472
    78  H    0.139412
    79  H    0.125982
    80  H    0.114711
    81  H    0.082144
    82  H    0.084734
    83  H    0.122466
    84  H    0.113250
    85  H    0.092046
    86  H    0.123603
    87  H    0.132796
    88  H    0.132768
    89  H    0.142537
    90  H    0.156119
    91  H    0.103947
    92  H    0.131090
    93  H    0.085685
    94  H    0.114827
    95  H    0.091049
    96  H    0.140092
    97  H    0.077687
    98  H    0.076395
    99  H    0.113086
   100  H    0.091746
   101  H    0.093030
   102  H    0.071412
   103  H    0.088358
   104  H    0.107586
   105  H    0.106697
   106  H    0.084689
   107  H    0.076877
   108  H    0.084446
   109  H    0.112026
   110  H    0.096374
   111  H    0.058197
   112  H    0.087498
   113  H    0.074078
   114  H    0.041304
   115  H    0.097577
   116  H    0.105357
   117  H    0.080327
   118  H    0.050389
   119  H    0.101742
   120  H    0.065508
   121  H    0.067855
   122  H    0.097955
   123  H    0.047335
   124  H    0.111208
   125  H    0.111506
   126  H    0.110396
   127  H    0.078501
   128  H    0.104535
   129  H    0.088788
   130  H    0.117147
   131  H    0.119732
   132  H    0.114183
   133  O   -0.458404
   134  H    0.066090
 Sum of Mulliken charges =  -0.00000

 Dipole moment (field-independent basis, Debye):
    X=              2.1796    Y=             -5.8258    Z=             -1.7232  Tot=              6.4545
 Quadrupole moment (field-independent basis, Debye-Ang):
   XX=           -378.7158   YY=           -448.0037   ZZ=           -397.1396
   XY=             13.1804   XZ=             13.8435   YZ=            -37.7590

 Normal termination of Gaussian 16 at Thu Oct 10 07:50:44 2019.
