 Gaussian 16, Revision A.03,
 Gaussian 16:  ES64L-G16RevA.03 25-Dec-2016

 ----------------------------------------------------------------------
 # td=(NStates=1) iop(3/107=0140000000,3/108=0140000000) iop(3/107=0140
 000000,3/108=0140000000) CAM-B3LYP/6-31G(d,p)
 ----------------------------------------------------------------------

 --
 TD
 --
 Symbolic Z-matrix:
 Charge =  0 Multiplicity = 1

                         Standard orientation:
 ---------------------------------------------------------------------
 Center     Atomic      Atomic             Coordinates (Angstroms)
 Number     Number       Type             X           Y           Z
 ---------------------------------------------------------------------
      1         12           0       -5.633427    1.179078    0.242460
      2          6           0       -5.098988   -2.133618   -0.219618
      3          6           0       -3.476207    1.271279    2.766029
      4          6           0       -6.168434    4.548951    0.604027
      5          6           0       -8.072782    1.056873   -2.345300
      6          7           0       -4.450596   -0.295832    1.207103
      7          6           0       -4.214553   -1.626840    0.787164
      8          6           0       -3.224912   -2.276321    1.627456
      9          6           0       -2.952570   -1.274423    2.704573
     10          6           0       -3.681653    0.081621    2.168457
     11          6           0       -3.469909   -1.603152    4.065503
     12          6           0       -2.020377   -2.500007    0.776055
     13          6           0       -0.935479   -3.416380    1.509953
     14          6           0        0.184960   -3.903605    0.531760
     15          8           0        0.357910   -3.491594   -0.608442
     16          8           0        1.030696   -4.630448    1.297875
     17          7           0       -4.945374    2.649875    1.485787
     18          6           0       -3.988743    2.534601    2.483146
     19          6           0       -3.664147    3.791298    3.113897
     20          6           0       -4.507817    4.678738    2.503962
     21          6           0       -5.232439    4.012695    1.419558
     22          6           0       -2.828608    3.971342    4.237999
     23          6           0       -4.630964    6.098044    2.766347
     24          8           0       -4.087624    6.664212    3.646290
     25          7           0       -6.908633    2.560287   -0.658562
     26          6           0       -6.981794    3.937327   -0.433873
     27          6           0       -7.870052    4.528257   -1.354825
     28          6           0       -8.430278    3.555631   -2.109230
     29          6           0       -7.845269    2.308676   -1.693114
     30          6           0       -8.362411    5.917068   -1.300464
     31          6           0       -9.369999    3.683710   -3.289070
     32          6           0       -8.781228    3.995163   -4.693547
     33          7           0       -6.471947   -0.127976   -1.033861
     34          6           0       -7.370869   -0.083860   -2.086020
     35          6           0       -7.562169   -1.425779   -2.704369
     36          6           0       -6.690977   -2.266031   -1.931297
     37          6           0       -6.035741   -1.446315   -0.967909
     38          6           0       -8.486342   -1.853991   -3.844101
     39          6           0       -6.178355   -3.607072   -1.922944
     40          8           0       -6.394257   -4.606913   -2.588653
     41          6           0       -5.013942   -3.520134   -0.791224
     42          6           0       -5.258917   -4.750301    0.282876
     43          8           0       -5.632038   -4.408976    1.383377
     44          8           0       -4.994160   -5.925534   -0.348577
     45          6           0       -5.372965   -6.990212    0.553052
     46          6           0        2.268235   -5.096493    0.546513
     47          6           0        3.383173   -4.107837    0.870852
     48          6           0        4.123910   -3.271311    0.101946
     49          6           0        3.748521   -3.118469   -1.333020
     50          6           0        5.212713   -2.475100    0.725665
     51          6           0        6.552779   -2.667721    0.152539
     52          6           0        7.735808   -1.839590    0.619041
     53          6           0        9.044174   -1.986768   -0.157789
     54          6           0        9.655382   -3.312421    0.001168
     55          6           0        9.961083   -0.739911    0.372881
     56          6           0       11.236583   -0.748643   -0.305951
     57          6           0       12.202078    0.420024    0.059912
     58          6           0       13.608285    0.520039   -0.566015
     59          6           0       14.410634   -0.797748   -0.371259
     60          6           0       14.268112    1.775754   -0.220988
     61          6           0       15.580947    2.085509   -0.975334
     62          6           0       16.020641    3.498953   -0.678269
     63          6           0       17.418380    3.840294   -1.174971
     64          6           0       17.257082    3.875299   -2.800511
     65          6           0       17.916935    5.151193   -0.723858
     66          1           0       -2.654977    1.203042    3.586125
     67          1           0       -6.313084    5.624468    0.414072
     68          1           0       -8.711990    1.063012   -3.137681
     69          1           0       -3.643170   -3.025647    2.158236
     70          1           0       -1.832381   -1.151459    2.834437
     71          1           0       -3.011551   -2.656790    4.339327
     72          1           0       -3.086791   -1.062194    5.145793
     73          1           0       -4.581405   -1.589788    4.139031
     74          1           0       -2.193156   -3.277668   -0.063148
     75          1           0       -1.542251   -1.630947    0.337373
     76          1           0       -0.516754   -3.074024    2.547276
     77          1           0       -1.463731   -4.303400    1.720551
     78          1           0       -1.817169    3.210735    4.212147
     79          1           0       -2.735615    5.060902    4.472382
     80          1           0       -3.268823    3.455159    5.384906
     81          1           0       -5.399284    6.684289    2.178723
     82          1           0      -10.185770    2.780619   -3.391665
     83          1           0      -10.169582    4.559252   -3.252841
     84          1           0       -9.555818    4.104874   -5.356265
     85          1           0       -8.275215    5.000305   -4.546477
     86          1           0       -8.196701    3.227168   -5.005085
     87          1           0       -8.430969   -1.026606   -4.744055
     88          1           0       -8.289557   -2.794453   -4.277623
     89          1           0       -9.525680   -1.760168   -3.729770
     90          1           0       -4.096291   -3.794157   -1.402443
     91          1           0        2.556774   -6.107837    1.014162
     92          1           0        2.074790   -5.130945   -0.423397
     93          1           0        3.866980   -4.280339    1.910424
     94          1           0        2.670604   -3.243591   -1.495384
     95          1           0        4.017059   -2.318999   -1.809257
     96          1           0        4.461825   -3.653467   -2.097122
     97          1           0        4.938614   -1.431588    0.540207
     98          1           0        5.238467   -2.376857    1.751837
     99          1           0        6.771735   -3.690256    0.454803
    100          1           0        6.342711   -2.561649   -0.941525
    101          1           0        7.391588   -0.735810    0.723954
    102          1           0        7.663662   -1.905666    1.824625
    103          1           0        8.766351   -1.813292   -1.170798
    104          1           0        8.886574   -4.027439   -0.287078
    105          1           0       10.380543   -3.661637   -0.828472
    106          1           0       10.194713   -3.619477    0.878406
    107          1           0        9.354698    0.238921    0.330768
    108          1           0        9.843233   -0.906202    1.505271
    109          1           0       11.902857   -1.692878   -0.223099
    110          1           0       10.901679   -0.739113   -1.381407
    111          1           0       11.678151    1.461976   -0.061651
    112          1           0       12.373841    0.431797    1.192862
    113          1           0       13.446794    0.662946   -1.800386
    114          1           0       14.621419   -1.197344    0.738847
    115          1           0       14.202949   -1.833064   -0.871138
    116          1           0       15.207792   -0.562946   -0.914967
    117          1           0       13.481730    2.592512   -0.641134
    118          1           0       14.218078    1.914520    1.053569
    119          1           0       16.326462    1.300395   -0.640105
    120          1           0       15.431361    1.870844   -1.932106
    121          1           0       15.302228    4.122905   -1.154255
    122          1           0       16.151062    3.685117    0.508618
    123          1           0       18.157595    3.027590   -0.852686
    124          1           0       16.409498    4.396662   -3.046366
    125          1           0       18.147903    4.150818   -3.233335
    126          1           0       17.079599    2.682295   -3.084400
    127          1           0       18.005287    5.032681    0.379137
    128          1           0       18.874892    5.516390   -1.166571
    129          1           0       17.119940    5.979674   -1.027668
    130          1           0       -5.304487   -7.725689   -0.268676
    131          1           0       -6.423465   -6.593847    0.941945
    132          1           0       -4.550728   -7.016589    1.391085
    133          8           0       -7.837495    6.819666   -0.591863
    134          1           0       -9.256058    6.125528   -1.928452
 ---------------------------------------------------------------------

 SCF Done:  E(RCAM-B3LYP) =  -3043.43889637     A.U. after   16 cycles

 Excitation energies and oscillator strengths:

 Excited State   1:      Singlet-A      2.1176 eV  585.49 nm  f=0.1144  <S**2>=0.000
     243 -> 246       -0.35492
     244 -> 245        0.60013
 This state for optimization and/or second-order correction.
 Total Energy, E(TD-HF/TD-DFT) =  -3043.36107482
 Copying the excited state density for this state as the 1-particle RhoCI density.

 The electronic state is 1-A.
 Alpha  occ. eigenvalues --  -46.81126 -19.24035 -19.22796 -19.18956 -19.18003
 Alpha  occ. eigenvalues --  -19.17029 -19.16811 -19.16809 -14.38438 -14.36680
 Alpha  occ. eigenvalues --  -14.36590 -14.36525 -10.36161 -10.35563 -10.30878
 Alpha  occ. eigenvalues --  -10.30580 -10.29433 -10.29372 -10.28085 -10.27907
 Alpha  occ. eigenvalues --  -10.26717 -10.26602 -10.26588 -10.26209 -10.26089
 Alpha  occ. eigenvalues --  -10.25965 -10.25960 -10.25775 -10.25340 -10.24874
 Alpha  occ. eigenvalues --  -10.24362 -10.24236 -10.24205 -10.24123 -10.24113
 Alpha  occ. eigenvalues --  -10.24074 -10.23972 -10.23857 -10.23658 -10.23618
 Alpha  occ. eigenvalues --  -10.23574 -10.23243 -10.23095 -10.22870 -10.22852
 Alpha  occ. eigenvalues --  -10.22704 -10.22587 -10.22444 -10.22366 -10.22255
 Alpha  occ. eigenvalues --  -10.22208 -10.22002 -10.21801 -10.21615 -10.21509
 Alpha  occ. eigenvalues --  -10.21439 -10.21307 -10.21048 -10.21009 -10.20922
 Alpha  occ. eigenvalues --  -10.20879 -10.20525 -10.20479 -10.20442 -10.20379
 Alpha  occ. eigenvalues --  -10.20207  -3.09680  -1.84621  -1.84142  -1.84099
 Alpha  occ. eigenvalues --   -1.14139  -1.12362  -1.08851  -1.07082  -1.06246
 Alpha  occ. eigenvalues --   -1.04578  -1.04306  -1.00950  -0.98990  -0.98891
 Alpha  occ. eigenvalues --   -0.97504  -0.88491  -0.87253  -0.86928  -0.85794
 Alpha  occ. eigenvalues --   -0.84968  -0.84817  -0.84065  -0.83724  -0.83369
 Alpha  occ. eigenvalues --   -0.82877  -0.82519  -0.81533  -0.80403  -0.79628
 Alpha  occ. eigenvalues --   -0.78859  -0.78633  -0.77605  -0.76832  -0.76606
 Alpha  occ. eigenvalues --   -0.76220  -0.74934  -0.74278  -0.72653  -0.72523
 Alpha  occ. eigenvalues --   -0.71459  -0.71113  -0.70630  -0.70053  -0.69192
 Alpha  occ. eigenvalues --   -0.68833  -0.68646  -0.66829  -0.66359  -0.66083
 Alpha  occ. eigenvalues --   -0.65623  -0.65013  -0.63703  -0.62604  -0.62317
 Alpha  occ. eigenvalues --   -0.61972  -0.60297  -0.59800  -0.59591  -0.59272
 Alpha  occ. eigenvalues --   -0.59044  -0.58226  -0.57624  -0.57315  -0.56727
 Alpha  occ. eigenvalues --   -0.56414  -0.55883  -0.55109  -0.54708  -0.54361
 Alpha  occ. eigenvalues --   -0.53744  -0.53294  -0.52948  -0.52390  -0.52334
 Alpha  occ. eigenvalues --   -0.51973  -0.51362  -0.51152  -0.50766  -0.50505
 Alpha  occ. eigenvalues --   -0.50432  -0.50286  -0.49837  -0.49266  -0.49109
 Alpha  occ. eigenvalues --   -0.48732  -0.48444  -0.48287  -0.47879  -0.47542
 Alpha  occ. eigenvalues --   -0.47299  -0.47071  -0.47031  -0.46830  -0.46770
 Alpha  occ. eigenvalues --   -0.46733  -0.46277  -0.46233  -0.46061  -0.45996
 Alpha  occ. eigenvalues --   -0.45909  -0.45385  -0.45159  -0.44884  -0.44597
 Alpha  occ. eigenvalues --   -0.44477  -0.44274  -0.44155  -0.43841  -0.43802
 Alpha  occ. eigenvalues --   -0.43703  -0.43352  -0.43033  -0.42942  -0.42730
 Alpha  occ. eigenvalues --   -0.42690  -0.42485  -0.42431  -0.42147  -0.41783
 Alpha  occ. eigenvalues --   -0.41741  -0.41494  -0.41186  -0.40979  -0.40845
 Alpha  occ. eigenvalues --   -0.40678  -0.40580  -0.40446  -0.40203  -0.40177
 Alpha  occ. eigenvalues --   -0.40014  -0.39871  -0.39755  -0.39389  -0.39108
 Alpha  occ. eigenvalues --   -0.38856  -0.38381  -0.38299  -0.38267  -0.38188
 Alpha  occ. eigenvalues --   -0.37964  -0.37801  -0.37582  -0.37193  -0.36727
 Alpha  occ. eigenvalues --   -0.36613  -0.36431  -0.36173  -0.35845  -0.35593
 Alpha  occ. eigenvalues --   -0.35417  -0.35285  -0.34893  -0.34869  -0.34693
 Alpha  occ. eigenvalues --   -0.34479  -0.34328  -0.33589  -0.33356  -0.33194
 Alpha  occ. eigenvalues --   -0.33113  -0.32087  -0.31787  -0.31715  -0.31646
 Alpha  occ. eigenvalues --   -0.31297  -0.31071  -0.30743  -0.30397  -0.29446
 Alpha  occ. eigenvalues --   -0.28485  -0.27846  -0.27798  -0.27518  -0.27278
 Alpha  occ. eigenvalues --   -0.27029  -0.26988  -0.22600  -0.21772
 Alpha virt. eigenvalues --   -0.07993  -0.06776  -0.02248  -0.00659   0.01115
 Alpha virt. eigenvalues --    0.02305   0.03119   0.03639   0.03825   0.04570
 Alpha virt. eigenvalues --    0.04910   0.06144   0.07643   0.08315   0.08787

 Mulliken charges:
               1
     1  Mg   0.810393
     2  C    0.097828
     3  C   -0.205689
     4  C   -0.180221
     5  C   -0.139888
     6  N   -0.644297
     7  C    0.271893
     8  C   -0.108707
     9  C   -0.149133
    10  C    0.384609
    11  C   -0.306218
    12  C   -0.184524
    13  C   -0.280943
    14  C    0.600955
    15  O   -0.468057
    16  O   -0.461550
    17  N   -0.710455
    18  C    0.325558
    19  C    0.143124
    20  C   -0.039367
    21  C    0.336470
    22  C   -0.394860
    23  C    0.236614
    24  O   -0.397824
    25  N   -0.677109
    26  C    0.261168
    27  C   -0.026502
    28  C    0.070014
    29  C    0.266133
    30  C    0.248646
    31  C   -0.284648
    32  C   -0.290855
    33  N   -0.734321
    34  C    0.279563
    35  C    0.051000
    36  C    0.023345
    37  C    0.303593
    38  C   -0.385300
    39  C    0.343599
    40  O   -0.463865
    41  C   -0.357200
    42  C    0.611984
    43  O   -0.452260
    44  O   -0.429258
    45  C   -0.096708
    46  C   -0.003869
    47  C   -0.144981
    48  C    0.166508
    49  C   -0.391159
    50  C   -0.243113
    51  C   -0.161669
    52  C   -0.179998
    53  C   -0.045344
    54  C   -0.314238
    55  C   -0.169856
    56  C   -0.160472
    57  C   -0.165968
    58  C   -0.038742
    59  C   -0.307015
    60  C   -0.144887
    61  C   -0.172513
    62  C   -0.141953
    63  C   -0.059111
    64  C   -0.309179
    65  C   -0.284343
    66  H    0.074182
    67  H    0.133944
    68  H    0.077378
    69  H    0.133196
    70  H    0.099332
    71  H    0.093210
    72  H    0.088857
    73  H    0.128785
    74  H    0.112493
    75  H    0.135012
    76  H    0.125634
    77  H    0.137833
    78  H    0.097687
    79  H    0.164828
    80  H    0.088909
    81  H    0.074818
    82  H    0.085843
    83  H    0.097228
    84  H    0.121006
    85  H    0.108926
    86  H    0.121499
    87  H    0.092975
    88  H    0.157770
    89  H    0.146417
    90  H    0.148380
    91  H    0.121531
    92  H    0.139617
    93  H    0.070464
    94  H    0.151420
    95  H    0.121573
    96  H    0.092460
    97  H    0.099594
    98  H    0.099859
    99  H    0.103849
   100  H    0.077944
   101  H    0.072858
   102  H    0.064600
   103  H    0.097983
   104  H    0.106952
   105  H    0.085831
   106  H    0.116338
   107  H    0.086636
   108  H    0.080805
   109  H    0.093640
   110  H    0.088713
   111  H    0.064702
   112  H    0.079282
   113  H    0.047154
   114  H    0.086802
   115  H    0.091218
   116  H    0.113390
   117  H    0.073378
   118  H    0.053864
   119  H    0.091813
   120  H    0.107839
   121  H    0.096103
   122  H    0.066804
   123  H    0.077188
   124  H    0.113159
   125  H    0.108059
   126  H    0.066006
   127  H    0.095383
   128  H    0.100703
   129  H    0.078296
   130  H    0.145927
   131  H    0.138650
   132  H    0.125583
   133  O   -0.444094
   134  H    0.079154
 Sum of Mulliken charges =  -0.00000

 Dipole moment (field-independent basis, Debye):
    X=              2.8645    Y=             -5.9274    Z=             -1.6502  Tot=              6.7869
 Quadrupole moment (field-independent basis, Debye-Ang):
   XX=           -364.6959   YY=           -435.5198   ZZ=           -391.9181
   XY=             13.3960   XZ=             19.9173   YZ=            -33.5806

 Normal termination of Gaussian 16 at Fri Oct  4 12:29:21 2019.
