 Gaussian 16, Revision A.03,
 Gaussian 16:  ES64L-G16RevA.03 25-Dec-2016

 ----------------------------------------------------------------------
 # td=(NStates=1) iop(3/107=0140000000,3/108=0140000000) iop(3/107=0140
 000000,3/108=0140000000) CAM-B3LYP/6-31G(d,p)
 ----------------------------------------------------------------------

 --
 TD
 --
 Symbolic Z-matrix:
 Charge =  0 Multiplicity = 1

                         Standard orientation:
 ---------------------------------------------------------------------
 Center     Atomic      Atomic             Coordinates (Angstroms)
 Number     Number       Type             X           Y           Z
 ---------------------------------------------------------------------
      1         12           0       -5.574471    1.273982    0.162281
      2          6           0       -5.001081   -2.155380   -0.373575
      3          6           0       -3.509056    1.139253    2.837848
      4          6           0       -6.250381    4.625732    0.719416
      5          6           0       -8.007891    1.149532   -2.291606
      6          7           0       -4.271543   -0.309797    0.966068
      7          6           0       -4.130204   -1.601799    0.593070
      8          6           0       -3.207687   -2.393291    1.506609
      9          6           0       -2.997628   -1.387240    2.631338
     10          6           0       -3.573057   -0.012641    2.079540
     11          6           0       -3.667821   -1.783883    4.036422
     12          6           0       -1.915614   -2.714695    0.640479
     13          6           0       -0.975839   -3.641011    1.427449
     14          6           0        0.146184   -3.980743    0.631954
     15          8           0        0.415959   -3.470754   -0.535782
     16          8           0        1.025694   -4.752798    1.314226
     17          7           0       -5.064270    2.666724    1.515048
     18          6           0       -3.966510    2.386736    2.468482
     19          6           0       -3.663158    3.706892    3.146920
     20          6           0       -4.532319    4.583897    2.602234
     21          6           0       -5.304065    4.053258    1.527606
     22          6           0       -2.723683    3.707270    4.301342
     23          6           0       -4.624644    6.107328    2.812826
     24          8           0       -3.799370    6.635868    3.581295
     25          7           0       -6.882648    2.674587   -0.691602
     26          6           0       -6.942691    3.957437   -0.350526
     27          6           0       -7.838595    4.609522   -1.243791
     28          6           0       -8.354455    3.693990   -2.174953
     29          6           0       -7.713122    2.443451   -1.739242
     30          6           0       -8.350134    6.042656   -1.154793
     31          6           0       -9.284972    3.897879   -3.228175
     32          6           0       -8.551364    4.200802   -4.524271
     33          7           0       -6.227651   -0.113839   -1.140951
     34          6           0       -7.342084   -0.059458   -2.040403
     35          6           0       -7.606842   -1.327645   -2.667861
     36          6           0       -6.674067   -2.200764   -2.047741
     37          6           0       -5.808865   -1.365684   -1.185293
     38          6           0       -8.497297   -1.585482   -3.809544
     39          6           0       -6.265093   -3.637012   -1.880616
     40          8           0       -6.602561   -4.678662   -2.521284
     41          6           0       -5.054233   -3.669778   -0.953960
     42          6           0       -5.298008   -4.669971    0.141058
     43          8           0       -5.788638   -4.386230    1.243941
     44          8           0       -5.087731   -5.932994   -0.368780
     45          6           0       -5.334532   -7.015502    0.542874
     46          6           0        2.314024   -5.086384    0.635378
     47          6           0        3.405427   -4.117938    0.997489
     48          6           0        4.021827   -3.241838    0.134469
     49          6           0        3.530621   -2.997054   -1.313350
     50          6           0        5.156624   -2.342566    0.592061
     51          6           0        6.434995   -2.689969   -0.015723
     52          6           0        7.572613   -1.751159    0.575569
     53          6           0        8.963460   -1.969937   -0.169669
     54          6           0        9.588435   -3.344265   -0.046624
     55          6           0        9.945284   -0.848666    0.509238
     56          6           0       11.130635   -0.835827   -0.345325
     57          6           0       12.191865    0.239505    0.126055
     58          6           0       13.504381    0.493189   -0.619023
     59          6           0       14.329670   -0.790708   -0.482042
     60          6           0       14.243122    1.675385   -0.114259
     61          6           0       15.562311    2.151422   -0.829164
     62          6           0       16.158270    3.519988   -0.531181
     63          6           0       17.368918    3.898893   -1.341552
     64          6           0       17.400919    3.925407   -2.807966
     65          6           0       17.909752    5.183661   -0.633593
     66          1           0       -2.666082    1.072125    3.695689
     67          1           0       -6.556022    5.540510    0.859371
     68          1           0       -8.859881    1.238680   -3.099996
     69          1           0       -3.626838   -3.331163    1.709357
     70          1           0       -1.887323   -1.282560    2.601352
     71          1           0       -3.387707   -2.829006    4.356758
     72          1           0       -3.119650   -1.102016    4.819246
     73          1           0       -4.762261   -1.781196    4.106280
     74          1           0       -2.296652   -3.379202   -0.166500
     75          1           0       -1.420093   -1.841035    0.536239
     76          1           0       -0.399885   -3.053717    2.393968
     77          1           0       -1.390702   -4.496183    1.819656
     78          1           0       -1.662421    3.178923    3.935490
     79          1           0       -2.564409    4.782955    4.561554
     80          1           0       -2.988512    3.234604    5.140486
     81          1           0       -5.530109    6.690011    2.304433
     82          1           0      -10.144885    3.089037   -3.464597
     83          1           0       -9.951904    4.908160   -3.048132
     84          1           0       -9.246977    4.287645   -5.487107
     85          1           0       -8.088469    5.051255   -4.392895
     86          1           0       -7.826788    3.424893   -5.037999
     87          1           0       -8.198121   -1.116228   -4.557586
     88          1           0       -8.480524   -2.786534   -3.764077
     89          1           0       -9.635253   -1.242082   -3.559771
     90          1           0       -4.149551   -3.982244   -1.281983
     91          1           0        2.730698   -6.155207    1.154873
     92          1           0        2.010149   -5.108906   -0.356029
     93          1           0        3.830391   -4.325708    1.941571
     94          1           0        2.381398   -3.176846   -1.547109
     95          1           0        3.745447   -1.913621   -1.631987
     96          1           0        3.970288   -3.641066   -1.953000
     97          1           0        4.840427   -1.300140    0.376597
     98          1           0        5.222183   -2.557637    1.728909
     99          1           0        6.565282   -3.685541    0.189265
    100          1           0        6.439404   -2.599980   -1.201026
    101          1           0        7.292004   -0.899262    0.410509
    102          1           0        7.925442   -2.030997    1.664383
    103          1           0        8.890930   -1.468498   -1.141612
    104          1           0        8.693105   -4.110793   -0.124288
    105          1           0       10.453758   -3.587115   -0.690235
    106          1           0        9.741885   -3.467333    0.991969
    107          1           0        9.385310    0.084024    0.429424
    108          1           0       10.170084   -0.738776    1.532040
    109          1           0       11.661731   -1.840849   -0.233873
    110          1           0       10.915889   -0.552538   -1.363698
    111          1           0       11.753523    1.245373    0.285570
    112          1           0       12.631325    0.056542    1.038257
    113          1           0       13.175026    0.658547   -1.658714
    114          1           0       14.747809   -0.912761    0.555080
    115          1           0       13.776019   -1.579055   -0.922867
    116          1           0       15.196860   -0.703454   -1.068943
    117          1           0       13.626655    2.503564   -0.207831
    118          1           0       14.354481    1.574886    0.939211
    119          1           0       16.446828    1.623263   -0.608706
    120          1           0       15.396605    1.881171   -1.945713
    121          1           0       15.451854    4.242598   -0.610628
    122          1           0       16.231680    3.521509    0.575838
    123          1           0       18.293731    3.007770   -1.275421
    124          1           0       16.528232    4.559115   -3.142589
    125          1           0       18.415942    4.158462   -3.201874
    126          1           0       17.073047    2.878872   -3.065393
    127          1           0       18.032144    5.092248    0.436035
    128          1           0       18.824843    5.579526   -1.123269
    129          1           0       17.041992    5.820615   -0.755505
    130          1           0       -5.232253   -7.973487    0.072801
    131          1           0       -6.530637   -6.908967    0.831534
    132          1           0       -4.708753   -6.746864    1.531249
    133          8           0       -8.030507    6.862608   -0.237321
    134          1           0       -9.072157    6.245122   -1.943158
 ---------------------------------------------------------------------

 SCF Done:  E(RCAM-B3LYP) =  -3043.41632895     A.U. after   16 cycles

 Excitation energies and oscillator strengths:

 Excited State   1:      Singlet-A      2.1026 eV  589.67 nm  f=0.1337  <S**2>=0.000
     243 -> 246       -0.32215
     244 -> 245        0.61391
 This state for optimization and/or second-order correction.
 Total Energy, E(TD-HF/TD-DFT) =  -3043.33905935
 Copying the excited state density for this state as the 1-particle RhoCI density.

 The electronic state is 1-A.
 Alpha  occ. eigenvalues --  -46.81477 -19.23495 -19.22340 -19.18217 -19.17732
 Alpha  occ. eigenvalues --  -19.17490 -19.17080 -19.16652 -14.39052 -14.37075
 Alpha  occ. eigenvalues --  -14.36716 -14.36633 -10.35934 -10.35187 -10.32245
 Alpha  occ. eigenvalues --  -10.31782 -10.31030 -10.29616 -10.28715 -10.28136
 Alpha  occ. eigenvalues --  -10.27651 -10.27513 -10.26568 -10.26213 -10.26078
 Alpha  occ. eigenvalues --  -10.25995 -10.25895 -10.25806 -10.25805 -10.25607
 Alpha  occ. eigenvalues --  -10.25104 -10.25102 -10.24936 -10.24708 -10.24372
 Alpha  occ. eigenvalues --  -10.24262 -10.24213 -10.23914 -10.23762 -10.23506
 Alpha  occ. eigenvalues --  -10.23478 -10.23424 -10.23245 -10.23211 -10.22874
 Alpha  occ. eigenvalues --  -10.22787 -10.22576 -10.22473 -10.22461 -10.22234
 Alpha  occ. eigenvalues --  -10.22064 -10.21415 -10.21287 -10.21135 -10.20912
 Alpha  occ. eigenvalues --  -10.20875 -10.20790 -10.20679 -10.20529 -10.20444
 Alpha  occ. eigenvalues --  -10.20150 -10.19796 -10.19610 -10.19526 -10.19065
 Alpha  occ. eigenvalues --  -10.18839  -3.10009  -1.84953  -1.84494  -1.84397
 Alpha  occ. eigenvalues --   -1.12989  -1.11512  -1.05537  -1.04836  -1.04269
 Alpha  occ. eigenvalues --   -1.03982  -1.00986  -1.00829  -1.00465  -0.99213
 Alpha  occ. eigenvalues --   -0.96575  -0.87866  -0.86733  -0.86136  -0.86102
 Alpha  occ. eigenvalues --   -0.85693  -0.84918  -0.84668  -0.84309  -0.83604
 Alpha  occ. eigenvalues --   -0.83082  -0.82322  -0.82232  -0.80680  -0.80190
 Alpha  occ. eigenvalues --   -0.78656  -0.78278  -0.77783  -0.77478  -0.76736
 Alpha  occ. eigenvalues --   -0.75476  -0.75286  -0.74110  -0.72960  -0.72536
 Alpha  occ. eigenvalues --   -0.72137  -0.71628  -0.71081  -0.70264  -0.69820
 Alpha  occ. eigenvalues --   -0.69461  -0.69083  -0.67513  -0.66933  -0.66556
 Alpha  occ. eigenvalues --   -0.65227  -0.64397  -0.63775  -0.63001  -0.62592
 Alpha  occ. eigenvalues --   -0.61901  -0.61120  -0.60678  -0.59745  -0.58722
 Alpha  occ. eigenvalues --   -0.58460  -0.58171  -0.57968  -0.56986  -0.56892
 Alpha  occ. eigenvalues --   -0.56524  -0.56187  -0.55416  -0.55157  -0.54503
 Alpha  occ. eigenvalues --   -0.54481  -0.53967  -0.52935  -0.52857  -0.52614
 Alpha  occ. eigenvalues --   -0.51914  -0.51761  -0.51596  -0.50914  -0.50507
 Alpha  occ. eigenvalues --   -0.50288  -0.50029  -0.49889  -0.49713  -0.48991
 Alpha  occ. eigenvalues --   -0.48805  -0.48732  -0.48373  -0.48326  -0.47881
 Alpha  occ. eigenvalues --   -0.47632  -0.47400  -0.47194  -0.47050  -0.46906
 Alpha  occ. eigenvalues --   -0.46702  -0.46566  -0.46471  -0.46312  -0.46099
 Alpha  occ. eigenvalues --   -0.45616  -0.45359  -0.45331  -0.45027  -0.44748
 Alpha  occ. eigenvalues --   -0.44633  -0.44464  -0.44377  -0.43993  -0.43543
 Alpha  occ. eigenvalues --   -0.43252  -0.43203  -0.43057  -0.42667  -0.42633
 Alpha  occ. eigenvalues --   -0.42519  -0.42389  -0.42116  -0.41692  -0.41668
 Alpha  occ. eigenvalues --   -0.41526  -0.41364  -0.41306  -0.41154  -0.41097
 Alpha  occ. eigenvalues --   -0.40745  -0.40658  -0.40445  -0.40150  -0.40104
 Alpha  occ. eigenvalues --   -0.39887  -0.39773  -0.39523  -0.39081  -0.38905
 Alpha  occ. eigenvalues --   -0.38801  -0.38771  -0.38670  -0.38427  -0.38370
 Alpha  occ. eigenvalues --   -0.38308  -0.38007  -0.37888  -0.37728  -0.37295
 Alpha  occ. eigenvalues --   -0.37200  -0.36826  -0.36451  -0.36186  -0.35460
 Alpha  occ. eigenvalues --   -0.35431  -0.35104  -0.34862  -0.34462  -0.34378
 Alpha  occ. eigenvalues --   -0.34215  -0.33566  -0.33375  -0.33229  -0.33191
 Alpha  occ. eigenvalues --   -0.32745  -0.32203  -0.31990  -0.31893  -0.31416
 Alpha  occ. eigenvalues --   -0.31196  -0.30539  -0.30088  -0.29770  -0.29653
 Alpha  occ. eigenvalues --   -0.28764  -0.28211  -0.28035  -0.27834  -0.27607
 Alpha  occ. eigenvalues --   -0.27488  -0.27126  -0.23027  -0.21762
 Alpha virt. eigenvalues --   -0.08150  -0.06938  -0.02678  -0.01006  -0.00311
 Alpha virt. eigenvalues --    0.00992   0.01794   0.03181   0.03514   0.04060
 Alpha virt. eigenvalues --    0.04484   0.05087   0.07342   0.07741   0.08590

 Mulliken charges:
               1
     1  Mg   0.823639
     2  C    0.050641
     3  C   -0.177986
     4  C   -0.114169
     5  C   -0.169097
     6  N   -0.603455
     7  C    0.285395
     8  C   -0.156164
     9  C   -0.141712
    10  C    0.318593
    11  C   -0.307211
    12  C   -0.145857
    13  C   -0.270809
    14  C    0.619489
    15  O   -0.517196
    16  O   -0.474531
    17  N   -0.701965
    18  C    0.271402
    19  C    0.054048
    20  C   -0.036825
    21  C    0.328266
    22  C   -0.380158
    23  C    0.247383
    24  O   -0.416038
    25  N   -0.699161
    26  C    0.312762
    27  C   -0.071682
    28  C    0.105462
    29  C    0.274006
    30  C    0.264303
    31  C   -0.305300
    32  C   -0.291082
    33  N   -0.696711
    34  C    0.263686
    35  C    0.039653
    36  C   -0.016918
    37  C    0.290489
    38  C   -0.352616
    39  C    0.385566
    40  O   -0.483394
    41  C   -0.257308
    42  C    0.600476
    43  O   -0.469949
    44  O   -0.441164
    45  C   -0.075669
    46  C    0.019814
    47  C   -0.133501
    48  C    0.132389
    49  C   -0.392061
    50  C   -0.227188
    51  C   -0.171027
    52  C   -0.132712
    53  C   -0.071806
    54  C   -0.310620
    55  C   -0.188695
    56  C   -0.169610
    57  C   -0.181351
    58  C   -0.078696
    59  C   -0.307201
    60  C   -0.171507
    61  C   -0.189521
    62  C   -0.180540
    63  C   -0.029833
    64  C   -0.292256
    65  C   -0.307459
    66  H    0.089450
    67  H    0.092248
    68  H    0.091279
    69  H    0.113930
    70  H    0.095209
    71  H    0.109375
    72  H    0.100078
    73  H    0.140841
    74  H    0.121163
    75  H    0.126634
    76  H    0.124331
    77  H    0.141792
    78  H    0.091724
    79  H    0.153087
    80  H    0.147518
    81  H    0.105061
    82  H    0.106193
    83  H    0.100007
    84  H    0.087126
    85  H    0.131486
    86  H    0.102390
    87  H    0.147707
    88  H    0.143004
    89  H    0.103158
    90  H    0.159869
    91  H    0.091934
    92  H    0.131505
    93  H    0.081698
    94  H    0.152068
    95  H    0.093978
    96  H    0.132930
    97  H    0.102179
    98  H    0.089513
    99  H    0.105279
   100  H    0.079671
   101  H    0.094371
   102  H    0.079488
   103  H    0.086156
   104  H    0.081819
   105  H    0.118431
   106  H    0.116568
   107  H    0.080930
   108  H    0.093774
   109  H    0.092933
   110  H    0.095961
   111  H    0.067469
   112  H    0.088547
   113  H    0.069969
   114  H    0.092079
   115  H    0.103411
   116  H    0.104064
   117  H    0.095068
   118  H    0.083598
   119  H    0.103032
   120  H    0.072115
   121  H    0.097070
   122  H    0.096645
   123  H    0.022316
   124  H    0.085466
   125  H    0.113277
   126  H    0.106016
   127  H    0.108095
   128  H    0.091090
   129  H    0.098814
   130  H    0.142762
   131  H    0.113777
   132  H    0.114258
   133  O   -0.449384
   134  H    0.076852
 Sum of Mulliken charges =  -0.00000

 Dipole moment (field-independent basis, Debye):
    X=              1.9651    Y=             -4.6976    Z=             -0.3558  Tot=              5.1045
 Quadrupole moment (field-independent basis, Debye-Ang):
   XX=           -397.2293   YY=           -435.0104   ZZ=           -390.9314
   XY=              6.1602   XZ=             24.1554   YZ=            -36.6255

 Normal termination of Gaussian 16 at Wed Oct  9 16:29:44 2019.
