 Gaussian 16, Revision A.03,
 Gaussian 16:  ES64L-G16RevA.03 25-Dec-2016

 ----------------------------------------------------------------------
 # td=(NStates=1) iop(3/107=0140000000,3/108=0140000000) iop(3/107=0140
 000000,3/108=0140000000) CAM-B3LYP/6-31G(d,p)
 ----------------------------------------------------------------------

 --
 TD
 --
 Symbolic Z-matrix:
 Charge =  0 Multiplicity = 1

                         Standard orientation:
 ---------------------------------------------------------------------
 Center     Atomic      Atomic             Coordinates (Angstroms)
 Number     Number       Type             X           Y           Z
 ---------------------------------------------------------------------
      1         12           0       -5.574489    1.233072    0.166620
      2          6           0       -5.038540   -2.102450   -0.279474
      3          6           0       -3.412042    1.233907    2.778276
      4          6           0       -6.107405    4.552758    0.606762
      5          6           0       -7.938680    1.185560   -2.316120
      6          7           0       -4.377008   -0.218992    1.009784
      7          6           0       -4.187239   -1.612613    0.640817
      8          6           0       -3.131365   -2.381082    1.452406
      9          6           0       -2.839313   -1.310396    2.522799
     10          6           0       -3.559644   -0.032390    2.064751
     11          6           0       -3.349345   -1.707143    3.988903
     12          6           0       -1.936804   -2.614580    0.588212
     13          6           0       -1.068020   -3.678557    1.315411
     14          6           0        0.215640   -4.024318    0.544235
     15          8           0        0.325525   -3.532030   -0.523738
     16          8           0        1.038072   -4.887500    1.122713
     17          7           0       -4.904806    2.649170    1.453798
     18          6           0       -3.936341    2.447944    2.415089
     19          6           0       -3.787181    3.626962    3.176140
     20          6           0       -4.545777    4.620605    2.443831
     21          6           0       -5.169193    3.967455    1.408148
     22          6           0       -2.913075    3.930034    4.333807
     23          6           0       -4.557975    6.019775    2.896354
     24          8           0       -3.988271    6.673677    3.784858
     25          7           0       -6.757031    2.648840   -0.720934
     26          6           0       -6.815849    4.045406   -0.430193
     27          6           0       -7.819890    4.636307   -1.294306
     28          6           0       -8.354782    3.698142   -2.090497
     29          6           0       -7.654449    2.520854   -1.757773
     30          6           0       -8.108519    6.169432   -1.260247
     31          6           0       -9.308640    3.787000   -3.177906
     32          6           0       -8.693028    3.886386   -4.569573
     33          7           0       -6.368961   -0.055672   -1.107312
     34          6           0       -7.418627   -0.049987   -2.087266
     35          6           0       -7.718637   -1.346199   -2.552990
     36          6           0       -6.716465   -2.159813   -2.018477
     37          6           0       -6.003038   -1.308195   -1.089253
     38          6           0       -8.660639   -1.787531   -3.646124
     39          6           0       -6.248373   -3.623644   -1.915031
     40          8           0       -6.616394   -4.615030   -2.465722
     41          6           0       -4.999850   -3.588128   -0.813028
     42          6           0       -5.335307   -4.607077    0.193378
     43          8           0       -5.800755   -4.427408    1.330362
     44          8           0       -5.043407   -5.794684   -0.310205
     45          6           0       -5.365840   -6.835401    0.540509
     46          6           0        2.312381   -5.053994    0.546172
     47          6           0        3.364720   -4.188827    0.989519
     48          6           0        3.963042   -3.211362    0.213207
     49          6           0        3.794494   -3.221694   -1.253865
     50          6           0        5.086074   -2.461187    0.767552
     51          6           0        6.458472   -2.674325    0.043572
     52          6           0        7.558146   -1.769453    0.620812
     53          6           0        9.031487   -2.012947   -0.002874
     54          6           0        9.496824   -3.508991    0.038077
     55          6           0        9.941666   -0.938513    0.445609
     56          6           0       11.264766   -0.840148   -0.401414
     57          6           0       12.188583    0.248281    0.195467
     58          6           0       13.539494    0.435256   -0.549377
     59          6           0       14.448323   -0.781116   -0.372645
     60          6           0       14.270111    1.741708   -0.077332
     61          6           0       15.478873    2.091153   -0.941902
     62          6           0       15.969415    3.478223   -0.530129
     63          6           0       17.283816    3.994140   -1.338520
     64          6           0       16.984208    3.938968   -2.849957
     65          6           0       17.783651    5.297627   -0.894391
     66          1           0       -2.666885    1.272960    3.561533
     67          1           0       -6.220897    5.702841    0.556738
     68          1           0       -8.671997    1.286594   -3.185704
     69          1           0       -3.687475   -3.408053    1.745921
     70          1           0       -1.659031   -1.058665    2.481211
     71          1           0       -2.853177   -2.635084    4.367922
     72          1           0       -3.262627   -0.935627    4.800930
     73          1           0       -4.472109   -1.804436    3.871932
     74          1           0       -1.840004   -2.884809   -0.419946
     75          1           0       -1.309284   -1.498449    0.445907
     76          1           0       -0.680170   -3.297636    2.422871
     77          1           0       -1.603329   -4.680113    1.538862
     78          1           0       -1.655080    3.800780    4.477231
     79          1           0       -3.044073    4.968179    4.744810
     80          1           0       -3.116816    3.336392    5.317278
     81          1           0       -5.176600    6.721710    2.192215
     82          1           0       -9.939157    2.860748   -2.957328
     83          1           0      -10.085250    4.558041   -2.950095
     84          1           0       -9.658709    4.136981   -5.331391
     85          1           0       -8.064433    4.617290   -4.705850
     86          1           0       -8.347165    2.820783   -4.821343
     87          1           0       -8.535467   -1.322500   -4.715370
     88          1           0       -8.628360   -2.933103   -3.574883
     89          1           0       -9.660419   -1.600416   -3.290796
     90          1           0       -3.868120   -3.689229   -1.420838
     91          1           0        2.376220   -6.203699    0.816553
     92          1           0        2.372432   -5.069594   -0.544846
     93          1           0        3.765227   -4.269762    2.132085
     94          1           0        2.803293   -3.397776   -1.950317
     95          1           0        4.207631   -2.117465   -1.698067
     96          1           0        4.613131   -3.908831   -1.617513
     97          1           0        4.935543   -1.554626    0.675474
     98          1           0        5.067090   -2.686817    1.972740
     99          1           0        6.912986   -3.797769   -0.009558
    100          1           0        6.381023   -2.253875   -1.066462
    101          1           0        7.289519   -0.672623    0.594260
    102          1           0        7.556824   -2.131426    1.685644
    103          1           0        8.751232   -1.629004   -1.047446
    104          1           0        8.582975   -3.945808   -0.045622
    105          1           0       10.448461   -3.615502   -0.452719
    106          1           0        9.769413   -3.519384    1.073868
    107          1           0        9.518774   -0.021400    0.391761
    108          1           0       10.119318   -1.076150    1.529677
    109          1           0       11.738826   -1.816861   -0.413684
    110          1           0       10.755294   -0.472349   -1.344588
    111          1           0       11.534429    1.223805    0.053171
    112          1           0       12.126018    0.077482    1.333785
    113          1           0       13.377215    0.530861   -1.630912
    114          1           0       14.951152   -0.891440    0.674017
    115          1           0       14.018805   -1.733036   -0.741428
    116          1           0       15.378383   -0.713977   -1.090083
    117          1           0       13.429880    2.511658   -0.046358
    118          1           0       14.620337    1.702666    0.961453
    119          1           0       16.238544    1.277102   -1.002836
    120          1           0       15.322153    2.001247   -2.123009
    121          1           0       15.262056    4.280345   -0.738539
    122          1           0       16.347898    3.591211    0.558232
    123          1           0       18.177586    3.351416   -0.906543
    124          1           0       16.151309    4.634446   -3.162416
    125          1           0       17.838668    4.067465   -3.455866
    126          1           0       16.554501    3.085686   -3.126235
    127          1           0       17.841507    5.364540    0.200326
    128          1           0       18.751669    5.602254   -1.217743
    129          1           0       17.218161    6.184705   -1.174400
    130          1           0       -5.037154   -7.679073    0.056944
    131          1           0       -6.415083   -7.004663    0.662300
    132          1           0       -5.020560   -6.603644    1.669955
    133          8           0       -7.655659    6.832170   -0.351867
    134          1           0       -8.656316    6.279697   -2.279793
 ---------------------------------------------------------------------

 SCF Done:  E(RCAM-B3LYP) =  -3043.42230432     A.U. after   16 cycles

 Excitation energies and oscillator strengths:

 Excited State   1:      Singlet-A      1.9235 eV  644.59 nm  f=0.2370  <S**2>=0.000
     243 -> 246        0.17574
     244 -> 245        0.67739
 This state for optimization and/or second-order correction.
 Total Energy, E(TD-HF/TD-DFT) =  -3043.35161828
 Copying the excited state density for this state as the 1-particle RhoCI density.

 The electronic state is 1-A.
 Alpha  occ. eigenvalues --  -46.80238 -19.23779 -19.22748 -19.19437 -19.19115
 Alpha  occ. eigenvalues --  -19.17575 -19.16794 -19.16223 -14.39074 -14.36925
 Alpha  occ. eigenvalues --  -14.36167 -14.35529 -10.35489 -10.34423 -10.33474
 Alpha  occ. eigenvalues --  -10.32647 -10.29845 -10.28181 -10.27707 -10.26944
 Alpha  occ. eigenvalues --  -10.26916 -10.26756 -10.26587 -10.26083 -10.25999
 Alpha  occ. eigenvalues --  -10.25889 -10.25561 -10.25459 -10.25376 -10.25177
 Alpha  occ. eigenvalues --  -10.25146 -10.25027 -10.24967 -10.24437 -10.24372
 Alpha  occ. eigenvalues --  -10.24262 -10.24261 -10.24104 -10.23989 -10.23949
 Alpha  occ. eigenvalues --  -10.23811 -10.23547 -10.23369 -10.23301 -10.23191
 Alpha  occ. eigenvalues --  -10.22862 -10.22587 -10.22509 -10.22343 -10.22291
 Alpha  occ. eigenvalues --  -10.22242 -10.22212 -10.22190 -10.22181 -10.22128
 Alpha  occ. eigenvalues --  -10.22122 -10.22108 -10.22009 -10.21592 -10.21479
 Alpha  occ. eigenvalues --  -10.21242 -10.21218 -10.20013 -10.19571 -10.18877
 Alpha  occ. eigenvalues --  -10.18833  -3.09057  -1.83976  -1.83532  -1.83489
 Alpha  occ. eigenvalues --   -1.16089  -1.15197  -1.09706  -1.08794  -1.06888
 Alpha  occ. eigenvalues --   -1.04778  -1.04357  -1.00790  -1.00048  -0.98592
 Alpha  occ. eigenvalues --   -0.97996  -0.87375  -0.87078  -0.86176  -0.85656
 Alpha  occ. eigenvalues --   -0.85324  -0.84390  -0.84217  -0.83924  -0.82733
 Alpha  occ. eigenvalues --   -0.82476  -0.82065  -0.81468  -0.80788  -0.79606
 Alpha  occ. eigenvalues --   -0.78951  -0.78526  -0.77779  -0.77329  -0.76647
 Alpha  occ. eigenvalues --   -0.75581  -0.74167  -0.73395  -0.72462  -0.72318
 Alpha  occ. eigenvalues --   -0.72111  -0.71889  -0.70944  -0.69777  -0.69413
 Alpha  occ. eigenvalues --   -0.69278  -0.68754  -0.67186  -0.66644  -0.66038
 Alpha  occ. eigenvalues --   -0.65383  -0.64684  -0.63959  -0.62323  -0.61427
 Alpha  occ. eigenvalues --   -0.61048  -0.60787  -0.60284  -0.59450  -0.58820
 Alpha  occ. eigenvalues --   -0.58592  -0.58094  -0.58057  -0.57407  -0.56658
 Alpha  occ. eigenvalues --   -0.56207  -0.55727  -0.55471  -0.54830  -0.54662
 Alpha  occ. eigenvalues --   -0.53477  -0.52871  -0.52457  -0.52342  -0.52136
 Alpha  occ. eigenvalues --   -0.51930  -0.51785  -0.51327  -0.51076  -0.50804
 Alpha  occ. eigenvalues --   -0.50569  -0.50165  -0.49668  -0.49129  -0.48997
 Alpha  occ. eigenvalues --   -0.48728  -0.48549  -0.48331  -0.48100  -0.48038
 Alpha  occ. eigenvalues --   -0.47628  -0.47470  -0.47086  -0.46929  -0.46648
 Alpha  occ. eigenvalues --   -0.46542  -0.46427  -0.46217  -0.46078  -0.45648
 Alpha  occ. eigenvalues --   -0.45383  -0.45116  -0.44994  -0.44847  -0.44550
 Alpha  occ. eigenvalues --   -0.44330  -0.44201  -0.43926  -0.43755  -0.43603
 Alpha  occ. eigenvalues --   -0.43444  -0.43289  -0.42962  -0.42946  -0.42816
 Alpha  occ. eigenvalues --   -0.42242  -0.41989  -0.41821  -0.41756  -0.41640
 Alpha  occ. eigenvalues --   -0.41588  -0.41076  -0.41033  -0.40833  -0.40734
 Alpha  occ. eigenvalues --   -0.40369  -0.40281  -0.40013  -0.39814  -0.39771
 Alpha  occ. eigenvalues --   -0.39608  -0.39514  -0.39495  -0.39335  -0.39092
 Alpha  occ. eigenvalues --   -0.38940  -0.38841  -0.38749  -0.38479  -0.38375
 Alpha  occ. eigenvalues --   -0.37838  -0.37660  -0.37454  -0.37270  -0.37257
 Alpha  occ. eigenvalues --   -0.36867  -0.36435  -0.36324  -0.35855  -0.35573
 Alpha  occ. eigenvalues --   -0.35435  -0.35048  -0.35017  -0.34796  -0.34682
 Alpha  occ. eigenvalues --   -0.34426  -0.34362  -0.34075  -0.33682  -0.33580
 Alpha  occ. eigenvalues --   -0.33284  -0.32827  -0.32342  -0.32221  -0.31598
 Alpha  occ. eigenvalues --   -0.31475  -0.31341  -0.30394  -0.30237  -0.29859
 Alpha  occ. eigenvalues --   -0.29123  -0.28723  -0.28289  -0.28098  -0.27165
 Alpha  occ. eigenvalues --   -0.26695  -0.25829  -0.23710  -0.20639
 Alpha virt. eigenvalues --   -0.08519  -0.06168  -0.01376  -0.00761   0.00244
 Alpha virt. eigenvalues --    0.01595   0.02235   0.03778   0.04405   0.04720
 Alpha virt. eigenvalues --    0.05019   0.05748   0.07306   0.07857   0.08908

 Mulliken charges:
               1
     1  Mg   0.807053
     2  C    0.022838
     3  C   -0.198262
     4  C   -0.197849
     5  C   -0.222558
     6  N   -0.612335
     7  C    0.272753
     8  C   -0.124433
     9  C   -0.148992
    10  C    0.348172
    11  C   -0.315758
    12  C   -0.154049
    13  C   -0.271057
    14  C    0.597301
    15  O   -0.449608
    16  O   -0.439750
    17  N   -0.718875
    18  C    0.313032
    19  C    0.084392
    20  C   -0.025579
    21  C    0.358797
    22  C   -0.420888
    23  C    0.240363
    24  O   -0.432973
    25  N   -0.665320
    26  C    0.277125
    27  C   -0.079574
    28  C    0.079651
    29  C    0.293081
    30  C    0.286932
    31  C   -0.277125
    32  C   -0.275302
    33  N   -0.724294
    34  C    0.285979
    35  C    0.030637
    36  C   -0.021129
    37  C    0.362793
    38  C   -0.379501
    39  C    0.389160
    40  O   -0.419845
    41  C   -0.325780
    42  C    0.639657
    43  O   -0.497432
    44  O   -0.398659
    45  C   -0.094353
    46  C   -0.006122
    47  C   -0.109238
    48  C    0.146801
    49  C   -0.378700
    50  C   -0.185631
    51  C   -0.188276
    52  C   -0.190730
    53  C   -0.062298
    54  C   -0.306947
    55  C   -0.178450
    56  C   -0.179755
    57  C   -0.167685
    58  C   -0.045801
    59  C   -0.309566
    60  C   -0.164298
    61  C   -0.174992
    62  C   -0.167262
    63  C   -0.051630
    64  C   -0.311347
    65  C   -0.313830
    66  H    0.087678
    67  H    0.137234
    68  H    0.073054
    69  H    0.134702
    70  H    0.102797
    71  H    0.114162
    72  H    0.116505
    73  H    0.127254
    74  H    0.142310
    75  H    0.078862
    76  H    0.103226
    77  H    0.124568
    78  H    0.096685
    79  H    0.168610
    80  H    0.105952
    81  H    0.053336
    82  H    0.113711
    83  H    0.107205
    84  H    0.078546
    85  H    0.134717
    86  H    0.112046
    87  H    0.127656
    88  H    0.141601
    89  H    0.131516
    90  H    0.143439
    91  H    0.094471
    92  H    0.122881
    93  H    0.065454
    94  H    0.141415
    95  H    0.072025
    96  H    0.138052
    97  H    0.118314
    98  H    0.079048
    99  H    0.088063
   100  H    0.085941
   101  H    0.089968
   102  H    0.083027
   103  H    0.061250
   104  H    0.103315
   105  H    0.121316
   106  H    0.109791
   107  H    0.096914
   108  H    0.073186
   109  H    0.093249
   110  H    0.091897
   111  H    0.066898
   112  H    0.088914
   113  H    0.092613
   114  H    0.095829
   115  H    0.100567
   116  H    0.080401
   117  H    0.083569
   118  H    0.097839
   119  H    0.100992
   120  H    0.070768
   121  H    0.099553
   122  H    0.079416
   123  H    0.067328
   124  H    0.091586
   125  H    0.104184
   126  H    0.108266
   127  H    0.090686
   128  H    0.105656
   129  H    0.091045
   130  H    0.122584
   131  H    0.131746
   132  H    0.113992
   133  O   -0.409962
   134  H    0.085898
 Sum of Mulliken charges =  -0.00000

 Dipole moment (field-independent basis, Debye):
    X=              2.3422    Y=             -5.2699    Z=             -3.2597  Tot=              6.6244
 Quadrupole moment (field-independent basis, Debye-Ang):
   XX=           -368.5279   YY=           -440.3902   ZZ=           -395.9047
   XY=              5.3668   XZ=             30.6897   YZ=            -37.3557

 Normal termination of Gaussian 16 at Thu Oct  3 21:31:44 2019.
