 Gaussian 16, Revision A.03,
 Gaussian 16:  ES64L-G16RevA.03 25-Dec-2016

 ----------------------------------------------------------------------
 # td=(NStates=1) iop(3/107=0140000000,3/108=0140000000) iop(3/107=0140
 000000,3/108=0140000000) CAM-B3LYP/6-31G(d,p)
 ----------------------------------------------------------------------

 --
 TD
 --
 Symbolic Z-matrix:
 Charge =  0 Multiplicity = 1

                         Standard orientation:
 ---------------------------------------------------------------------
 Center     Atomic      Atomic             Coordinates (Angstroms)
 Number     Number       Type             X           Y           Z
 ---------------------------------------------------------------------
      1         12           0       -5.603322    1.247112    0.222655
      2          6           0       -4.959835   -2.092528   -0.441620
      3          6           0       -3.436642    1.097870    2.696485
      4          6           0       -6.230344    4.547677    0.719864
      5          6           0       -7.938462    1.229557   -2.412896
      6          7           0       -4.436404   -0.284014    0.997793
      7          6           0       -4.239375   -1.622179    0.595950
      8          6           0       -3.097373   -2.344220    1.462977
      9          6           0       -2.827975   -1.394204    2.526970
     10          6           0       -3.569294   -0.104476    2.051183
     11          6           0       -3.585835   -1.736328    3.824946
     12          6           0       -1.986414   -2.700512    0.563752
     13          6           0       -0.943154   -3.561157    1.354997
     14          6           0        0.372636   -3.927698    0.582212
     15          8           0        0.536652   -3.639402   -0.541882
     16          8           0        1.165034   -4.692748    1.275422
     17          7           0       -4.967959    2.577230    1.575884
     18          6           0       -3.985798    2.363355    2.525631
     19          6           0       -3.788033    3.595754    3.139405
     20          6           0       -4.543737    4.639315    2.594620
     21          6           0       -5.240117    3.870888    1.534064
     22          6           0       -2.768473    3.768381    4.340190
     23          6           0       -4.588775    6.021152    2.979928
     24          8           0       -3.947681    6.446815    3.961709
     25          7           0       -6.900056    2.602071   -0.635036
     26          6           0       -6.994279    3.961545   -0.217975
     27          6           0       -7.962456    4.620702   -1.176750
     28          6           0       -8.432911    3.666480   -2.004458
     29          6           0       -7.795344    2.421994   -1.679739
     30          6           0       -8.225958    6.048082   -1.142816
     31          6           0       -9.470010    3.864911   -3.160547
     32          6           0       -8.721626    3.944728   -4.526393
     33          7           0       -6.298979   -0.091946   -1.094357
     34          6           0       -7.292997    0.044336   -2.054242
     35          6           0       -7.510091   -1.202125   -2.802806
     36          6           0       -6.625283   -2.130348   -2.081322
     37          6           0       -5.890290   -1.412931   -1.140097
     38          6           0       -8.545388   -1.568370   -3.760696
     39          6           0       -6.228407   -3.547530   -2.040014
     40          8           0       -6.744040   -4.412928   -2.756360
     41          6           0       -5.061078   -3.575866   -1.062516
     42          6           0       -5.364989   -4.646778   -0.001797
     43          8           0       -5.843494   -4.476022    1.133915
     44          8           0       -5.184373   -5.892991   -0.460361
     45          6           0       -5.331643   -6.876637    0.489410
     46          6           0        2.391977   -5.046964    0.782931
     47          6           0        3.373017   -3.990085    1.105159
     48          6           0        4.025994   -3.168437    0.252878
     49          6           0        3.724748   -3.080934   -1.174595
     50          6           0        5.128743   -2.293098    0.767387
     51          6           0        6.536985   -2.690184    0.064017
     52          6           0        7.632886   -1.858285    0.736441
     53          6           0        9.060217   -2.089444    0.131984
     54          6           0        9.615368   -3.501677    0.403949
     55          6           0       10.049484   -0.961122    0.502030
     56          6           0       11.312584   -0.864464   -0.143681
     57          6           0       12.329046    0.248617    0.317430
     58          6           0       13.602356    0.425911   -0.626572
     59          6           0       14.630533   -0.826998   -0.518597
     60          6           0       14.313952    1.690563   -0.218982
     61          6           0       15.401784    2.196099   -1.141908
     62          6           0       15.897868    3.553265   -0.728620
     63          6           0       17.200858    4.026032   -1.472924
     64          6           0       16.994928    4.174196   -2.884523
     65          6           0       17.776170    5.316811   -0.836902
     66          1           0       -2.585600    1.010305    3.412828
     67          1           0       -6.398495    5.675985    0.773823
     68          1           0       -8.728756    1.268739   -3.106148
     69          1           0       -3.505224   -3.247174    1.766355
     70          1           0       -1.884981   -1.167553    2.971375
     71          1           0       -3.295280   -2.585952    4.358106
     72          1           0       -3.409570   -1.044723    4.416766
     73          1           0       -4.759592   -1.846412    3.640019
     74          1           0       -2.302917   -3.280637   -0.274691
     75          1           0       -1.320420   -2.002645    0.040544
     76          1           0       -0.678434   -3.194448    2.455452
     77          1           0       -1.430405   -4.512517    1.543459
     78          1           0       -1.842672    3.684786    3.758606
     79          1           0       -2.836188    4.778326    4.676791
     80          1           0       -3.031877    2.900420    5.088629
     81          1           0       -5.152103    6.651091    2.182048
     82          1           0      -10.276007    3.084834   -2.871686
     83          1           0       -9.963805    4.753975   -3.072598
     84          1           0       -9.604172    4.007390   -5.211067
     85          1           0       -7.906044    4.749849   -4.399419
     86          1           0       -8.218103    2.838478   -4.781905
     87          1           0       -8.512905   -0.979992   -4.710000
     88          1           0       -8.441098   -2.618971   -4.035612
     89          1           0       -9.438551   -1.450709   -3.450572
     90          1           0       -4.091632   -3.886503   -1.625311
     91          1           0        2.619037   -6.080901    1.063669
     92          1           0        2.250098   -5.238859   -0.392987
     93          1           0        3.694827   -4.084684    2.245078
     94          1           0        2.787166   -3.636130   -1.305156
     95          1           0        3.887980   -2.158294   -1.858893
     96          1           0        4.342024   -3.999357   -1.591807
     97          1           0        4.804931   -1.299884    0.631825
     98          1           0        5.136554   -2.366476    1.736127
     99          1           0        6.912882   -3.823837    0.282240
    100          1           0        6.449107   -2.653332   -0.976466
    101          1           0        7.459515   -0.731723    0.448577
    102          1           0        7.656114   -1.930240    1.821004
    103          1           0        8.675900   -2.197190   -1.136708
    104          1           0        8.780251   -4.202288    0.142147
    105          1           0       10.526549   -3.812336   -0.191725
    106          1           0        9.729535   -3.645210    1.370410
    107          1           0        9.455970    0.105280    0.501894
    108          1           0       10.149968   -0.988081    1.695854
    109          1           0       11.414858   -1.832746   -0.107184
    110          1           0       10.944124   -0.442184   -1.289241
    111          1           0       11.562911    1.276480    0.098388
    112          1           0       12.827095    0.005781    1.332329
    113          1           0       13.231954    0.394202   -1.751641
    114          1           0       15.313004   -1.054734    0.406083
    115          1           0       14.210384   -1.698554   -0.923964
    116          1           0       15.256226   -0.594315   -1.523078
    117          1           0       13.467305    2.579130   -0.008501
    118          1           0       14.718044    1.552483    0.747906
    119          1           0       16.279939    1.406540   -1.363811
    120          1           0       15.026065    2.229779   -2.098818
    121          1           0       15.054554    4.320759   -0.894733
    122          1           0       16.278104    3.735313    0.357752
    123          1           0       17.892844    3.123217   -1.278136
    124          1           0       16.231004    4.909231   -3.062638
    125          1           0       17.837257    4.705397   -3.365430
    126          1           0       16.744628    3.187936   -3.617362
    127          1           0       17.952820    5.356903    0.347323
    128          1           0       18.634863    5.643823   -1.284188
    129          1           0       17.126742    6.106390   -1.102703
    130          1           0       -5.061885   -7.784041   -0.013623
    131          1           0       -6.481478   -7.110062    0.672323
    132          1           0       -4.874889   -6.777349    1.432231
    133          8           0       -7.764406    6.862012   -0.332414
    134          1           0       -8.706438    6.635744   -2.119053
 ---------------------------------------------------------------------

 SCF Done:  E(RCAM-B3LYP) =  -3043.39314145     A.U. after   16 cycles

 Excitation energies and oscillator strengths:

 Excited State   1:      Singlet-A      1.9418 eV  638.50 nm  f=0.2389  <S**2>=0.000
     243 -> 246        0.21329
     244 -> 245        0.66475
 This state for optimization and/or second-order correction.
 Total Energy, E(TD-HF/TD-DFT) =  -3043.32178113
 Copying the excited state density for this state as the 1-particle RhoCI density.

 The electronic state is 1-A.
 Alpha  occ. eigenvalues --  -46.80438 -19.23690 -19.22558 -19.17724 -19.17630
 Alpha  occ. eigenvalues --  -19.17229 -19.17058 -19.16857 -14.39445 -14.37104
 Alpha  occ. eigenvalues --  -14.36731 -14.36329 -10.36114 -10.34883 -10.31828
 Alpha  occ. eigenvalues --  -10.31622 -10.30606 -10.28124 -10.28039 -10.27633
 Alpha  occ. eigenvalues --  -10.27343 -10.27116 -10.26720 -10.26589 -10.26377
 Alpha  occ. eigenvalues --  -10.26362 -10.25999 -10.25514 -10.25174 -10.25050
 Alpha  occ. eigenvalues --  -10.24776 -10.24468 -10.24415 -10.24230 -10.24217
 Alpha  occ. eigenvalues --  -10.24216 -10.24208 -10.24204 -10.24049 -10.23697
 Alpha  occ. eigenvalues --  -10.23680 -10.23458 -10.23441 -10.23245 -10.23093
 Alpha  occ. eigenvalues --  -10.22982 -10.22770 -10.22327 -10.22287 -10.22159
 Alpha  occ. eigenvalues --  -10.22070 -10.21933 -10.21893 -10.21719 -10.21688
 Alpha  occ. eigenvalues --  -10.21306 -10.21262 -10.21218 -10.21038 -10.20936
 Alpha  occ. eigenvalues --  -10.20746 -10.20694 -10.20617 -10.20449 -10.20166
 Alpha  occ. eigenvalues --  -10.20146  -3.09248  -1.84172  -1.83729  -1.83666
 Alpha  occ. eigenvalues --   -1.16946  -1.15583  -1.07509  -1.06374  -1.06103
 Alpha  occ. eigenvalues --   -1.04918  -1.04329  -1.00864  -0.99726  -0.98697
 Alpha  occ. eigenvalues --   -0.97702  -0.89284  -0.87573  -0.86454  -0.85487
 Alpha  occ. eigenvalues --   -0.85416  -0.84836  -0.84560  -0.83835  -0.83278
 Alpha  occ. eigenvalues --   -0.82844  -0.82286  -0.82093  -0.81120  -0.80431
 Alpha  occ. eigenvalues --   -0.79595  -0.78757  -0.78143  -0.77833  -0.77158
 Alpha  occ. eigenvalues --   -0.75976  -0.75224  -0.74413  -0.73584  -0.72255
 Alpha  occ. eigenvalues --   -0.72108  -0.71115  -0.70390  -0.69972  -0.69820
 Alpha  occ. eigenvalues --   -0.69556  -0.69372  -0.67719  -0.66608  -0.66083
 Alpha  occ. eigenvalues --   -0.65924  -0.65575  -0.64102  -0.63034  -0.62750
 Alpha  occ. eigenvalues --   -0.62325  -0.61043  -0.60150  -0.59675  -0.59530
 Alpha  occ. eigenvalues --   -0.58151  -0.58087  -0.57218  -0.57092  -0.56888
 Alpha  occ. eigenvalues --   -0.56363  -0.56126  -0.55869  -0.55577  -0.54861
 Alpha  occ. eigenvalues --   -0.54519  -0.53854  -0.53437  -0.52655  -0.52393
 Alpha  occ. eigenvalues --   -0.51890  -0.51780  -0.51674  -0.51456  -0.51191
 Alpha  occ. eigenvalues --   -0.50681  -0.50438  -0.49526  -0.49147  -0.49012
 Alpha  occ. eigenvalues --   -0.48943  -0.48750  -0.48099  -0.48014  -0.47753
 Alpha  occ. eigenvalues --   -0.47545  -0.47206  -0.47127  -0.47038  -0.46678
 Alpha  occ. eigenvalues --   -0.46559  -0.46470  -0.46097  -0.45877  -0.45784
 Alpha  occ. eigenvalues --   -0.45721  -0.45688  -0.45597  -0.45390  -0.44707
 Alpha  occ. eigenvalues --   -0.44606  -0.44356  -0.44331  -0.44173  -0.43980
 Alpha  occ. eigenvalues --   -0.43619  -0.43412  -0.43090  -0.43040  -0.42626
 Alpha  occ. eigenvalues --   -0.42380  -0.42226  -0.42125  -0.42065  -0.41845
 Alpha  occ. eigenvalues --   -0.41661  -0.41441  -0.41301  -0.41232  -0.41157
 Alpha  occ. eigenvalues --   -0.40992  -0.40891  -0.40696  -0.40442  -0.40274
 Alpha  occ. eigenvalues --   -0.40235  -0.40179  -0.39691  -0.39392  -0.39291
 Alpha  occ. eigenvalues --   -0.38758  -0.38562  -0.38471  -0.38307  -0.38252
 Alpha  occ. eigenvalues --   -0.37856  -0.37777  -0.37744  -0.37417  -0.37244
 Alpha  occ. eigenvalues --   -0.36744  -0.36228  -0.35928  -0.35636  -0.35590
 Alpha  occ. eigenvalues --   -0.35548  -0.35176  -0.34953  -0.34749  -0.34628
 Alpha  occ. eigenvalues --   -0.34294  -0.33662  -0.33298  -0.33216  -0.33110
 Alpha  occ. eigenvalues --   -0.32891  -0.32383  -0.32209  -0.31777  -0.31718
 Alpha  occ. eigenvalues --   -0.31106  -0.30987  -0.30848  -0.30751  -0.30696
 Alpha  occ. eigenvalues --   -0.28992  -0.28128  -0.27990  -0.27821  -0.27542
 Alpha  occ. eigenvalues --   -0.27239  -0.26565  -0.23467  -0.21527
 Alpha virt. eigenvalues --   -0.09227  -0.06481  -0.02022  -0.01206   0.00282
 Alpha virt. eigenvalues --    0.02389   0.03654   0.03833   0.04496   0.05100
 Alpha virt. eigenvalues --    0.05310   0.05868   0.07850   0.08074   0.08580

 Mulliken charges:
               1
     1  Mg   0.812449
     2  C    0.047578
     3  C   -0.228258
     4  C   -0.186885
     5  C   -0.140326
     6  N   -0.635557
     7  C    0.265711
     8  C   -0.090734
     9  C   -0.144460
    10  C    0.367352
    11  C   -0.299581
    12  C   -0.180342
    13  C   -0.281814
    14  C    0.580913
    15  O   -0.441354
    16  O   -0.403137
    17  N   -0.718639
    18  C    0.378446
    19  C   -0.047345
    20  C    0.021058
    21  C    0.299142
    22  C   -0.361074
    23  C    0.235627
    24  O   -0.438213
    25  N   -0.696246
    26  C    0.299991
    27  C    0.002931
    28  C    0.002413
    29  C    0.297729
    30  C    0.220813
    31  C   -0.232370
    32  C   -0.297172
    33  N   -0.736478
    34  C    0.284174
    35  C    0.028393
    36  C   -0.013962
    37  C    0.329628
    38  C   -0.391749
    39  C    0.382641
    40  O   -0.467680
    41  C   -0.321043
    42  C    0.609943
    43  O   -0.484984
    44  O   -0.401727
    45  C   -0.088950
    46  C   -0.027016
    47  C   -0.147253
    48  C    0.151651
    49  C   -0.388194
    50  C   -0.211219
    51  C   -0.179519
    52  C   -0.162050
    53  C   -0.038277
    54  C   -0.314002
    55  C   -0.166261
    56  C   -0.120917
    57  C   -0.144452
    58  C   -0.058339
    59  C   -0.323235
    60  C   -0.139304
    61  C   -0.170105
    62  C   -0.153670
    63  C   -0.043735
    64  C   -0.297773
    65  C   -0.323951
    66  H    0.078607
    67  H    0.145729
    68  H    0.091486
    69  H    0.127795
    70  H    0.114656
    71  H    0.110811
    72  H    0.116417
    73  H    0.111611
    74  H    0.112309
    75  H    0.129663
    76  H    0.108761
    77  H    0.131204
    78  H    0.122317
    79  H    0.165325
    80  H    0.104798
    81  H    0.083812
    82  H    0.109388
    83  H    0.124963
    84  H    0.122647
    85  H    0.129075
    86  H    0.088902
    87  H    0.113171
    88  H    0.154206
    89  H    0.147216
    90  H    0.165810
    91  H    0.118617
    92  H    0.089488
    93  H    0.072057
    94  H    0.150281
    95  H    0.119058
    96  H    0.105527
    97  H    0.110737
    98  H    0.100823
    99  H    0.075673
   100  H    0.116316
   101  H    0.085789
   102  H    0.097210
   103  H    0.023709
   104  H    0.091190
   105  H    0.107576
   106  H    0.117681
   107  H    0.050692
   108  H    0.063957
   109  H    0.092539
   110  H    0.054422
   111  H    0.063125
   112  H    0.089216
   113  H    0.070254
   114  H    0.102689
   115  H    0.117624
   116  H    0.081756
   117  H    0.056452
   118  H    0.102340
   119  H    0.072939
   120  H    0.108918
   121  H    0.076360
   122  H    0.076141
   123  H    0.076457
   124  H    0.102989
   125  H    0.094605
   126  H    0.077800
   127  H    0.086761
   128  H    0.112159
   129  H    0.107318
   130  H    0.121483
   131  H    0.105486
   132  H    0.134459
   133  O   -0.418028
   134  H    0.047445
 Sum of Mulliken charges =  -0.00000

 Dipole moment (field-independent basis, Debye):
    X=              2.6925    Y=             -4.9491    Z=             -1.9277  Tot=              5.9548
 Quadrupole moment (field-independent basis, Debye-Ang):
   XX=           -374.6532   YY=           -433.1360   ZZ=           -400.2287
   XY=              0.1454   XZ=             28.1035   YZ=            -43.4647

 Normal termination of Gaussian 16 at Thu Oct 10 22:53:50 2019.
